Title
81388
    1CHL1    C3    1   0.058   5.304  10.204 -0.5120 -0.1498  0.8092
    1CHL1    H3    2   0.145   5.247  10.163  0.3061  2.7760 -1.9185
    1CHL1    O3    3   0.054   5.288  10.344 -0.1627 -0.0396  0.2200
    1CHL1   H3'    4  -0.040   5.280  10.363 -0.1296  0.1088  0.4495
    1CHL1    C4    5   0.061   5.459  10.171 -0.4307  0.0050 -0.5044
    1CHL1   H4A    6  -0.022   5.508  10.226 -0.2372  1.3840 -1.4070
    1CHL1   H4B    7   0.155   5.504  10.209 -1.6826  2.3278  0.0069
    1CHL1    C5    8   0.047   5.489  10.021 -0.4374 -0.6331 -0.2015
    1CHL1    C6    9   0.147   5.552   9.957  0.6140  0.1160  0.4865
    1CHL1    H6   10   0.238   5.583  10.010  2.6359 -3.0802 -0.8465
    1CHL1    C7   11   0.133   5.594   9.808 -0.1178  0.3167 -0.6932
    1CHL1   H7A   12   0.179   5.695   9.799  2.1558  0.0917  4.5626
    1CHL1   H7B   13   0.192   5.519   9.752 -0.4058 -1.0005  0.6995
    1CHL1    C8   14  -0.013   5.580   9.762  0.5266  0.0370  0.0854
    1CHL1    H8   15  -0.066   5.672   9.796 -1.4883 -0.0714 -2.4727
    1CHL1   C14   16  -0.009   5.575   9.611  0.5824 -0.2107  0.6474
    1CHL1   H14   17   0.032   5.475   9.584  0.5053 -0.2381  0.6334
    1CHL1   C15   18   0.083   5.673   9.538  0.1632  0.5623 -0.0172
    1CHL1  H15A   19   0.064   5.779   9.564 -0.9244  0.4332 -0.2491
    1CHL1  H15B   20   0.191   5.657   9.559 -0.0659 -0.6839  0.2749
    1CHL1   C16   21   0.045   5.645   9.387  0.8397 -0.6851  0.1479
    1CHL1  H16A   22   0.034   5.744   9.339  1.5973 -1.2752 -1.3022
    1CHL1  H16B   23   0.127   5.580   9.347  0.4626  0.5853 -2.9664
    1CHL1   C17   24  -0.094   5.568   9.394  0.0898 -0.0689  0.2011
    1CHL1   H17   25  -0.069   5.460   9.382 -0.3209 -0.1416 -0.0136
    1CHL1   C13   26  -0.147   5.582   9.543  0.2237 -0.4365  0.4335
    1CHL1   C18   27  -0.215   5.723   9.566 -0.2197  0.6187  0.3025
    1CHL1  H18A   28  -0.243   5.743   9.671 -1.6143  1.5143 -0.2164
    1CHL1  H18B   29  -0.148   5.800   9.521 -0.0637  1.0984  1.3196
    1CHL1  H18C   30  -0.310   5.727   9.508 -0.7891  1.4101  1.2723
    1CHL1   C12   31  -0.235   5.476   9.590 -0.1882 -0.9928 -0.3621
    1CHL1  H12A   32  -0.343   5.496   9.579 -0.0320  0.6037  0.7225
    1CHL1  H12B   33  -0.208   5.377   9.546 -0.7750 -1.2627 -0.1153
    1CHL1   C11   34  -0.232   5.466   9.748  0.4443 -0.1218 -0.1939
    1CHL1  H11A   35  -0.285   5.557   9.784  2.7333  1.0129  0.5469
    1CHL1  H11B   36  -0.284   5.374   9.781  2.1582 -0.8924  0.4602
    1CHL1    C9   37  -0.088   5.459   9.813 -0.1592  0.3651 -0.0403
    1CHL1    H9   38  -0.032   5.371   9.774 -1.1289 -0.1594 -0.2899
    1CHL1   C10   39  -0.088   5.436   9.957 -0.1621 -0.2384  0.3542
    1CHL1   C19   40  -0.201   5.528  10.026  0.2889  0.1725  0.3439
    1CHL1  H19A   41  -0.181   5.540  10.134  0.3960 -1.4552  0.5230
    1CHL1  H19B   42  -0.187   5.628   9.980 -2.1372 -0.0450 -1.0333
    1CHL1  H19C   43  -0.306   5.496  10.013  0.6612 -0.3928 -1.7108
    1CHL1    C1   44  -0.104   5.284   9.997  0.3632  0.4850 -0.2950
    1CHL1   H1A   45  -0.210   5.261   9.977  0.4127 -0.6371  0.6524
    1CHL1   H1B   46  -0.040   5.219   9.933 -0.8456  0.2947 -1.3522
    1CHL1    C2   47  -0.075   5.241  10.145 -0.1433 -0.3068  0.3169
    1CHL1   H2A   48  -0.070   5.130  10.155 -2.1985 -0.4656  0.1304
    1CHL1   H2B   49  -0.164   5.277  10.201  0.7229  0.9221  0.9375
    1CHL1   C20   50  -0.172   5.620   9.278  0.2370 -0.0599  0.3441
    1CHL1   H20   51  -0.196   5.728   9.293  1.6110  0.6258 -1.9517
    1CHL1   C21   52  -0.310   5.548   9.269  0.0662  0.6279  0.3723
    1CHL1  H21A   53  -0.382   5.597   9.199 -0.0137 -0.1054 -0.0653
    1CHL1  H21B   54  -0.351   5.538   9.372  1.6411  1.2561  1.0917
    1CHL1  H21C   55  -0.297   5.440   9.249  1.2819  0.3912  2.2345
    1CHL1   C22   56  -0.098   5.612   9.139  0.0373  0.4377  0.2037
    1CHL1  H22A   57   0.012   5.632   9.139  0.0214  1.1900 -3.6068
    1CHL1  H22B   58  -0.110   5.515   9.087  1.4552  0.7290 -0.7274
    1CHL1   C23   59  -0.146   5.720   9.038 -0.0104  0.3373  0.6048
    1CHL1  H23A   60  -0.240   5.689   8.989 -0.9605  2.0040  1.2758
    1CHL1  H23B   61  -0.160   5.812   9.099  0.1950  0.1851  0.8810
    1CHL1   C24   62  -0.044   5.742   8.926 -0.3445 -0.5045 -0.0381
    1CHL1  H24A   63   0.052   5.752   8.981 -0.3144 -2.1376  0.2553
    1CHL1  H24B   64  -0.030   5.652   8.862  3.3715 -0.2348  0.1483
    1CHL1   C25   65  -0.054   5.856   8.836  0.2746  0.1907 -0.1149
    1CHL1   H25   66  -0.055   5.953   8.890  0.8281  0.0656  0.1315
    1CHL1   C26   67   0.063   5.846   8.737 -1.0539 -0.6227 -0.5264
    1CHL1  H26A   68   0.161   5.839   8.788 -0.4096  0.4985 -1.5799
    1CHL1  H26B   69   0.053   5.756   8.673  0.8365 -0.5489 -0.9675
    1CHL1  H26C   70   0.071   5.937   8.675  0.4009 -1.2492 -1.2918
    1CHL1   C27   71  -0.189   5.850   8.762 -0.5047  0.0351  0.3869
    1CHL1  H27A   72  -0.207   5.931   8.689 -0.1227 -0.1383  0.0944
    1CHL1  H27B   73  -0.205   5.761   8.697 -0.1117  0.5717 -0.4543
    1CHL1  H27C   74  -0.269   5.853   8.838  0.5032  0.5563  1.4573
    2CHL1    C3   75   2.343   3.429  10.073 -0.0324 -0.3316  1.3012
    2CHL1    H3   76   2.248   3.468  10.115 -0.2574  1.0751 -0.3663
    2CHL1    O3   77   2.437   3.404  10.174  0.0490  0.1554 -0.3786
    2CHL1   H3'   78   2.491   3.484  10.177  2.7489 -1.4269 -2.4322
    2CHL1    C4   79   2.324   3.307   9.978  0.1421 -0.3942 -0.3067
    2CHL1   H4A   80   2.429   3.274   9.960  1.1674  0.3865  3.2674
    2CHL1   H4B   81   2.291   3.218  10.036 -1.9145  0.7234  0.3369
    2CHL1    C5   82   2.246   3.319   9.846 -0.1288 -0.5537 -0.2961
    2CHL1    C6   83   2.143   3.240   9.819  0.1950 -0.3445  0.0914
    2CHL1    H6   84   2.125   3.146   9.874  1.2435 -0.7654 -0.2662
    2CHL1    C7   85   2.060   3.255   9.695  0.6193 -0.8895  0.3235
    2CHL1   H7A   86   2.033   3.154   9.657 -5.6087  0.4871  0.1230
    2CHL1   H7B   87   1.961   3.298   9.719  0.6407 -1.0046  0.6118
    2CHL1    C8   88   2.135   3.347   9.594 -0.5560 -0.2653 -0.0874
    2CHL1    H8   89   2.225   3.293   9.559  0.1529  0.5724  0.4046
    2CHL1   C14   90   2.050   3.369   9.466  0.2030  0.4989  0.2805
    2CHL1   H14   91   1.958   3.423   9.495 -0.7542 -0.2789 -1.2040
    2CHL1   C15   92   1.995   3.242   9.396  0.0675 -0.0551  0.7974
    2CHL1  H15A   93   2.067   3.160   9.380 -2.8864 -2.6876 -0.1375
    2CHL1  H15B   94   1.897   3.213   9.441 -1.8341  2.1735 -1.5685
    2CHL1   C16   95   1.963   3.302   9.256 -0.0137  0.3764 -0.3807
    2CHL1  H16A   96   2.009   3.247   9.171  0.1945 -0.2526  0.1329
    2CHL1  H16B   97   1.854   3.299   9.238 -0.3313 -3.0415  1.4453
    2CHL1   C17   98   2.011   3.451   9.250  1.1994  0.2558  0.0302
    2CHL1   H17   99   1.928   3.515   9.287  1.4731 -0.5478  2.1975
    2CHL1   C13  100   2.112   3.468   9.368  0.6749  0.2323  0.4788
    2CHL1   C18  101   2.248   3.416   9.320  0.5435 -0.0667  0.2957
    2CHL1  H18A  102   2.297   3.491   9.254 -1.2328  0.0660 -0.9492
    2CHL1  H18B  103   2.318   3.397   9.405  0.1877 -2.7147  0.0962
    2CHL1  H18C  104   2.232   3.316   9.274  1.4578  0.3101 -0.9282
    2CHL1   C12  105   2.123   3.608   9.434  0.4357 -0.8344 -0.9774
    2CHL1  H12A  106   2.167   3.688   9.371 -0.1419 -1.8089 -2.6896
    2CHL1  H12B  107   2.020   3.647   9.448  1.3046  0.7673  1.4949
    2CHL1   C11  108   2.204   3.601   9.566 -0.8834 -0.3745 -0.5721
    2CHL1  H11A  109   2.309   3.595   9.530 -0.3102  1.9555  0.4991
    2CHL1  H11B  110   2.203   3.698   9.621 -0.4124 -0.0460 -1.1280
    2CHL1    C9  111   2.177   3.480   9.665  0.2332  0.0852  0.7130
    2CHL1    H9  112   2.081   3.499   9.717  0.1369  1.4181  0.0873
    2CHL1   C10  113   2.286   3.451   9.769  0.3093 -0.1650 -0.9479
    2CHL1   C19  114   2.429   3.423   9.717 -0.3180 -0.3951 -0.1558
    2CHL1  H19A  115   2.423   3.362   9.624 -1.1862  1.2480 -1.2315
    2CHL1  H19B  116   2.496   3.510   9.701 -0.1908 -0.1825  1.4069
    2CHL1  H19C  117   2.494   3.360   9.782 -0.6204  0.5502  1.0932
    2CHL1    C1  118   2.292   3.571   9.871 -0.0634 -0.1704 -0.4209
    2CHL1   H1A  119   2.316   3.662   9.813 -2.9170  1.1332  0.2725
    2CHL1   H1B  120   2.185   3.584   9.896 -0.1127  0.2942 -0.8478
    2CHL1    C2  121   2.383   3.555   9.985  0.0662  0.2921 -0.2241
    2CHL1   H2A  122   2.380   3.647  10.048  1.7572 -0.5888  1.2280
    2CHL1   H2B  123   2.479   3.538   9.932 -1.1446  0.0716 -2.4711
    2CHL1   C20  124   2.056   3.493   9.111 -0.2693  0.1570 -0.2623
    2CHL1   H20  125   2.151   3.446   9.079  0.5495  1.2937  0.4124
    2CHL1   C21  126   2.097   3.642   9.119 -0.3163 -0.4476 -0.1979
    2CHL1  H21A  127   2.190   3.642   9.180  0.5793 -0.1901 -1.5293
    2CHL1  H21B  128   2.018   3.700   9.170  0.4501 -0.5407  1.1384
    2CHL1  H21C  129   2.115   3.667   9.012 -1.1715  0.4378 -0.1536
    2CHL1   C22  130   1.944   3.471   8.998  0.4910 -0.5685 -0.8270
    2CHL1  H22A  131   1.904   3.368   9.006 -1.3208  0.1267 -0.5561
    2CHL1  H22B  132   1.868   3.546   9.029  0.5409 -1.7120  2.3482
    2CHL1   C23  133   1.999   3.493   8.854  0.2812  0.4397  0.0698
    2CHL1  H23A  134   2.012   3.599   8.823  0.1852  0.2066 -0.7818
    2CHL1  H23B  135   2.090   3.429   8.857 -0.3906 -0.5503  0.0519
    2CHL1   C24  136   1.893   3.448   8.749  0.1608 -0.0817 -0.3261
    2CHL1  H24A  137   1.844   3.358   8.792 -0.1337  0.9195  1.5404
    2CHL1  H24B  138   1.807   3.518   8.756  1.2467  1.1450  1.3978
    2CHL1   C25  139   1.943   3.432   8.605  0.0517 -0.3077  0.4111
    2CHL1   H25  140   1.974   3.532   8.568 -1.1451  0.5014  1.4971
    2CHL1   C26  141   2.054   3.335   8.603  0.1406  0.2999 -0.1343
    2CHL1  H26A  142   2.032   3.249   8.670  1.2663 -0.4910 -0.7359
    2CHL1  H26B  143   2.058   3.292   8.501  0.9299  1.4516 -0.6206
    2CHL1  H26C  144   2.153   3.377   8.630 -1.2347  4.8380 -1.2783
    2CHL1   C27  145   1.833   3.388   8.508  0.6366 -0.5642  0.1959
    2CHL1  H27A  146   1.793   3.290   8.543 -0.1668  0.7972  3.4886
    2CHL1  H27B  147   1.754   3.465   8.519  1.8894  0.8008 -0.0425
    2CHL1  H27C  148   1.857   3.385   8.400 -2.3375 -1.2177 -0.5550
    3CHL1    C3  149   2.904   2.557  10.185  0.0431 -0.5412 -0.3433
    3CHL1    H3  150   2.801   2.586  10.216 -0.7000 -1.1328 -2.1243
    3CHL1    O3  151   2.959   2.463  10.270  0.3605 -0.2349 -0.0853
    3CHL1   H3'  152   2.906   2.387  10.244  0.4417 -0.0107 -0.9452
    3CHL1    C4  153   2.893   2.484  10.051  0.4372  0.0854 -0.4664
    3CHL1   H4A  154   2.970   2.405  10.035  0.0019 -0.3933 -0.2473
    3CHL1   H4B  155   2.800   2.427  10.072 -1.6206  3.1456 -0.6232
    3CHL1    C5  156   2.869   2.573   9.931 -0.3505  0.0982 -0.2847
    3CHL1    C6  157   2.779   2.555   9.841 -0.3310  0.7213 -0.5960
    3CHL1    H6  158   2.705   2.476   9.862 -0.7222  0.7597 -1.7392
    3CHL1    C7  159   2.767   2.630   9.717  0.5148  0.8251 -0.5500
    3CHL1   H7A  160   2.747   2.566   9.628 -0.3507  2.3452 -1.4796
    3CHL1   H7B  161   2.678   2.695   9.728  1.0900  1.4885  0.3629
    3CHL1    C8  162   2.893   2.711   9.687  0.0281  0.1357  0.1017
    3CHL1    H8  163   2.971   2.636   9.661 -0.0277  0.5310 -1.3157
    3CHL1   C14  164   2.877   2.810   9.566 -0.0169  0.0773 -0.5861
    3CHL1   H14  165   2.789   2.870   9.596 -1.3593 -1.3925 -1.4456
    3CHL1   C15  166   2.827   2.752   9.436  0.2931  0.7591  0.1654
    3CHL1  H15A  167   2.879   2.660   9.401  0.7263  1.4380 -1.0318
    3CHL1  H15B  168   2.717   2.734   9.437  0.1505  0.8200 -3.0625
    3CHL1   C16  169   2.855   2.863   9.337  0.8909 -0.0988  0.7409
    3CHL1  H16A  170   2.914   2.821   9.253  1.5025  0.2123  1.0093
    3CHL1  H16B  171   2.768   2.922   9.301  2.8979  2.1164 -0.8801
    3CHL1   C17  172   2.945   2.967   9.417  0.0513  0.2458  0.3597
    3CHL1   H17  173   2.875   3.045   9.453 -0.9954 -0.4757 -0.0447
    3CHL1   C13  174   2.998   2.898   9.540 -0.0414 -0.5722 -0.5395
    3CHL1   C18  175   3.121   2.812   9.502  0.2746 -0.4434  0.1543
    3CHL1  H18A  176   3.084   2.742   9.425 -0.9725  1.8464 -1.4350
    3CHL1  H18B  177   3.202   2.877   9.463 -0.9472  1.9902  1.4302
    3CHL1  H18C  178   3.165   2.758   9.589  0.3718  1.5753  1.4292
    3CHL1   C12  179   3.021   2.982   9.667 -0.6962 -0.5996  0.7605
    3CHL1  H12A  180   3.103   3.057   9.657 -0.9864 -0.1646  1.5487
    3CHL1  H12B  181   2.926   3.034   9.691 -0.4485  0.6905 -0.8759
    3CHL1   C11  182   3.059   2.893   9.782  0.0196  0.8304 -0.2524
    3CHL1  H11A  183   3.159   2.850   9.760 -0.1798  0.1555  0.1262
    3CHL1  H11B  184   3.071   2.962   9.868  1.6375  1.3686 -0.8589
    3CHL1    C9  185   2.949   2.784   9.811 -0.1616  0.1905 -0.3162
    3CHL1    H9  186   2.860   2.840   9.847 -0.7488 -2.1822  2.2570
    3CHL1   C10  187   2.976   2.682   9.924 -0.6107 -0.3431 -0.0331
    3CHL1   C19  188   3.115   2.627   9.905  0.3473 -0.2759 -0.2012
    3CHL1  H19A  189   3.125   2.580   9.805 -1.7352 -2.2943  0.4385
    3CHL1  H19B  190   3.189   2.708   9.922 -0.5219  0.6047 -0.4863
    3CHL1  H19C  191   3.138   2.553   9.984 -1.0164 -0.4561  0.0656
    3CHL1    C1  192   2.972   2.766  10.063 -0.1213 -0.2973 -0.6213
    3CHL1   H1A  193   3.048   2.846  10.049  0.5370 -1.0090 -1.2006
    3CHL1   H1B  194   2.885   2.831  10.085  0.1270 -0.4778  0.9615
    3CHL1    C2  195   2.991   2.684  10.193 -0.2143 -0.5219  0.1107
    3CHL1   H2A  196   2.956   2.734  10.286 -2.2392 -1.3875 -0.1385
    3CHL1   H2B  197   3.095   2.648  10.210 -0.5054 -0.9000  1.1784
    3CHL1   C20  198   3.042   3.049   9.327 -0.1796 -0.3055 -0.1337
    3CHL1   H20  199   3.127   2.985   9.292 -0.6703 -1.0158 -0.0609
    3CHL1   C21  200   3.105   3.164   9.410  0.1363  0.0487 -0.4943
    3CHL1  H21A  201   3.166   3.229   9.344  0.1599 -0.0962 -0.6171
    3CHL1  H21B  202   3.179   3.129   9.485  0.9422  0.0631 -1.2697
    3CHL1  H21C  203   3.032   3.224   9.469 -0.0676 -1.2229  0.6036
    3CHL1   C22  204   2.973   3.096   9.194  0.5180 -0.3045  0.3773
    3CHL1  H22A  205   2.911   3.020   9.143  0.7341 -0.5904  0.5379
    3CHL1  H22B  206   2.889   3.157   9.232 -2.3434 -2.4239 -2.0632
    3CHL1   C23  207   3.051   3.176   9.093 -0.3299 -0.2171  0.8142
    3CHL1  H23A  208   3.139   3.230   9.135  1.3980 -3.0643  1.1686
    3CHL1  H23B  209   3.078   3.103   9.014  0.6057  1.1120 -0.1384
    3CHL1   C24  210   2.974   3.282   9.021 -0.2444  0.0973  0.4562
    3CHL1  H24A  211   2.874   3.241   8.994 -0.3513 -0.0106  1.0050
    3CHL1  H24B  212   2.959   3.369   9.088 -0.1403 -0.0512  0.6713
    3CHL1   C25  213   3.040   3.329   8.888 -0.7868  0.1214  1.2857
    3CHL1   H25  214   3.144   3.366   8.903 -0.1934 -0.0618 -1.7289
    3CHL1   C26  215   3.051   3.220   8.783  0.9544  0.1820 -0.0541
    3CHL1  H26A  216   2.953   3.172   8.766  0.4947  0.8782  0.5712
    3CHL1  H26B  217   3.080   3.265   8.685 -0.1997 -0.8057 -0.8846
    3CHL1  H26C  218   3.139   3.158   8.811 -0.5976 -1.7197  0.7977
    3CHL1   C27  219   2.946   3.436   8.826 -0.2079 -0.0866 -0.5915
    3CHL1  H27A  220   2.842   3.396   8.829  0.5452 -2.2363 -1.2830
    3CHL1  H27B  221   2.942   3.531   8.884 -2.2535  0.1017 -0.9636
    3CHL1  H27C  222   2.966   3.464   8.720 -1.4610 -2.5932 -1.5959
    4CHL1    C3  223   1.584   4.813  10.447 -0.0364  1.1937 -0.2965
    4CHL1    H3  224   1.673   4.762  10.404 -2.9875 -3.3716 -1.7767
    4CHL1    O3  225   1.552   4.741  10.572 -0.5251  0.4021  0.1369
    4CHL1   H3'  226   1.577   4.649  10.562  2.0271  0.8505  1.5387
    4CHL1    C4  227   1.605   4.960  10.493 -0.1135  0.4117 -0.4356
    4CHL1   H4A  228   1.515   4.990  10.551 -1.2846 -0.9046 -1.4780
    4CHL1   H4B  229   1.691   4.962  10.563  0.9911  2.5698 -1.7615
    4CHL1    C5  230   1.639   5.052  10.378 -0.4662  0.2187 -0.6100
    4CHL1    C6  231   1.749   5.132  10.367  0.5134  0.3153 -0.4460
    4CHL1    H6  232   1.813   5.127  10.456 -0.6194  1.9508  0.5057
    4CHL1    C7  233   1.778   5.217  10.249  0.3557 -0.6749 -0.1243
    4CHL1   H7A  234   1.834   5.308  10.278 -0.4400  0.1134 -0.9669
    4CHL1   H7B  235   1.854   5.164  10.188  2.2109  0.7737  0.8157
    4CHL1    C8  236   1.652   5.238  10.161 -0.2619 -0.0877 -0.7064
    4CHL1    H8  237   1.575   5.295  10.218 -1.2226 -2.8636  0.9677
    4CHL1   C14  238   1.687   5.314  10.033  0.1498 -0.2904  1.0409
    4CHL1   H14  239   1.772   5.267   9.980 -0.1307 -1.7365  1.8003
    4CHL1   C15  240   1.731   5.461  10.043 -0.0512  0.3870  0.5787
    4CHL1  H15A  241   1.652   5.513  10.101 -1.4281 -0.9989  0.0008
    4CHL1  H15B  242   1.830   5.477  10.092  0.5953  0.3132 -0.6373
    4CHL1   C16  243   1.721   5.504   9.895 -0.2628 -0.0800 -0.4310
    4CHL1  H16A  244   1.693   5.612   9.892 -1.1881 -0.2335  1.2356
    4CHL1  H16B  245   1.818   5.487   9.843 -0.2247  1.3178 -0.8474
    4CHL1   C17  246   1.623   5.412   9.821  0.1794 -0.6507 -0.5974
    4CHL1   H17  247   1.686   5.348   9.755  1.1535 -0.8458  0.4895
    4CHL1   C13  248   1.566   5.321   9.936  0.4015 -0.1204 -0.0019
    4CHL1   C18  249   1.445   5.391  10.008  0.0740 -0.2514 -0.1522
    4CHL1  H18A  250   1.471   5.499  10.014  0.5151 -0.0852 -3.2855
    4CHL1  H18B  251   1.360   5.379   9.937  0.7768 -0.0609 -1.0474
    4CHL1  H18C  252   1.407   5.354  10.106 -1.1761  2.1695  0.3639
    4CHL1   C12  253   1.529   5.175   9.894 -0.5547 -0.0073  0.3847
    4CHL1  H12A  254   1.456   5.180   9.811  0.4638  0.7385 -0.4887
    4CHL1  H12B  255   1.624   5.126   9.864  0.1813  2.3466 -1.4111
    4CHL1   C11  256   1.482   5.098  10.009  0.5410  0.5271 -0.0531
    4CHL1  H11A  257   1.382   5.145  10.022 -0.2851 -0.7284 -1.4541
    4CHL1  H11B  258   1.466   4.993   9.973  3.2837  0.0915 -0.1786
    4CHL1    C9  259   1.591   5.103  10.123  0.4895 -0.2782  0.5564
    4CHL1    H9  260   1.679   5.045  10.088  0.3353  0.3328 -0.9153
    4CHL1   C10  261   1.542   5.035  10.256 -0.8425 -0.3259 -0.3543
    4CHL1   C19  262   1.407   5.094  10.298 -0.2754 -0.1496 -0.0395
    4CHL1  H19A  263   1.376   5.052  10.396 -1.7924 -1.2555 -0.9480
    4CHL1  H19B  264   1.406   5.205  10.304  0.9566 -0.0546 -1.2667
    4CHL1  H19C  265   1.324   5.076  10.227  0.2113  1.3631 -1.0267
    4CHL1    C1  266   1.521   4.885  10.219 -0.2404 -0.5663 -0.8837
    4CHL1   H1A  267   1.434   4.879  10.151  1.1241  0.2041 -2.7738
    4CHL1   H1B  268   1.612   4.841  10.173 -0.2688  0.5130 -1.9965
    4CHL1    C2  269   1.475   4.803  10.341 -0.1780  0.4837  0.4308
    4CHL1   H2A  270   1.474   4.696  10.314 -0.7399  0.8201 -1.0384
    4CHL1   H2B  271   1.378   4.837  10.383 -1.2209 -1.2754 -0.4361
    4CHL1   C20  272   1.530   5.496   9.723 -0.0680  0.1786 -0.6137
    4CHL1   H20  273   1.476   5.558   9.797 -0.7044  0.0377 -0.9508
    4CHL1   C21  274   1.441   5.388   9.654 -0.0553  0.1654 -0.1933
    4CHL1  H21A  275   1.364   5.354   9.726  2.1616  1.3068  2.9408
    4CHL1  H21B  276   1.502   5.298   9.629 -1.2594 -1.2915  1.8438
    4CHL1  H21C  277   1.397   5.428   9.560  1.5654  1.4163 -0.4715
    4CHL1   C22  278   1.596   5.590   9.622 -0.1330 -0.2570 -0.1530
    4CHL1  H22A  279   1.506   5.641   9.584 -1.0715 -1.3455  0.5523
    4CHL1  H22B  280   1.670   5.661   9.666  0.3168 -0.0557 -1.2226
    4CHL1   C23  281   1.661   5.512   9.509 -0.3664  0.4752  0.3416
    4CHL1  H23A  282   1.744   5.454   9.553  0.1047  1.0767  0.2577
    4CHL1  H23B  283   1.588   5.437   9.472 -0.3323 -0.2571  1.6884
    4CHL1   C24  284   1.710   5.609   9.400  0.2073 -0.9550 -0.1832
    4CHL1  H24A  285   1.625   5.680   9.386  0.1520 -0.2845  2.9661
    4CHL1  H24B  286   1.794   5.671   9.434  0.7099 -1.1981 -0.9457
    4CHL1   C25  287   1.748   5.545   9.268  0.1925 -0.5863  0.0945
    4CHL1   H25  288   1.662   5.483   9.235 -1.5493  1.5614  0.3623
    4CHL1   C26  289   1.775   5.662   9.168 -0.2507 -0.7366 -0.7187
    4CHL1  H26A  290   1.791   5.623   9.065 -0.3663 -0.0393 -1.0135
    4CHL1  H26B  291   1.682   5.723   9.158  0.5753  0.9088  1.0545
    4CHL1  H26C  292   1.867   5.721   9.189  0.1638 -1.0144 -1.6727
    4CHL1   C27  293   1.870   5.456   9.275 -0.0474 -0.0620  0.5150
    4CHL1  H27A  294   1.892   5.403   9.179 -1.3094 -0.2278  0.3007
    4CHL1  H27B  295   1.956   5.505   9.326 -0.6865  0.3850  1.1692
    4CHL1  H27C  296   1.851   5.374   9.348 -2.3541 -1.0569 -1.0761
    5CHL1    C3  297   2.750   3.243  10.089  0.3789 -0.1990 -0.6596
    5CHL1    H3  298   2.642   3.257  10.063  0.6174 -0.7707 -2.0910
    5CHL1    O3  299   2.772   3.165  10.202  0.3227 -0.1722 -0.0659
    5CHL1   H3'  300   2.825   3.222  10.257  2.0801  0.9602 -2.7752
    5CHL1    C4  301   2.805   3.168   9.968  0.5568  0.5002  0.1457
    5CHL1   H4A  302   2.904   3.126   9.993  0.0918 -1.1408 -0.6380
    5CHL1   H4B  303   2.745   3.075   9.970  1.1887  0.0973  0.8996
    5CHL1    C5  304   2.805   3.252   9.840  0.3833 -0.4640  0.0108
    5CHL1    C6  305   2.746   3.208   9.731 -0.1249  0.6667 -0.2627
    5CHL1    H6  306   2.696   3.110   9.734  0.9578  0.0754 -0.8979
    5CHL1    C7  307   2.738   3.278   9.597 -0.0599 -0.3400 -0.4861
    5CHL1   H7A  308   2.788   3.214   9.522  0.4925 -1.3317  0.6988
    5CHL1   H7B  309   2.629   3.289   9.575 -0.0170  0.8564 -0.2152
    5CHL1    C8  310   2.825   3.409   9.599  0.1091  0.2559  0.8704
    5CHL1    H8  311   2.929   3.369   9.594 -0.6251 -1.7177  0.3889
    5CHL1   C14  312   2.788   3.503   9.484 -0.0922 -0.1192 -0.1323
    5CHL1   H14  313   2.692   3.550   9.512 -0.0862 -1.7656  3.0641
    5CHL1   C15  314   2.774   3.439   9.345  0.1452  0.2917  0.2377
    5CHL1  H15A  315   2.862   3.376   9.321  0.4494  1.2617 -1.3234
    5CHL1  H15B  316   2.681   3.378   9.336 -2.1042  3.4199  0.5481
    5CHL1   C16  317   2.767   3.562   9.253  0.2823 -0.2822 -0.5018
    5CHL1  H16A  318   2.819   3.538   9.158 -1.4016 -1.3718 -1.1915
    5CHL1  H16B  319   2.662   3.581   9.222 -0.3502 -2.1915  0.3419
    5CHL1   C17  320   2.818   3.685   9.337  0.1838  0.6005  0.4747
    5CHL1   H17  321   2.736   3.751   9.375  0.8584  0.7718  1.6640
    5CHL1   C13  322   2.882   3.619   9.467 -0.0958  0.0306  0.2905
    5CHL1   C18  323   3.022   3.569   9.441 -0.0809  0.4061  0.2338
    5CHL1  H18A  324   3.068   3.522   9.530 -1.1704  0.6859  0.9593
    5CHL1  H18B  325   3.035   3.512   9.346 -2.4806 -2.0450  1.2285
    5CHL1  H18C  326   3.087   3.659   9.440 -1.6974  1.6235  0.7709
    5CHL1   C12  327   2.885   3.706   9.587  0.4672 -0.2369 -0.9729
    5CHL1  H12A  328   2.959   3.788   9.593 -0.3754  0.4409  2.1047
    5CHL1  H12B  329   2.783   3.751   9.578  0.9872  1.4020  0.6227
    5CHL1   C11  330   2.894   3.635   9.725  0.3543  0.2878  0.0176
    5CHL1  H11A  331   3.003   3.614   9.719  0.1716 -0.2058 -2.8116
    5CHL1  H11B  332   2.865   3.696   9.814  0.2745  0.0619  0.1472
    5CHL1    C9  333   2.824   3.489   9.732  0.6914  0.0249 -0.1877
    5CHL1    H9  334   2.719   3.516   9.754  1.0407  0.3649  1.1076
    5CHL1   C10  335   2.863   3.397   9.857 -0.2284  0.3386  0.5642
    5CHL1   C19  336   3.021   3.394   9.869  0.0078 -0.4390 -0.6059
    5CHL1  H19A  337   3.071   3.373   9.772  2.5513  0.5206  0.4341
    5CHL1  H19B  338   3.059   3.492   9.904  0.7346  0.1560 -2.8671
    5CHL1  H19C  339   3.051   3.323   9.948 -0.7991  1.4146  1.4581
    5CHL1    C1  340   2.808   3.466   9.987  0.6762 -0.1286 -0.6981
    5CHL1   H1A  341   2.843   3.571  10.003 -1.1284  0.2136  1.4847
    5CHL1   H1B  342   2.699   3.474   9.968  0.1237 -1.1623  1.6138
    5CHL1    C2  343   2.821   3.376  10.111  1.0144 -0.0855  0.1841
    5CHL1   H2A  344   2.765   3.433  10.188  0.9121  0.0737 -0.0050
    5CHL1   H2B  345   2.926   3.373  10.146  2.2450  0.0747 -3.1424
    5CHL1   C20  346   2.904   3.778   9.251 -0.5733  0.2590 -0.4239
    5CHL1   H20  347   3.004   3.732   9.235 -0.0044  1.5111 -0.6528
    5CHL1   C21  348   2.952   3.897   9.340  0.9572  0.1223 -0.0453
    5CHL1  H21A  349   3.015   3.871   9.427  1.3387 -0.3932 -0.4669
    5CHL1  H21B  350   2.859   3.946   9.376 -0.8586 -1.3860 -2.3457
    5CHL1  H21C  351   3.009   3.964   9.272  0.8788 -0.9791 -1.2403
    5CHL1   C22  352   2.835   3.825   9.120 -0.2567  0.2503  0.0696
    5CHL1  H22A  353   2.785   3.743   9.064 -1.4642  1.5448 -0.8178
    5CHL1  H22B  354   2.746   3.879   9.161 -0.5848  0.1579 -0.5133
    5CHL1   C23  355   2.913   3.935   9.032 -0.3857  0.1912  0.1572
    5CHL1  H23A  356   2.871   3.939   8.929  1.2396  0.0637 -0.5463
    5CHL1  H23B  357   2.915   4.038   9.073  1.5612  0.0319  0.5540
    5CHL1   C24  358   3.059   3.899   8.990 -0.1615  0.3631  0.1668
    5CHL1  H24A  359   3.128   3.896   9.077  0.5537  1.4307 -0.3454
    5CHL1  H24B  360   3.053   3.798   8.943  2.3325  0.4057 -0.3863
    5CHL1   C25  361   3.128   3.979   8.877 -0.5633  0.0286  0.5262
    5CHL1   H25  362   3.055   3.967   8.794  0.4749 -0.7171 -0.3158
    5CHL1   C26  363   3.148   4.127   8.924 -0.1267 -0.3494  0.2238
    5CHL1  H26A  364   3.163   4.184   8.831 -1.1717 -0.7550 -0.2100
    5CHL1  H26B  365   3.058   4.171   8.974 -0.0364 -1.3307  1.2991
    5CHL1  H26C  366   3.236   4.141   8.991  0.7814  1.6421 -1.3014
    5CHL1   C27  367   3.257   3.909   8.830  0.0527  0.4201 -0.3742
    5CHL1  H27A  368   3.306   3.967   8.749  0.9598 -0.2253 -0.3027
    5CHL1  H27B  369   3.341   3.918   8.903  1.0693  1.0033 -1.5626
    5CHL1  H27C  370   3.233   3.808   8.792 -0.8753 -0.0053  1.2541
    6CHL1    C3  371   1.073   1.147  10.201 -0.4474 -0.6913  0.3858
    6CHL1    H3  372   1.033   1.045  10.218 -0.0784 -0.6221  1.8044
    6CHL1    O3  373   1.084   1.214  10.331  0.3703 -0.2481  0.5603
    6CHL1   H3'  374   1.120   1.302  10.318  0.1371 -0.3164 -0.6677
    6CHL1    C4  375   1.211   1.140  10.138  0.4219  0.4021 -0.4366
    6CHL1   H4A  376   1.244   1.246  10.139 -0.3719  0.6691 -0.9905
    6CHL1   H4B  377   1.293   1.093  10.196 -2.0491 -0.3711  2.7210
    6CHL1    C5  378   1.207   1.094   9.997 -0.0002  0.4439  0.2708
    6CHL1    C6  379   1.299   1.003   9.958 -0.2699  0.5335 -0.7811
    6CHL1    H6  380   1.382   0.974  10.024  0.2073  0.6352 -1.3281
    6CHL1    C7  381   1.291   0.939   9.824 -0.1723 -0.4145 -0.0304
    6CHL1   H7A  382   1.400   0.937   9.802  0.1004 -0.2733  1.1997
    6CHL1   H7B  383   1.258   0.832   9.826  0.6484 -0.6881 -0.6123
    6CHL1    C8  384   1.211   1.020   9.724  0.3930  0.4939  0.6127
    6CHL1    H8  385   1.258   1.117   9.698 -2.3037  1.8003  0.2334
    6CHL1   C14  386   1.191   0.929   9.603 -0.4752 -0.5376 -0.0905
    6CHL1   H14  387   1.138   0.841   9.645  0.2659 -2.0110 -2.0454
    6CHL1   C15  388   1.317   0.876   9.534  0.2495 -0.1524  0.3713
    6CHL1  H15A  389   1.388   0.961   9.526  1.0570 -0.6748  1.6501
    6CHL1  H15B  390   1.357   0.793   9.595 -0.5526  0.5410  1.8963
    6CHL1   C16  391   1.266   0.822   9.403  0.4950 -0.0836  0.3723
    6CHL1  H16A  392   1.319   0.861   9.314 -0.6585 -0.1820 -0.3901
    6CHL1  H16B  393   1.265   0.711   9.394 -1.4188 -0.1649  0.9816
    6CHL1   C17  394   1.114   0.874   9.400 -0.2956 -0.2866  0.1698
    6CHL1   H17  395   1.049   0.796   9.445  0.6541 -1.8864 -1.0856
    6CHL1   C13  396   1.107   0.992   9.498 -0.0107 -0.5461 -0.2158
    6CHL1   C18  397   1.176   1.115   9.433 -0.1968  0.3704  0.0692
    6CHL1  H18A  398   1.201   1.198   9.503  0.0204  1.6492 -1.4504
    6CHL1  H18B  399   1.271   1.074   9.392  0.2095  0.6633  0.7007
    6CHL1  H18C  400   1.123   1.158   9.346 -1.0221  1.3739  1.0437
    6CHL1   C12  401   0.972   1.025   9.557  0.1607  0.1427  0.9711
    6CHL1  H12A  402   0.909   1.080   9.484  0.3613 -1.1320 -0.2267
    6CHL1  H12B  403   0.917   0.932   9.584 -0.6754 -0.0178 -1.0510
    6CHL1   C11  404   0.985   1.121   9.675  0.7844  1.0942  0.0907
    6CHL1  H11A  405   1.023   1.218   9.635 -0.4627  1.5475 -0.0373
    6CHL1  H11B  406   0.883   1.135   9.716  0.6624 -0.1096  0.2202
    6CHL1    C9  407   1.075   1.059   9.787 -0.2396  0.2194  0.1972
    6CHL1    H9  408   1.034   0.967   9.832 -1.0776  1.1119  1.3017
    6CHL1   C10  409   1.093   1.150   9.914 -0.3875  0.0466 -0.3425
    6CHL1   C19  410   1.132   1.291   9.870 -0.9449  0.4786 -0.0284
    6CHL1  H19A  411   1.146   1.364   9.952 -0.0894  0.5878 -0.2684
    6CHL1  H19B  412   1.231   1.296   9.819  1.0137  3.5291  3.6258
    6CHL1  H19C  413   1.054   1.339   9.806  0.1198  1.6113 -0.5096
    6CHL1    C1  414   0.956   1.160   9.981  0.2138 -0.5047  0.0176
    6CHL1   H1A  415   0.885   1.210   9.912  0.4485 -1.1093 -0.6804
    6CHL1   H1B  416   0.915   1.060  10.007 -0.7592 -0.1974 -0.3143
    6CHL1    C2  417   0.974   1.233  10.118  1.0361  0.0900 -0.2377
    6CHL1   H2A  418   0.877   1.235  10.172  0.8811 -1.1763 -0.4186
    6CHL1   H2B  419   1.016   1.335  10.111  0.8673  0.1526 -0.3395
    6CHL1   C20  420   1.060   0.893   9.257  0.8964  1.2370 -0.0870
    6CHL1   H20  421   1.126   0.963   9.201  1.0635 -0.6758 -2.4846
    6CHL1   C21  422   0.922   0.955   9.258 -0.3246 -0.0409  0.7212
    6CHL1  H21A  423   0.854   0.902   9.328 -0.0639 -0.2650  0.8075
    6CHL1  H21B  424   0.886   0.946   9.154  2.4356 -0.7382 -0.2673
    6CHL1  H21C  425   0.923   1.064   9.279  0.2350  0.6331 -2.3253
    6CHL1   C22  426   1.071   0.759   9.176  0.2271  0.2762  0.0755
    6CHL1  H22A  427   1.180   0.752   9.153  0.1811 -0.0915 -0.0424
    6CHL1  H22B  428   1.047   0.677   9.246  0.0507 -1.3299 -1.7641
    6CHL1   C23  429   0.990   0.732   9.046 -0.2905  0.1903 -0.3737
    6CHL1  H23A  430   0.884   0.709   9.070 -0.2966  0.0354 -0.5442
    6CHL1  H23B  431   1.014   0.823   8.987 -2.8821  0.3733 -1.2433
    6CHL1   C24  432   1.040   0.617   8.959 -0.3823 -0.2747 -0.0804
    6CHL1  H24A  433   1.124   0.655   8.896 -2.5660  2.0114 -1.8344
    6CHL1  H24B  434   1.079   0.533   9.020 -0.4394 -0.0606  0.2522
    6CHL1   C25  435   0.954   0.549   8.854  0.2783  0.0017 -0.9184
    6CHL1   H25  436   0.893   0.469   8.899 -1.5552 -0.1886 -3.5045
    6CHL1   C26  437   0.858   0.654   8.789  0.0176  0.0933 -0.3952
    6CHL1  H26A  438   0.934   0.732   8.766  2.4329 -2.8819 -3.6191
    6CHL1  H26B  439   0.809   0.613   8.698  0.1286  1.3764 -1.0549
    6CHL1  H26C  440   0.773   0.688   8.852 -2.1209 -3.2387 -1.1866
    6CHL1   C27  441   1.034   0.483   8.752  0.2962 -0.3068  0.6463
    6CHL1  H27A  442   1.107   0.552   8.705 -0.9386  0.1315 -0.7014
    6CHL1  H27B  443   1.096   0.400   8.792 -1.7588 -0.6098  3.5456
    6CHL1  H27C  444   0.968   0.439   8.674  0.5668 -3.2431  1.9471
    7CHL1    C3  445   3.415   3.267  10.520 -0.3002  0.1314  0.5413
    7CHL1    H3  446   3.365   3.366  10.518 -0.2300  0.1918 -2.5517
    7CHL1    O3  447   3.387   3.189  10.638  0.2779 -0.2468 -0.2820
    7CHL1   H3'  448   3.464   3.134  10.653 -0.1521 -0.7194  0.1918
    7CHL1    C4  449   3.376   3.187  10.395 -0.1455 -0.5089 -0.0322
    7CHL1   H4A  450   3.404   3.080  10.401 -0.8369 -0.6763  0.2948
    7CHL1   H4B  451   3.265   3.178  10.396 -0.4704  2.4264  0.2245
    7CHL1    C5  452   3.426   3.244  10.264 -0.1298  0.4086  0.0866
    7CHL1    C6  453   3.346   3.283  10.162  0.0326  0.2090 -0.5143
    7CHL1    H6  454   3.239   3.258  10.163 -0.2765  1.2620 -2.3677
    7CHL1    C7  455   3.402   3.342  10.032  0.0465 -0.3397 -0.2473
    7CHL1   H7A  456   3.337   3.309   9.947  0.8030 -0.1352 -0.9132
    7CHL1   H7B  457   3.392   3.452  10.023  1.4483 -0.0871  1.0093
    7CHL1    C8  458   3.549   3.319  10.006  0.3629 -0.2988  0.3722
    7CHL1    H8  459   3.558   3.214   9.971  0.6672  0.1982 -1.1206
    7CHL1   C14  460   3.599   3.411   9.891  0.1431  0.6981  0.3485
    7CHL1   H14  461   3.610   3.509   9.941  1.3918  0.3354  0.8267
    7CHL1   C15  462   3.518   3.425   9.757  0.1234  0.6774  0.0760
    7CHL1  H15A  463   3.470   3.329   9.728 -0.3477  1.1831 -0.8547
    7CHL1  H15B  464   3.439   3.502   9.773 -1.1254 -0.4558 -0.4627
    7CHL1   C16  465   3.625   3.456   9.653 -0.7419 -0.6597 -0.6609
    7CHL1  H16A  466   3.618   3.390   9.565 -0.0129 -0.0129 -1.2223
    7CHL1  H16B  467   3.594   3.558   9.621  0.2114  0.2211  1.0469
    7CHL1   C17  468   3.764   3.460   9.722 -0.5582 -0.1911 -0.2024
    7CHL1   H17  469   3.777   3.566   9.752  3.0516 -0.2249 -1.1273
    7CHL1   C13  470   3.745   3.378   9.850  0.3359  0.1486 -0.5679
    7CHL1   C18  471   3.763   3.227   9.804 -0.3614 -0.1526  0.0756
    7CHL1  H18A  472   3.864   3.205   9.763 -0.3045 -1.0662  0.6525
    7CHL1  H18B  473   3.753   3.154   9.887  0.6124 -0.6388 -0.2172
    7CHL1  H18C  474   3.689   3.206   9.725  1.3608 -0.8685 -1.4158
    7CHL1   C12  475   3.829   3.403   9.978  0.0984  0.2847  0.2475
    7CHL1  H12A  476   3.937   3.383   9.963 -0.1194 -0.1523 -0.8452
    7CHL1  H12B  477   3.819   3.512   9.996 -2.4224  0.1702  0.0038
    7CHL1   C11  478   3.778   3.325  10.101 -0.2705  0.1140 -0.1084
    7CHL1  H11A  479   3.809   3.218  10.094 -3.2815 -0.8475  0.0042
    7CHL1  H11B  480   3.833   3.352  10.194  0.2476 -1.6531  0.1480
    7CHL1    C9  481   3.626   3.342  10.135 -0.4821  0.0013  0.1672
    7CHL1    H9  482   3.610   3.449  10.164  0.3472  0.7125 -1.8413
    7CHL1   C10  483   3.579   3.261  10.264  0.0940  0.9540 -0.7660
    7CHL1   C19  484   3.644   3.119  10.252  0.7083 -0.3763 -0.0939
    7CHL1  H19A  485   3.754   3.119  10.266  0.5516 -1.6607  1.5899
    7CHL1  H19B  486   3.605   3.040  10.321  1.0465  0.4891  1.1188
    7CHL1  H19C  487   3.647   3.081  10.148  2.0021  0.3309 -0.3280
    7CHL1    C1  488   3.629   3.333  10.394 -0.4543 -0.6075  0.1496
    7CHL1   H1A  489   3.738   3.321  10.410 -0.5300  0.7297  2.0427
    7CHL1   H1B  490   3.614   3.443  10.401  0.4456 -0.4009 -0.9581
    7CHL1    C2  491   3.568   3.280  10.527  0.1725  0.9427 -0.0752
    7CHL1   H2A  492   3.605   3.351  10.604 -0.0766  1.9599 -0.8707
    7CHL1   H2B  493   3.614   3.179  10.529 -0.2442  0.7231 -0.9854
    7CHL1   C20  494   3.880   3.437   9.625  0.5243  0.7811  0.0253
    7CHL1   H20  495   3.865   3.331   9.595 -2.7463  0.0454  3.5127
    7CHL1   C21  496   4.021   3.464   9.687  0.6973  0.2130 -0.6656
    7CHL1  H21A  497   4.032   3.571   9.713 -1.3726  0.6001 -1.1994
    7CHL1  H21B  498   4.098   3.430   9.615  0.9324  2.0956 -1.3386
    7CHL1  H21C  499   4.035   3.399   9.776  0.6910  1.1129  0.0038
    7CHL1   C22  500   3.873   3.512   9.487  0.3491 -0.2961 -0.1938
    7CHL1  H22A  501   3.766   3.523   9.461  0.6203  0.6659 -0.9620
    7CHL1  H22B  502   3.923   3.608   9.513 -0.4192 -0.2120  1.0520
    7CHL1   C23  503   3.951   3.453   9.366 -0.0391  0.5000  0.2416
    7CHL1  H23A  504   4.052   3.426   9.404  0.0999 -0.3565 -0.6876
    7CHL1  H23B  505   3.910   3.352   9.345  0.5586  0.4191 -0.5935
    7CHL1   C24  506   3.959   3.542   9.245 -0.0679  0.4726 -0.0124
    7CHL1  H24A  507   3.863   3.548   9.189  0.5897  1.4192 -1.0721
    7CHL1  H24B  508   3.979   3.639   9.295 -0.1558  1.4036 -1.7038
    7CHL1   C25  509   4.069   3.500   9.139 -0.1936  0.2408 -0.0019
    7CHL1   H25  510   4.047   3.560   9.048 -1.8581 -1.9715 -1.1731
    7CHL1   C26  511   4.215   3.509   9.187  0.7634  0.5137  0.6230
    7CHL1  H26A  512   4.240   3.609   9.230  0.5794  0.2555  1.3493
    7CHL1  H26B  513   4.236   3.433   9.265 -2.5096 -1.2429 -0.0197
    7CHL1  H26C  514   4.274   3.478   9.098 -0.6190  2.1046 -0.9306
    7CHL1   C27  515   4.043   3.361   9.080 -0.0373  0.2925  0.2314
    7CHL1  H27A  516   4.076   3.278   9.146 -0.3173 -0.8921 -1.0759
    7CHL1  H27B  517   3.936   3.343   9.057  0.2950 -0.6240 -0.6787
    7CHL1  H27C  518   4.091   3.346   8.981 -0.6708 -1.1902  0.1154
    8CHL1    C3  519   4.452   4.910  10.358  0.9199 -0.0497  0.1845
    8CHL1    H3  520   4.529   4.979  10.317 -2.9362  3.4557 -1.8889
    8CHL1    O3  521   4.419   4.948  10.487  0.2490 -0.5032 -0.1205
    8CHL1   H3'  522   4.331   4.912  10.499  0.0087  0.4693  1.2059
    8CHL1    C4  523   4.315   4.918  10.274 -0.3189  0.2819  0.2755
    8CHL1   H4A  524   4.231   4.859  10.317  1.0194 -1.4049  0.6864
    8CHL1   H4B  525   4.283   5.024  10.269 -0.9218  0.0263 -2.7693
    8CHL1    C5  526   4.333   4.865  10.135 -0.3509 -0.0507  0.0591
    8CHL1    C6  527   4.290   4.940  10.027 -0.3870 -0.3864 -0.4173
    8CHL1    H6  528   4.244   5.038  10.043  2.5971  1.1162 -0.2705
    8CHL1    C7  529   4.294   4.892   9.882  0.7581  0.0003 -0.3928
    8CHL1   H7A  530   4.191   4.898   9.841  0.3420  0.9883  0.7601
    8CHL1   H7B  531   4.369   4.956   9.831 -0.7815  1.0289 -1.4627
    8CHL1    C8  532   4.338   4.743   9.870 -0.0317  0.5340  0.1209
    8CHL1    H8  533   4.237   4.698   9.884 -0.5768  1.0348 -1.9614
    8CHL1   C14  534   4.396   4.718   9.731  0.1865 -0.2434 -0.2032
    8CHL1   H14  535   4.499   4.760   9.730  0.1992 -0.2553  0.3545
    8CHL1   C15  536   4.310   4.772   9.626 -0.8578  0.3876 -0.1454
    8CHL1  H15A  537   4.208   4.736   9.650 -0.6344  1.3658  2.6428
    8CHL1  H15B  538   4.321   4.881   9.607  3.3237  0.2505  0.4574
    8CHL1   C16  539   4.357   4.702   9.495  0.1022 -0.5069 -0.1425
    8CHL1  H16A  540   4.268   4.672   9.436 -0.2894  0.1856  0.0763
    8CHL1  H16B  541   4.422   4.768   9.434  1.3690 -0.4964  1.1587
    8CHL1   C17  542   4.445   4.585   9.543 -0.4539 -0.3268 -0.5301
    8CHL1   H17  543   4.547   4.627   9.533 -0.2454 -0.9915 -1.3774
    8CHL1   C13  544   4.422   4.573   9.697 -0.1813 -0.1004  0.4885
    8CHL1   C18  545   4.300   4.484   9.739 -0.1549  0.2375 -0.6214
    8CHL1  H18A  546   4.324   4.380   9.712 -0.4666  0.0115 -0.0583
    8CHL1  H18B  547   4.279   4.477   9.848 -3.5290 -2.7990 -1.2573
    8CHL1  H18C  548   4.204   4.512   9.690  0.3518  1.5845 -0.9027
    8CHL1   C12  549   4.542   4.532   9.789  0.8415 -0.7398  0.1268
    8CHL1  H12A  550   4.554   4.422   9.784  0.1998 -0.7549 -1.3974
    8CHL1  H12B  551   4.642   4.578   9.777  1.0417 -1.2283 -0.1048
    8CHL1   C11  552   4.512   4.561   9.946 -0.2613 -0.0268 -0.1748
    8CHL1  H11A  553   4.441   4.484   9.983 -1.1940  0.9322  0.1013
    8CHL1  H11B  554   4.611   4.546   9.994 -0.9210 -0.2020  1.1836
    8CHL1    C9  555   4.448   4.702   9.974  0.8451 -0.2176 -0.7252
    8CHL1    H9  556   4.534   4.771   9.958  2.7691 -2.6533 -1.4863
    8CHL1   C10  557   4.396   4.730  10.119  0.3547 -0.0091  0.2954
    8CHL1   C19  558   4.290   4.630  10.165 -0.6988 -0.2478  0.5562
    8CHL1  H19A  559   4.325   4.525  10.160 -2.0303 -0.7780  1.6989
    8CHL1  H19B  560   4.268   4.638  10.273  1.8792 -0.2471  1.1326
    8CHL1  H19C  561   4.209   4.635  10.088  0.8762 -3.4224 -1.5233
    8CHL1    C1  562   4.517   4.717  10.217 -0.0178 -0.1272  0.1678
    8CHL1   H1A  563   4.545   4.609  10.220  0.8494  0.0933  0.4567
    8CHL1   H1B  564   4.600   4.776  10.173  0.1048  0.8407  1.6215
    8CHL1    C2  565   4.492   4.764  10.360  0.0216 -0.9277 -0.0775
    8CHL1   H2A  566   4.583   4.757  10.424  0.7901  0.5394 -0.9659
    8CHL1   H2B  567   4.401   4.720  10.405  0.5921 -0.4833  1.6303
    8CHL1   C20  568   4.450   4.466   9.448 -0.3887 -0.1826  0.1940
    8CHL1   H20  569   4.351   4.418   9.432 -0.0812 -2.0510  3.1769
    8CHL1   C21  570   4.533   4.352   9.513 -0.0609 -0.3994  0.2105
    8CHL1  H21A  571   4.528   4.259   9.452 -1.3179 -0.3608  0.2112
    8CHL1  H21B  572   4.479   4.319   9.604 -2.5257 -1.9712 -1.6681
    8CHL1  H21C  573   4.637   4.388   9.521  0.2974 -0.7820 -2.0835
    8CHL1   C22  574   4.491   4.502   9.300 -0.2298  0.4900 -1.1189
    8CHL1  H22A  575   4.424   4.579   9.257  0.5005  1.6262 -0.2662
    8CHL1  H22B  576   4.596   4.537   9.292 -0.7289  1.9543 -1.5819
    8CHL1   C23  577   4.480   4.383   9.216  0.1318  0.1735  1.0512
    8CHL1  H23A  578   4.560   4.314   9.251  1.5697  0.5029 -1.3851
    8CHL1  H23B  579   4.381   4.334   9.220  0.4787 -0.5426  1.1493
    8CHL1   C24  580   4.505   4.419   9.067 -0.2813  0.4572 -0.4681
    8CHL1  H24A  581   4.454   4.516   9.048  1.6706  1.3515 -1.3900
    8CHL1  H24B  582   4.614   4.440   9.059  0.1760 -1.2843  0.6267
    8CHL1   C25  583   4.474   4.317   8.971  0.0712  0.6686  0.2334
    8CHL1   H25  584   4.544   4.232   8.982  0.3500  0.8553 -0.1046
    8CHL1   C26  585   4.327   4.264   8.978 -0.1994 -0.1263  0.3556
    8CHL1  H26A  586   4.264   4.355   8.981 -1.7735 -1.2041  2.9899
    8CHL1  H26B  587   4.292   4.203   8.892 -2.5626 -0.6780  1.6402
    8CHL1  H26C  588   4.300   4.196   9.061 -2.8811 -2.7047 -2.3630
    8CHL1   C27  589   4.494   4.378   8.824 -0.7399 -0.0273  0.1428
    8CHL1  H27A  590   4.499   4.296   8.749  0.0670  0.7483 -0.6858
    8CHL1  H27B  591   4.404   4.440   8.808 -1.1427 -0.6148  0.1137
    8CHL1  H27C  592   4.590   4.430   8.806 -0.5466 -0.6181 -0.5878
    9CHL1    C3  593   0.519   2.515  10.103  0.5931  0.1237 -0.1302
    9CHL1    H3  594   0.534   2.405  10.099  0.4064  0.1162 -0.7135
    9CHL1    O3  595   0.512   2.547  10.243  0.1363  0.6537  0.0135
    9CHL1   H3'  596   0.435   2.512  10.288 -0.1324  1.9518  0.6125
    9CHL1    C4  597   0.623   2.597  10.030  0.0271  0.7679  0.8248
    9CHL1   H4A  598   0.607   2.705  10.052  0.0433  1.2148 -1.1504
    9CHL1   H4B  599   0.713   2.564  10.085 -0.5260 -0.9668  0.7296
    9CHL1    C5  600   0.629   2.568   9.880  0.9620 -0.9216  0.7494
    9CHL1    C6  601   0.741   2.545   9.809 -0.2897  0.2748 -0.2942
    9CHL1    H6  602   0.838   2.553   9.860 -0.3293  0.8298 -0.2958
    9CHL1    C7  603   0.755   2.551   9.657 -0.0577 -0.5051  0.0078
    9CHL1   H7A  604   0.838   2.618   9.626  0.0453 -0.8585 -0.5030
    9CHL1   H7B  605   0.782   2.453   9.611 -0.9183 -0.1179 -1.3581
    9CHL1    C8  606   0.627   2.612   9.590  0.1493  0.3523  0.4401
    9CHL1    H8  607   0.626   2.722   9.600 -0.9295  0.7463 -2.7968
    9CHL1   C14  608   0.629   2.587   9.442 -0.0475  0.2112 -0.5857
    9CHL1   H14  609   0.649   2.478   9.433  2.9393  0.6238  0.0954
    9CHL1   C15  610   0.737   2.655   9.364  0.7559  0.2104  0.1090
    9CHL1  H15A  611   0.741   2.765   9.381  3.1362  0.2861 -0.5993
    9CHL1  H15B  612   0.842   2.621   9.373  0.8627  0.2579 -0.8065
    9CHL1   C16  613   0.682   2.639   9.218  0.4294  0.2731  0.0763
    9CHL1  H16A  614   0.704   2.728   9.157 -0.4422  0.0377 -0.6072
    9CHL1  H16B  615   0.719   2.543   9.176 -2.1043 -0.5073 -0.5639
    9CHL1   C17  616   0.528   2.601   9.226 -0.1685  0.4894 -0.1723
    9CHL1   H17  617   0.522   2.491   9.220  3.2375  0.1585  0.1470
    9CHL1   C13  618   0.491   2.624   9.375 -0.3236  0.1226 -0.3207
    9CHL1   C18  619   0.463   2.775   9.389 -0.4940  0.4928  0.3174
    9CHL1  H18A  620   0.534   2.835   9.328  0.1471  0.4315  0.9912
    9CHL1  H18B  621   0.365   2.806   9.347 -0.5754 -2.4284 -1.9976
    9CHL1  H18C  622   0.457   2.807   9.495 -2.3289 -0.4645  0.5441
    9CHL1   C12  623   0.377   2.543   9.440  0.2490 -0.2921  0.3959
    9CHL1  H12A  624   0.280   2.569   9.393 -0.8047 -2.8743  0.9606
    9CHL1  H12B  625   0.393   2.434   9.425 -0.3906 -0.3173 -0.1629
    9CHL1   C11  626   0.361   2.562   9.590  0.1338  0.0627  0.0766
    9CHL1  H11A  627   0.324   2.665   9.608  0.7493  0.6250 -1.7106
    9CHL1  H11B  628   0.289   2.495   9.642 -1.4282  1.1655 -0.6122
    9CHL1    C9  629   0.508   2.549   9.661  0.5017 -0.1009 -0.5808
    9CHL1    H9  630   0.525   2.440   9.660  0.6290 -0.0843 -1.5460
    9CHL1   C10  631   0.490   2.589   9.814  0.4922 -1.1149 -0.8792
    9CHL1   C19  632   0.462   2.747   9.821  0.3612  0.6316  0.5725
    9CHL1  H19A  633   0.370   2.777   9.766  0.9320 -0.1080 -0.8353
    9CHL1  H19B  634   0.440   2.781   9.924 -1.3064  1.8664 -0.1426
    9CHL1  H19C  635   0.550   2.804   9.785 -1.7912  3.4857 -0.5418
    9CHL1    C1  636   0.373   2.518   9.892  0.6902  0.1109  0.1706
    9CHL1   H1A  637   0.272   2.551   9.861  1.2675  0.4205 -1.4687
    9CHL1   H1B  638   0.383   2.409   9.874  2.3392 -0.1358  2.1363
    9CHL1    C2  639   0.378   2.544  10.042 -0.7614 -0.5676  0.0918
    9CHL1   H2A  640   0.299   2.484  10.092 -1.0448 -0.3048 -0.0284
    9CHL1   H2B  641   0.347   2.649  10.065  1.6950  0.1741  0.2616
    9CHL1   C20  642   0.444   2.667   9.122 -0.8336 -0.1474 -0.1995
    9CHL1   H20  643   0.450   2.776   9.145  2.4373 -0.2179 -0.2714
    9CHL1   C21  644   0.303   2.610   9.132 -0.5120  0.0110  0.7112
    9CHL1  H21A  645   0.246   2.616   9.037  1.5023 -1.3908 -0.6852
    9CHL1  H21B  646   0.250   2.674   9.205  1.1401  1.5876  0.6088
    9CHL1  H21C  647   0.296   2.503   9.163 -0.2267  0.3084  1.8242
    9CHL1   C22  648   0.496   2.648   8.976 -0.1025  0.0503 -0.5651
    9CHL1  H22A  649   0.426   2.709   8.914 -1.4262  1.2762  1.9605
    9CHL1  H22B  650   0.596   2.694   8.984  0.1727 -0.8879  2.4573
    9CHL1   C23  651   0.515   2.504   8.925  0.0838 -0.7519  0.6006
    9CHL1  H23A  652   0.576   2.447   8.998  2.9741 -0.2412 -1.2416
    9CHL1  H23B  653   0.415   2.457   8.921 -0.7371  0.9556  0.2863
    9CHL1   C24  654   0.576   2.503   8.774  0.2291 -0.7272 -0.0202
    9CHL1  H24A  655   0.565   2.397   8.740 -1.7303 -0.0361 -1.7602
    9CHL1  H24B  656   0.511   2.570   8.714 -0.4452 -1.7867 -0.4974
    9CHL1   C25  657   0.722   2.547   8.790 -0.1692 -0.1435 -0.0312
    9CHL1   H25  658   0.771   2.516   8.885 -1.6557 -0.0166  0.8113
    9CHL1   C26  659   0.811   2.471   8.687 -0.3373 -0.1311 -0.4671
    9CHL1  H26A  660   0.784   2.363   8.693  1.0568 -0.4736  0.2768
    9CHL1  H26B  661   0.805   2.502   8.581  1.1541 -1.3509 -0.9508
    9CHL1  H26C  662   0.916   2.489   8.720 -1.0235  3.3713  0.1891
    9CHL1   C27  663   0.760   2.696   8.771  0.3264  0.2424  0.3733
    9CHL1  H27A  664   0.701   2.767   8.833 -1.5816  0.0801 -1.1442
    9CHL1  H27B  665   0.866   2.707   8.802  0.7504 -1.2579 -0.4544
    9CHL1  H27C  666   0.749   2.731   8.666  0.9074  0.4961  0.3949
   10CHL1    C3  667   6.636   6.613  10.018 -0.1929 -0.5200 -0.0754
   10CHL1    H3  668   6.536   6.653  10.044 -0.3083 -0.9103  0.0887
   10CHL1    O3  669   6.708   6.590  10.136  0.6114 -0.2022 -0.3500
   10CHL1   H3'  670   6.642   6.557  10.197  0.2833 -1.3352 -1.2822
   10CHL1    C4  671   6.625   6.479   9.943 -0.3321  0.6867  0.0551
   10CHL1   H4A  672   6.728   6.441   9.922 -0.8355  0.4793 -2.3910
   10CHL1   H4B  673   6.576   6.409  10.014  2.8050 -1.6557  0.1459
   10CHL1    C5  674   6.564   6.484   9.802 -0.4509  0.5999  0.4103
   10CHL1    C6  675   6.465   6.407   9.768 -0.3571  0.3664  0.3595
   10CHL1    H6  676   6.424   6.327   9.830 -0.6365  0.8662  0.8284
   10CHL1    C7  677   6.397   6.424   9.635  0.0323  0.9999  0.0777
   10CHL1   H7A  678   6.369   6.322   9.602  0.7488  0.5275  0.8967
   10CHL1   H7B  679   6.302   6.482   9.641 -0.3275  1.1657 -4.2749
   10CHL1    C8  680   6.483   6.491   9.529 -0.8109  0.0990  0.1344
   10CHL1    H8  681   6.560   6.418   9.498  1.9140  1.1229  3.8056
   10CHL1   C14  682   6.390   6.535   9.411  0.2177 -0.0202  0.0092
   10CHL1   H14  683   6.335   6.625   9.447  0.0393  0.5507 -1.6227
   10CHL1   C15  684   6.294   6.431   9.363  0.1176 -0.6506  0.3100
   10CHL1  H15A  685   6.349   6.335   9.355  2.4463  0.4289  2.0718
   10CHL1  H15B  686   6.202   6.416   9.422 -0.5507 -0.8706 -0.7743
   10CHL1   C16  687   6.257   6.491   9.227 -0.3145 -0.0934  0.0582
   10CHL1  H16A  688   6.258   6.408   9.154 -3.3106 -0.1865 -0.0273
   10CHL1  H16B  689   6.155   6.536   9.220 -0.1698 -0.0523 -3.0175
   10CHL1   C17  690   6.355   6.600   9.187  0.0418  0.5214  0.0085
   10CHL1   H17  691   6.305   6.694   9.218  1.4302  0.7518  1.6710
   10CHL1   C13  692   6.470   6.579   9.285 -0.7460  0.8921 -0.1899
   10CHL1   C18  693   6.563   6.470   9.237  0.0800 -0.3036  0.0631
   10CHL1  H18A  694   6.626   6.505   9.153 -0.3669 -0.0656 -0.1806
   10CHL1  H18B  695   6.636   6.439   9.315  0.7442  1.6322  0.2605
   10CHL1  H18C  696   6.516   6.375   9.203  1.0417 -1.0360  0.7226
   10CHL1   C12  697   6.555   6.700   9.333 -1.0700 -0.6267  0.0263
   10CHL1  H12A  698   6.622   6.748   9.258 -1.8863  0.3150 -0.1170
   10CHL1  H12B  699   6.482   6.780   9.358 -0.3623 -1.1952  5.1152
   10CHL1   C11  700   6.638   6.680   9.468  0.5713  0.5690  0.0391
   10CHL1  H11A  701   6.715   6.607   9.434 -0.1402 -0.2045  0.0749
   10CHL1  H11B  702   6.681   6.777   9.500  0.6867  0.5964 -0.1928
   10CHL1    C9  703   6.553   6.618   9.580  0.1253 -0.4423 -0.2015
   10CHL1    H9  704   6.470   6.687   9.605  0.7933  0.7089 -1.0710
   10CHL1   C10  705   6.627   6.597   9.714  0.4817  0.4806 -0.1044
   10CHL1   C19  706   6.764   6.541   9.681  0.1869  0.4146  0.6048
   10CHL1  H19A  707   6.834   6.516   9.764 -1.8331 -2.7631  1.5557
   10CHL1  H19B  708   6.756   6.448   9.621 -0.2595 -0.4268  1.9272
   10CHL1  H19C  709   6.826   6.610   9.619  0.5887  0.0930  0.6389
   10CHL1    C1  710   6.640   6.727   9.799  0.8840 -0.4110 -0.4410
   10CHL1   H1A  711   6.681   6.814   9.744 -1.1218 -0.7985 -2.7163
   10CHL1   H1B  712   6.533   6.750   9.816  0.6073 -1.4364 -0.6931
   10CHL1    C2  713   6.709   6.711   9.935 -0.5638 -0.4195 -0.0422
   10CHL1   H2A  714   6.729   6.807   9.988  2.9310 -1.1452  0.1905
   10CHL1   H2B  715   6.807   6.667   9.909 -0.9315 -1.5228  0.4025
   10CHL1   C20  716   6.382   6.613   9.033  0.7370  0.1278 -0.7425
   10CHL1   H20  717   6.421   6.515   8.996  1.1690  0.2124 -0.5000
   10CHL1   C21  718   6.495   6.715   8.996  1.0091 -0.1511  0.6866
   10CHL1  H21A  719   6.500   6.720   8.885  0.4436  1.6792  0.6983
   10CHL1  H21B  720   6.591   6.675   9.034  1.3635 -2.9105 -2.6098
   10CHL1  H21C  721   6.477   6.813   9.044 -2.3057 -0.7203  0.8694
   10CHL1   C22  722   6.252   6.649   8.958  0.0569  0.8682 -0.0051
   10CHL1  H22A  723   6.174   6.579   8.995  1.1666 -0.7659 -0.6834
   10CHL1  H22B  724   6.222   6.753   8.986 -1.2685 -0.0338  2.2004
   10CHL1   C23  725   6.246   6.644   8.802 -0.2556 -0.4655 -0.0821
   10CHL1  H23A  726   6.305   6.729   8.762 -0.6443 -0.7795 -1.3874
   10CHL1  H23B  727   6.290   6.550   8.762  0.6806  0.0026 -0.1561
   10CHL1   C24  728   6.104   6.650   8.746 -0.4190  0.5973  0.0363
   10CHL1  H24A  729   6.060   6.555   8.782 -0.3915  0.4017 -0.4319
   10CHL1  H24B  730   6.056   6.744   8.782 -2.2574  1.1511 -3.4114
   10CHL1   C25  731   6.104   6.646   8.591 -0.1236  1.1699 -0.8749
   10CHL1   H25  732   6.186   6.584   8.552 -0.8459 -1.1681  1.0945
   10CHL1   C26  733   5.976   6.566   8.544  0.2082  0.5699 -0.5523
   10CHL1  H26A  734   5.966   6.469   8.597 -0.2845  0.0304 -1.5833
   10CHL1  H26B  735   5.878   6.614   8.564 -1.3330 -1.3761 -2.8546
   10CHL1  H26C  736   5.975   6.545   8.435  1.9229  0.8810 -0.6555
   10CHL1   C27  737   6.106   6.783   8.524  0.0968  0.2918 -0.0747
   10CHL1  H27A  738   6.020   6.844   8.557  1.1032  0.7328  1.8939
   10CHL1  H27B  739   6.194   6.840   8.561 -1.3427  0.7015  2.9538
   10CHL1  H27C  740   6.096   6.757   8.416 -2.7744 -0.4089  0.2904
   11CHL1    C3  741   1.192   1.712  10.074 -0.0374  0.0962 -0.4253
   11CHL1    H3  742   1.193   1.603  10.093 -0.9972  0.1151 -0.2254
   11CHL1    O3  743   1.221   1.771  10.199 -0.0632 -0.1486  0.3721
   11CHL1   H3'  744   1.138   1.759  10.246  0.5104 -1.1467  1.1705
   11CHL1    C4  745   1.301   1.747   9.970 -0.1890 -0.0995  0.4953
   11CHL1   H4A  746   1.325   1.855   9.973 -2.5687  0.5205 -0.6181
   11CHL1   H4B  747   1.393   1.698  10.008  0.4128 -0.0318 -0.8185
   11CHL1    C5  748   1.264   1.698   9.826 -0.5723  0.1737 -0.6087
   11CHL1    C6  749   1.349   1.618   9.760 -0.3939  0.1059  0.1393
   11CHL1    H6  750   1.446   1.581   9.797  0.4843  1.5274 -0.6381
   11CHL1    C7  751   1.328   1.582   9.616  0.5319 -0.2206 -0.3938
   11CHL1   H7A  752   1.414   1.602   9.549  0.6717 -1.7084 -0.6961
   11CHL1   H7B  753   1.319   1.472   9.601 -0.5768 -0.0728 -0.9745
   11CHL1    C8  754   1.213   1.663   9.548 -0.7872  1.2981 -0.0059
   11CHL1    H8  755   1.252   1.765   9.529  1.6117  0.1455 -1.7477
   11CHL1   C14  756   1.188   1.612   9.409 -0.0505 -0.1488  0.1176
   11CHL1   H14  757   1.156   1.507   9.423 -0.9083 -0.0056 -0.6531
   11CHL1   C15  758   1.309   1.608   9.319  0.2223  0.0672  0.1030
   11CHL1  H15A  759   1.365   1.703   9.327  0.4908 -0.1837  1.3345
   11CHL1  H15B  760   1.383   1.526   9.328 -0.7662 -0.9863 -0.9834
   11CHL1   C16  761   1.245   1.596   9.175 -0.4073  0.1590 -0.2303
   11CHL1  H16A  762   1.275   1.686   9.116 -0.7235 -0.2126 -0.9840
   11CHL1  H16B  763   1.281   1.506   9.120  0.8347 -0.0533  0.8972
   11CHL1   C17  764   1.088   1.615   9.195  0.1064 -0.5519 -0.1639
   11CHL1   H17  765   1.044   1.517   9.223  2.3628 -1.9069 -1.0539
   11CHL1   C13  766   1.073   1.692   9.328 -0.4257 -0.5766  0.3152
   11CHL1   C18  767   1.109   1.842   9.302 -0.7370  0.0741 -0.4005
   11CHL1  H18A  768   1.164   1.856   9.207  1.0129  2.7281  0.8857
   11CHL1  H18B  769   1.017   1.901   9.285  0.5034  1.5971 -2.2904
   11CHL1  H18C  770   1.167   1.883   9.388  1.3939  0.4905 -1.9598
   11CHL1   C12  771   0.943   1.683   9.417  0.0883 -0.4763 -0.5606
   11CHL1  H12A  772   0.864   1.749   9.376  0.2100  1.0881  1.5159
   11CHL1  H12B  773   0.917   1.575   9.421 -2.3832  0.0900  0.3483
   11CHL1   C11  774   0.975   1.741   9.559  0.5001 -0.1321  0.2293
   11CHL1  H11A  775   0.996   1.849   9.546  0.9665 -0.1880  0.4936
   11CHL1  H11B  776   0.890   1.736   9.631  1.2812 -0.0514  1.1838
   11CHL1    C9  777   1.092   1.675   9.635  0.2787  0.4152  0.0501
   11CHL1    H9  778   1.065   1.570   9.656  0.4819  0.9278  3.4319
   11CHL1   C10  779   1.126   1.739   9.777  0.0873 -0.3123 -0.3917
   11CHL1   C19  780   1.125   1.894   9.759  0.3021  0.5156 -0.6459
   11CHL1  H19A  781   1.163   1.949   9.848  0.8377 -0.4300 -0.2744
   11CHL1  H19B  782   1.195   1.925   9.679  1.9785  1.5354  1.1316
   11CHL1  H19C  783   1.026   1.937   9.734 -0.5121 -1.2130 -0.5692
   11CHL1    C1  784   1.022   1.695   9.877  0.2898 -0.1923 -0.1355
   11CHL1   H1A  785   0.920   1.717   9.840  0.3412 -0.8542 -0.6835
   11CHL1   H1B  786   1.039   1.586   9.888 -0.1955 -0.0515  2.8645
   11CHL1    C2  787   1.047   1.753  10.020  0.0658  0.0713 -0.0079
   11CHL1   H2A  788   0.962   1.721  10.084  1.7117 -0.4617  2.0548
   11CHL1   H2B  789   1.046   1.864  10.025  1.6702  0.1319 -0.2909
   11CHL1   C20  790   1.004   1.664   9.074 -0.3188  0.0942  0.0817
   11CHL1   H20  791   1.000   1.775   9.079  0.4293  0.4239 -3.6678
   11CHL1   C21  792   0.856   1.615   9.094  1.2558  0.2794  0.0280
   11CHL1  H21A  793   0.840   1.507   9.075 -3.4394  0.4062  1.8067
   11CHL1  H21B  794   0.789   1.663   9.019  1.1683  0.4173  0.1918
   11CHL1  H21C  795   0.815   1.622   9.198  0.3480  0.7374 -0.3459
   11CHL1   C22  796   1.048   1.624   8.928 -0.2844  0.4939 -0.1233
   11CHL1  H22A  797   0.971   1.666   8.859 -0.3174 -0.4160 -0.6598
   11CHL1  H22B  798   1.152   1.654   8.903  0.0573 -0.7624 -0.2618
   11CHL1   C23  799   1.039   1.473   8.885  0.1501  0.0980  0.3865
   11CHL1  H23A  800   1.073   1.408   8.968  0.3361 -0.4505 -0.1048
   11CHL1  H23B  801   0.931   1.456   8.861 -0.3245  3.3660 -0.2648
   11CHL1   C24  802   1.130   1.452   8.763  0.2680  0.2630  0.5952
   11CHL1  H24A  803   1.124   1.537   8.691 -0.8596 -0.5910 -0.3579
   11CHL1  H24B  804   1.237   1.435   8.789  0.0529 -1.9428  0.2335
   11CHL1   C25  805   1.092   1.326   8.679  0.5372 -0.0482 -0.2430
   11CHL1   H25  806   0.983   1.331   8.658  0.3761  0.9309  0.7093
   11CHL1   C26  807   1.155   1.311   8.538 -0.2264 -0.4424 -0.2155
   11CHL1  H26A  808   1.091   1.242   8.480 -0.5890  0.2565 -0.6441
   11CHL1  H26B  809   1.162   1.402   8.475  3.8701 -0.2498  0.2487
   11CHL1  H26C  810   1.261   1.277   8.545  0.2306  0.9730  0.1648
   11CHL1   C27  811   1.131   1.199   8.758 -0.1069 -0.4062 -0.0072
   11CHL1  H27A  812   1.099   1.106   8.706 -0.7108  0.2999 -0.9394
   11CHL1  H27B  813   1.241   1.189   8.766 -0.2788 -1.8183  1.0294
   11CHL1  H27C  814   1.087   1.189   8.860  2.7914 -1.9434  1.1998
   12CHL1    C3  815   4.778   5.458  10.261  0.3882  0.2003  0.4200
   12CHL1    H3  816   4.864   5.524  10.240 -1.0747  1.5161 -1.9149
   12CHL1    O3  817   4.744   5.507  10.389 -0.5996  0.1121  0.7272
   12CHL1   H3'  818   4.655   5.480  10.412  0.3010 -0.3499  4.0624
   12CHL1    C4  819   4.669   5.492  10.159  0.7265 -0.0713  0.6898
   12CHL1   H4A  820   4.573   5.450  10.196  0.4059 -0.7912 -0.9036
   12CHL1   H4B  821   4.658   5.602  10.153  1.0107 -0.1347 -3.2643
   12CHL1    C5  822   4.693   5.436  10.019 -0.0375  0.0633  0.1770
   12CHL1    C6  823   4.682   5.516   9.914 -0.6812  0.3157 -0.8739
   12CHL1    H6  824   4.660   5.623   9.926 -1.5856 -0.0343  0.8498
   12CHL1    C7  825   4.692   5.453   9.776  0.0108  0.1041 -0.6240
   12CHL1   H7A  826   4.611   5.491   9.710  0.9683 -0.0346 -1.9293
   12CHL1   H7B  827   4.776   5.499   9.719  0.6921 -1.4581 -0.9512
   12CHL1    C8  828   4.690   5.298   9.756  0.1143  0.4991 -0.2281
   12CHL1    H8  829   4.582   5.271   9.762  0.2369 -0.1354 -0.7782
   12CHL1   C14  830   4.751   5.251   9.625  0.2043  0.7176  0.2613
   12CHL1   H14  831   4.859   5.276   9.629  0.5853 -0.8335  0.3881
   12CHL1   C15  832   4.691   5.310   9.501 -0.5082 -0.5700  0.0818
   12CHL1  H15A  833   4.581   5.317   9.519 -0.1412  1.3622  1.8963
   12CHL1  H15B  834   4.730   5.409   9.472 -0.3075 -0.2711  1.3223
   12CHL1   C16  835   4.728   5.219   9.385 -0.5424  0.2547 -0.4216
   12CHL1  H16A  836   4.633   5.207   9.329 -0.6668 -0.6226 -0.0470
   12CHL1  H16B  837   4.813   5.243   9.317 -1.4967  0.1825 -1.6740
   12CHL1   C17  838   4.779   5.082   9.455  0.5156  0.5365  0.0702
   12CHL1   H17  839   4.890   5.086   9.463  0.4367  2.9943  0.9888
   12CHL1   C13  840   4.734   5.099   9.603 -0.3515  0.3700 -0.6366
   12CHL1   C18  841   4.594   5.040   9.617 -0.5688  0.1372  0.3188
   12CHL1  H18A  842   4.549   5.056   9.717 -1.2700  1.0646 -0.1290
   12CHL1  H18B  843   4.523   5.077   9.539 -0.9050  0.7612  0.9107
   12CHL1  H18C  844   4.600   4.929   9.609 -3.8060 -0.0579 -1.5465
   12CHL1   C12  845   4.829   5.041   9.715  0.2776  0.1915 -0.5238
   12CHL1  H12A  846   4.840   4.930   9.706  1.3043 -0.0722  2.7680
   12CHL1  H12B  847   4.929   5.085   9.696  1.3426 -1.9341 -0.1295
   12CHL1   C11  848   4.783   5.079   9.857  0.6962 -0.5494 -0.8438
   12CHL1  H11A  849   4.689   5.026   9.883  0.2397 -0.0182 -1.4209
   12CHL1  H11B  850   4.866   5.041   9.922 -0.1872 -0.2021  0.5297
   12CHL1    C9  851   4.773   5.233   9.872 -0.4370 -0.6342 -0.5322
   12CHL1    H9  852   4.873   5.281   9.860  0.5312 -2.1101  1.1653
   12CHL1   C10  853   4.730   5.283  10.018  0.3697 -0.8953  0.3496
   12CHL1   C19  854   4.600   5.200  10.052  0.0923  0.5965 -0.2709
   12CHL1  H19A  855   4.526   5.195   9.970 -0.9508 -1.0970  0.7084
   12CHL1  H19B  856   4.613   5.091  10.071 -1.0814  0.3357 -0.8783
   12CHL1  H19C  857   4.543   5.236  10.140  1.3639  0.0981  0.7960
   12CHL1    C1  858   4.839   5.253  10.129  0.1197  0.1877 -0.0134
   12CHL1   H1A  859   4.845   5.142  10.135 -1.9592 -0.1411 -2.3520
   12CHL1   H1B  860   4.934   5.302  10.100  0.1736  1.5750  2.2579
   12CHL1    C2  861   4.808   5.306  10.263  0.5419 -0.3797  0.1392
   12CHL1   H2A  862   4.893   5.284  10.331  0.3803 -0.4863  0.3080
   12CHL1   H2B  863   4.717   5.261  10.308  0.9796 -0.7931  0.6273
   12CHL1   C20  864   4.748   4.946   9.375  0.6669  0.3541 -0.1269
   12CHL1   H20  865   4.640   4.929   9.359  0.8034 -0.5706 -0.1336
   12CHL1   C21  866   4.792   4.820   9.458  0.5710  0.0186 -0.5384
   12CHL1  H21A  867   4.902   4.819   9.470  0.3699 -1.6668  1.6324
   12CHL1  H21B  868   4.769   4.723   9.410  0.0135  0.1868 -0.6211
   12CHL1  H21C  869   4.740   4.818   9.556 -1.0667 -0.6277 -1.3816
   12CHL1   C22  870   4.823   4.939   9.239 -0.5096 -0.7137 -0.6355
   12CHL1  H22A  871   4.810   5.035   9.185  1.3169 -0.4067 -0.5985
   12CHL1  H22B  872   4.933   4.929   9.252 -0.3218 -0.0103 -1.5547
   12CHL1   C23  873   4.780   4.838   9.139  0.2195  0.0722 -0.2270
   12CHL1  H23A  874   4.804   4.742   9.190 -3.0961 -0.9089 -0.2618
   12CHL1  H23B  875   4.669   4.834   9.133  0.1525  1.4759 -0.2717
   12CHL1   C24  876   4.830   4.863   9.000 -0.2343  0.0078 -0.1990
   12CHL1  H24A  877   4.812   4.966   8.964 -1.4652  0.5537  1.7749
   12CHL1  H24B  878   4.940   4.846   9.006 -0.4450 -0.9871  3.3545
   12CHL1   C25  879   4.794   4.752   8.901  0.9604 -0.2395 -0.0411
   12CHL1   H25  880   4.686   4.724   8.892  0.1124  0.9700  4.0971
   12CHL1   C26  881   4.844   4.802   8.766 -0.5417 -0.2419 -0.7904
   12CHL1  H26A  882   4.852   4.729   8.682  2.6166 -1.4626  0.4487
   12CHL1  H26B  883   4.777   4.881   8.724  0.0726  0.7893  0.1035
   12CHL1  H26C  884   4.942   4.847   8.792 -0.3479 -0.5513 -0.9772
   12CHL1   C27  885   4.863   4.618   8.933  0.3276  0.0168  0.3210
   12CHL1  H27A  886   4.820   4.573   9.025  0.9884 -0.4775  0.4016
   12CHL1  H27B  887   4.857   4.554   8.842 -1.4500  0.2579  0.2261
   12CHL1  H27C  888   4.970   4.644   8.948  0.9756 -0.5832 -2.7017
   13CHL1    C3  889   4.182   5.881   9.869 -0.1933  0.0555 -0.3625
   13CHL1    H3  890   4.219   5.780   9.894 -1.1613 -0.6028 -1.4839
   13CHL1    O3  891   4.137   5.949   9.987  0.5392 -0.5430  0.0351
   13CHL1   H3'  892   4.121   6.042   9.968 -0.2582 -0.6864 -0.0446
   13CHL1    C4  893   4.286   5.964   9.792 -0.0343 -0.0633  0.0674
   13CHL1   H4A  894   4.237   6.059   9.762 -1.2654 -0.4298  0.8527
   13CHL1   H4B  895   4.370   5.995   9.858  1.0597  0.3675 -1.4580
   13CHL1    C5  896   4.321   5.895   9.656 -0.9806 -0.1578  0.4766
   13CHL1    C6  897   4.456   5.879   9.625 -0.8579 -0.6959 -0.7221
   13CHL1    H6  898   4.532   5.914   9.696 -0.5732  1.1613 -1.8586
   13CHL1    C7  899   4.497   5.813   9.500  0.7413  0.7686 -0.0911
   13CHL1   H7A  900   4.577   5.871   9.450  1.1669  1.1691  1.0044
   13CHL1   H7B  901   4.542   5.713   9.518  0.5029  0.9730  1.8933
   13CHL1    C8  902   4.383   5.796   9.388 -0.3949 -0.3591  0.3158
   13CHL1    H8  903   4.348   5.890   9.342 -0.9044  0.4866  2.3498
   13CHL1   C14  904   4.428   5.694   9.292 -0.0996  0.3298 -0.1674
   13CHL1   H14  905   4.435   5.601   9.353 -0.0666 -0.7341 -1.7046
   13CHL1   C15  906   4.558   5.702   9.230  0.0027 -0.3837  0.3840
   13CHL1  H15A  907   4.568   5.803   9.185  0.3928  0.4628  2.2939
   13CHL1  H15B  908   4.649   5.690   9.292  2.0242  0.2941 -2.2711
   13CHL1   C16  909   4.555   5.593   9.116  0.2820  0.3156 -0.3430
   13CHL1  H16A  910   4.591   5.639   9.022 -0.9683 -0.9541 -1.4889
   13CHL1  H16B  911   4.632   5.517   9.145  0.3851 -0.1195 -1.6950
   13CHL1   C17  912   4.412   5.537   9.110  0.6553 -0.9376 -0.1898
   13CHL1   H17  913   4.418   5.447   9.175 -0.6031  0.4415  1.9529
   13CHL1   C13  914   4.324   5.645   9.185  0.4313 -0.1640 -0.4795
   13CHL1   C18  915   4.289   5.764   9.081  0.1750  0.3137 -0.5373
   13CHL1  H18A  916   4.368   5.804   9.014 -1.6917 -1.2578 -3.9416
   13CHL1  H18B  917   4.208   5.728   9.013 -0.4830 -2.4308  1.5211
   13CHL1  H18C  918   4.242   5.847   9.137 -1.2836 -0.7885 -0.0723
   13CHL1   C12  919   4.201   5.592   9.267 -0.0389  0.4906 -0.0428
   13CHL1  H12A  920   4.116   5.570   9.199  0.1339 -1.8290  0.4071
   13CHL1  H12B  921   4.227   5.509   9.336  1.1359  2.0199  1.4436
   13CHL1   C11  922   4.144   5.700   9.361 -0.4073  0.0328 -0.9433
   13CHL1  H11A  923   4.095   5.788   9.315 -1.4953 -0.6615 -1.1405
   13CHL1  H11B  924   4.066   5.641   9.413  0.1166  0.1220 -0.0412
   13CHL1    C9  925   4.254   5.746   9.458 -0.0738 -0.7646 -0.1471
   13CHL1    H9  926   4.289   5.650   9.502  0.2767 -1.1565 -1.2483
   13CHL1   C10  927   4.208   5.846   9.569  1.0086  0.9128  0.5445
   13CHL1   C19  928   4.130   5.969   9.513 -0.2331  0.0191  0.0771
   13CHL1  H19A  929   4.098   6.036   9.595 -0.3229  1.2458 -0.9216
   13CHL1  H19B  930   4.179   6.034   9.436 -3.2620  1.4336 -0.8103
   13CHL1  H19C  931   4.038   5.948   9.455  0.3349 -0.4078 -0.6899
   13CHL1    C1  932   4.102   5.776   9.651  0.6863 -1.1685 -0.0843
   13CHL1   H1A  933   4.019   5.760   9.579  1.5033  2.5395 -2.1248
   13CHL1   H1B  934   4.137   5.679   9.693 -2.9794 -1.4385  2.8720
   13CHL1    C2  935   4.056   5.853   9.779 -0.1887 -0.2759  0.0153
   13CHL1   H2A  936   3.982   5.795   9.838 -2.1388 -0.3948 -2.4116
   13CHL1   H2B  937   4.001   5.947   9.760 -0.8522 -0.3533  1.4352
   13CHL1   C20  938   4.375   5.491   8.967  0.2854  0.3882 -0.3110
   13CHL1   H20  939   4.384   5.581   8.903  1.3463 -1.0547 -2.2840
   13CHL1   C21  940   4.226   5.437   8.962  0.1335 -0.2213 -0.2562
   13CHL1  H21A  941   4.157   5.524   8.974 -0.0645 -0.1953 -1.4864
   13CHL1  H21B  942   4.204   5.352   9.030 -1.8083  0.9430  0.6716
   13CHL1  H21C  943   4.210   5.396   8.860  2.1494  2.2795 -1.7065
   13CHL1   C22  944   4.476   5.388   8.899 -0.0282  0.5040 -0.1785
   13CHL1  H22A  945   4.567   5.452   8.900 -0.2816  0.8791 -0.5258
   13CHL1  H22B  946   4.493   5.302   8.967 -0.5564  2.0809  2.0632
   13CHL1   C23  947   4.441   5.343   8.757  0.6994 -0.7017 -0.6533
   13CHL1  H23A  948   4.366   5.262   8.768 -0.8104  0.6752 -0.3751
   13CHL1  H23B  949   4.381   5.428   8.719  3.1413  1.9598  1.0371
   13CHL1   C24  950   4.564   5.290   8.678 -0.7657  0.1596  0.1901
   13CHL1  H24A  951   4.651   5.347   8.715 -2.2584  1.9893  1.0642
   13CHL1  H24B  952   4.585   5.183   8.702  0.2984  0.9048  2.9692
   13CHL1   C25  953   4.553   5.318   8.525  1.0287 -0.3422 -0.1364
   13CHL1   H25  954   4.523   5.425   8.521  3.0368  0.2892  0.6558
   13CHL1   C26  955   4.694   5.302   8.454  0.3720  0.3113 -0.4649
   13CHL1  H26A  956   4.761   5.382   8.491 -1.0662  2.9805 -3.2200
   13CHL1  H26B  957   4.735   5.200   8.471 -0.3392  0.2793  1.3450
   13CHL1  H26C  958   4.672   5.315   8.346 -0.0547 -1.6448 -0.6583
   13CHL1   C27  959   4.441   5.241   8.451  0.6284 -1.0575  0.2095
   13CHL1  H27A  960   4.339   5.250   8.494  0.4574 -0.9615 -0.2088
   13CHL1  H27B  961   4.430   5.270   8.344  1.4386 -2.0200 -0.1592
   13CHL1  H27C  962   4.455   5.131   8.460 -0.7530 -1.4944 -2.1923
   14CHL1    C3  963   3.495   2.729  10.455 -0.0890  0.0452  0.2222
   14CHL1    H3  964   3.530   2.833  10.470  1.5196 -0.5763  0.9080
   14CHL1    O3  965   3.444   2.676  10.579 -0.2234 -0.9540 -0.3217
   14CHL1   H3'  966   3.399   2.753  10.615 -1.1083 -1.7117  0.2452
   14CHL1    C4  967   3.373   2.727  10.353  0.3462  0.2018 -0.3112
   14CHL1   H4A  968   3.335   2.622  10.358  2.2458 -0.5462 -0.8238
   14CHL1   H4B  969   3.301   2.793  10.405  0.3945  0.9535 -1.1769
   14CHL1    C5  970   3.412   2.778  10.220  0.1341 -0.7006 -0.3240
   14CHL1    C6  971   3.351   2.880  10.159 -0.8432 -0.2969 -0.5841
   14CHL1    H6  972   3.265   2.929  10.207 -1.0196 -0.2898 -0.9042
   14CHL1    C7  973   3.381   2.932  10.028  0.2517  0.8501  0.4231
   14CHL1   H7A  974   3.283   2.956   9.982  0.2407  1.6630  0.8446
   14CHL1   H7B  975   3.435   3.028  10.047  0.9219  0.5368  0.1496
   14CHL1    C8  976   3.471   2.838   9.942  0.4369  0.6544 -1.0435
   14CHL1    H8  977   3.404   2.754   9.911  1.0057 -0.5712  0.8276
   14CHL1   C14  978   3.528   2.902   9.819 -0.3998 -0.4799 -0.3282
   14CHL1   H14  979   3.589   2.991   9.845  1.3689 -1.2793 -1.5259
   14CHL1   C15  980   3.421   2.942   9.714  0.0419 -0.6341  1.0150
   14CHL1  H15A  981   3.349   2.859   9.697 -1.5105  0.4179  2.2772
   14CHL1  H15B  982   3.365   3.032   9.745 -1.2873 -0.0297 -2.6028
   14CHL1   C16  983   3.511   2.980   9.597 -0.6174 -0.2764 -0.0452
   14CHL1  H16A  984   3.467   2.934   9.506  2.7705 -0.8129 -1.5672
   14CHL1  H16B  985   3.526   3.090   9.596 -3.1409  0.1431  0.7155
   14CHL1   C17  986   3.649   2.914   9.621  0.6299 -0.0157  0.4825
   14CHL1   H17  987   3.713   2.994   9.664  1.4582 -0.9158  0.9642
   14CHL1   C13  988   3.627   2.818   9.740  0.0900 -0.2221  0.4208
   14CHL1   C18  989   3.564   2.688   9.691 -0.3910 -1.0349 -0.8105
   14CHL1  H18A  990   3.640   2.633   9.631  1.2177  1.4189 -1.1501
   14CHL1  H18B  991   3.534   2.622   9.775  0.1177  0.5471  0.6851
   14CHL1  H18C  992   3.477   2.706   9.625  0.3261 -1.1186 -1.7964
   14CHL1   C12  993   3.746   2.797   9.835 -0.1563 -0.5567 -0.0345
   14CHL1  H12A  994   3.831   2.749   9.781  0.0758 -3.4252  2.6191
   14CHL1  H12B  995   3.778   2.892   9.883 -1.7659 -0.3721  0.7675
   14CHL1   C11  996   3.704   2.713   9.958 -0.1260 -0.4637 -0.1980
   14CHL1  H11A  997   3.680   2.607   9.931 -0.3184 -0.7842  1.1897
   14CHL1  H11B  998   3.783   2.705  10.035 -0.0050 -2.1884 -0.4477
   14CHL1    C9  999   3.589   2.783  10.041 -0.1204 -0.0779  0.3613
   14CHL1    H9 1000   3.637   2.875  10.082 -1.2935  0.1218  1.3405
   14CHL1   C10 1001   3.527   2.708  10.158 -0.8953 -0.4808 -0.4462
   14CHL1   C19 1002   3.468   2.565  10.116 -0.2582 -0.4534  0.4060
   14CHL1  H19A 1003   3.413   2.519  10.200 -0.2410  0.2180  0.7949
   14CHL1  H19B 1004   3.400   2.575  10.029 -1.2281 -0.7361  1.1173
   14CHL1  H19C 1005   3.554   2.497  10.097 -0.1728 -0.7848  1.8611
   14CHL1    C1 1006   3.641   2.683  10.263  0.0666 -0.1581 -0.6454
   14CHL1   H1A 1007   3.709   2.607  10.219 -0.3934 -1.5706  0.9795
   14CHL1   H1B 1008   3.692   2.780  10.279 -1.8271  0.9310 -0.9546
   14CHL1    C2 1009   3.598   2.636  10.402  0.0012 -0.0791  0.3894
   14CHL1   H2A 1010   3.690   2.628  10.463 -0.3693 -0.3250  0.9218
   14CHL1   H2B 1011   3.562   2.533  10.385  1.6679 -0.5115 -0.7589
   14CHL1   C20 1012   3.726   2.868   9.495 -0.3361 -0.4509 -0.0795
   14CHL1   H20 1013   3.811   2.809   9.536 -0.5099  0.7368  2.1438
   14CHL1   C21 1014   3.797   2.991   9.437  0.1628 -0.2131 -0.2843
   14CHL1  H21A 1015   3.860   2.944   9.358  0.5004 -0.9606  0.4148
   14CHL1  H21B 1016   3.855   3.050   9.512 -2.1017  0.9216  0.6562
   14CHL1  H21C 1017   3.725   3.059   9.387  0.3252 -0.2196 -0.5269
   14CHL1   C22 1018   3.646   2.778   9.395  0.1828  0.4563 -0.4810
   14CHL1  H22A 1019   3.572   2.711   9.444 -0.0718  2.0953  1.5130
   14CHL1  H22B 1020   3.600   2.843   9.317  2.0510  0.3492 -1.7450
   14CHL1   C23 1021   3.726   2.677   9.320  0.7957 -0.6543 -0.2302
   14CHL1  H23A 1022   3.820   2.725   9.284 -0.4009  3.2943  1.3842
   14CHL1  H23B 1023   3.759   2.599   9.392  0.1813  0.3450  1.1546
   14CHL1   C24 1024   3.647   2.621   9.205 -0.3758 -0.0637  0.7210
   14CHL1  H24A 1025   3.582   2.547   9.256 -2.3605  0.8699 -0.3257
   14CHL1  H24B 1026   3.594   2.700   9.147  1.1738  0.5190  0.0447
   14CHL1   C25 1027   3.727   2.530   9.098  0.4787 -0.0747  0.1833
   14CHL1   H25 1028   3.799   2.470   9.157 -0.2438 -1.3530 -0.2033
   14CHL1   C26 1029   3.625   2.437   9.022  0.7310  0.2906 -0.5244
   14CHL1  H26A 1030   3.577   2.501   8.945 -0.3748  1.2742  0.9053
   14CHL1  H26B 1031   3.680   2.359   8.966 -2.4819 -1.8451 -0.9842
   14CHL1  H26C 1032   3.548   2.385   9.083  1.9674  1.6472  2.3816
   14CHL1   C27 1033   3.808   2.616   9.006  0.0675  0.4554 -1.2090
   14CHL1  H27A 1034   3.736   2.650   8.928 -2.8825 -0.3054  1.0347
   14CHL1  H27B 1035   3.856   2.699   9.062 -1.6510  0.5406  0.2070
   14CHL1  H27C 1036   3.884   2.568   8.940  0.1169  1.2145 -1.7225
   15CHL1    C3 1037   3.097   1.624  10.010 -0.0124  0.1170  0.3524
   15CHL1    H3 1038   3.133   1.519  10.013 -0.6676 -0.0936  1.6858
   15CHL1    O3 1039   3.058   1.657  10.142  0.0727 -0.3013  0.2885
   15CHL1   H3' 1040   3.099   1.742  10.156 -1.7498  0.7717 -0.4955
   15CHL1    C4 1041   3.209   1.721   9.968 -0.3842  0.0724 -0.5386
   15CHL1   H4A 1042   3.179   1.828   9.971  0.9536  0.4643  1.0358
   15CHL1   H4B 1043   3.294   1.707  10.040  0.0960  0.3617 -1.0437
   15CHL1    C5 1044   3.249   1.688   9.824 -0.1862 -0.3925 -0.2769
   15CHL1    C6 1045   3.378   1.660   9.796  0.3269 -0.0376 -1.1071
   15CHL1    H6 1046   3.458   1.666   9.871 -0.3575 -1.2582 -0.2244
   15CHL1    C7 1047   3.427   1.622   9.657  0.0204  0.9378  0.0595
   15CHL1   H7A 1048   3.522   1.676   9.636 -0.2714  0.6849 -2.0632
   15CHL1   H7B 1049   3.451   1.514   9.647 -2.6098  0.3608 -0.7264
   15CHL1    C8 1050   3.320   1.645   9.552  0.0846 -0.1253 -0.2682
   15CHL1    H8 1051   3.316   1.756   9.541 -1.1467  0.3126  3.3719
   15CHL1   C14 1052   3.346   1.570   9.428 -0.0350  0.0685  0.5756
   15CHL1   H14 1053   3.323   1.462   9.441 -2.2768  0.4704  0.4257
   15CHL1   C15 1054   3.495   1.590   9.385  0.4070 -0.9996 -0.5315
   15CHL1  H15A 1055   3.515   1.697   9.406 -0.7480 -0.9249  0.2801
   15CHL1  H15B 1056   3.571   1.534   9.444 -0.0602  0.1629  1.2597
   15CHL1   C16 1057   3.490   1.564   9.236  0.7704  0.5888 -0.5751
   15CHL1  H16A 1058   3.531   1.661   9.198  2.2708 -0.0274 -0.6109
   15CHL1  H16B 1059   3.551   1.477   9.205 -2.1978 -1.7672 -0.1700
   15CHL1   C17 1060   3.337   1.542   9.185 -0.5094 -0.4624 -0.3031
   15CHL1   H17 1061   3.312   1.435   9.198 -0.6718 -0.5239 -1.0751
   15CHL1   C13 1062   3.261   1.611   9.303 -0.3508 -0.9517  0.1779
   15CHL1   C18 1063   3.259   1.767   9.275  0.4641  0.7896 -0.3967
   15CHL1  H18A 1064   3.228   1.819   9.368  1.1695 -1.7801  1.3626
   15CHL1  H18B 1065   3.362   1.806   9.259  1.6682  0.2728  4.5030
   15CHL1  H18C 1066   3.192   1.793   9.191 -2.0745 -0.4895  1.1136
   15CHL1   C12 1067   3.118   1.561   9.336 -0.5904  0.3967  0.3576
   15CHL1  H12A 1068   3.043   1.597   9.262 -0.0783  0.2183 -0.2525
   15CHL1  H12B 1069   3.114   1.452   9.353 -1.3097  0.6133  1.7449
   15CHL1   C11 1070   3.070   1.617   9.469  0.0438  0.2794 -0.3457
   15CHL1  H11A 1071   3.057   1.723   9.439 -1.4412  0.5459  1.1151
   15CHL1  H11B 1072   2.972   1.576   9.503 -0.3051  2.8697  2.1486
   15CHL1    C9 1073   3.174   1.608   9.595 -0.1909 -0.2580  0.3092
   15CHL1    H9 1074   3.177   1.499   9.617  1.2445  0.0086  1.6050
   15CHL1   C10 1075   3.132   1.680   9.728  0.3162  0.2247  0.7777
   15CHL1   C19 1076   3.074   1.824   9.693 -0.4405 -0.7119 -0.1895
   15CHL1  H19A 1077   3.049   1.889   9.779 -0.8775  2.7339 -2.7193
   15CHL1  H19B 1078   3.150   1.884   9.637 -2.1729  0.2289 -1.6222
   15CHL1  H19C 1079   2.980   1.822   9.634  1.1579  0.7716 -3.0054
   15CHL1    C1 1080   3.014   1.595   9.783  0.2754  0.4167  0.0045
   15CHL1   H1A 1081   2.920   1.600   9.725  0.3764  0.2477 -0.1740
   15CHL1   H1B 1082   3.044   1.488   9.785 -2.1719 -0.3622  3.2676
   15CHL1    C2 1083   2.969   1.633   9.921  0.0775  0.1608  0.4309
   15CHL1   H2A 1084   2.892   1.562   9.959  0.4088 -1.8201 -2.2839
   15CHL1   H2B 1085   2.927   1.735   9.910  0.2318  0.1855  0.0680
   15CHL1   C20 1086   3.305   1.579   9.041 -0.0401 -0.0219 -0.1424
   15CHL1   H20 1087   3.325   1.687   9.024 -1.7945  0.2685 -0.5514
   15CHL1   C21 1088   3.164   1.549   9.008  0.0718 -0.5109  0.5328
   15CHL1  H21A 1089   3.101   1.618   9.068  0.6896  0.8117 -0.3032
   15CHL1  H21B 1090   3.147   1.443   9.039  0.9612 -1.4154 -1.8711
   15CHL1  H21C 1091   3.147   1.556   8.899  1.7076  1.1378  0.3387
   15CHL1   C22 1092   3.399   1.506   8.939 -0.2530 -0.6304  0.0840
   15CHL1  H22A 1093   3.500   1.550   8.953 -0.0115 -1.1473 -0.0517
   15CHL1  H22B 1094   3.412   1.398   8.958  2.6076 -0.2134  1.0183
   15CHL1   C23 1095   3.379   1.544   8.789 -0.5725  0.4910  0.1733
   15CHL1  H23A 1096   3.285   1.507   8.743 -0.7802 -0.3896  1.2524
   15CHL1  H23B 1097   3.371   1.655   8.784  0.5610  0.5327 -2.6149
   15CHL1   C24 1098   3.489   1.506   8.698  0.0243  0.1459  0.4981
   15CHL1  H24A 1099   3.583   1.545   8.744  0.6712  0.8510 -1.3469
   15CHL1  H24B 1100   3.505   1.398   8.678 -1.0402 -0.1947  1.3517
   15CHL1   C25 1101   3.469   1.579   8.562 -0.6622  0.1445  0.5069
   15CHL1   H25 1102   3.417   1.676   8.577  0.9422  1.1004  0.1003
   15CHL1   C26 1103   3.603   1.621   8.497  0.1729 -0.1426 -0.1467
   15CHL1  H26A 1104   3.660   1.690   8.563  0.3568  1.0201 -1.4551
   15CHL1  H26B 1105   3.674   1.539   8.474  0.8552  0.9298 -2.0396
   15CHL1  H26C 1106   3.581   1.680   8.406  1.6544  1.2333  0.3489
   15CHL1   C27 1107   3.392   1.497   8.458  0.2461 -0.3210 -0.4852
   15CHL1  H27A 1108   3.400   1.544   8.358 -2.5327 -1.9643 -1.5904
   15CHL1  H27B 1109   3.439   1.396   8.462  0.3106 -0.2632  3.0297
   15CHL1  H27C 1110   3.284   1.487   8.481  0.2034  0.8584 -0.1246
   16CHL1    C3 1111   3.960   2.264  10.369  0.3381 -0.0771 -0.3011
   16CHL1    H3 1112   4.069   2.257  10.390  0.4793  0.3002 -0.8770
   16CHL1    O3 1113   3.888   2.250  10.492 -0.9693  0.3924 -0.0573
   16CHL1   H3' 1114   3.888   2.159  10.522 -0.1310  1.2532  2.8687
   16CHL1    C4 1115   3.922   2.405  10.312 -0.4002  0.7495  0.6840
   16CHL1   H4A 1116   3.813   2.423  10.303 -0.6472 -0.8770  0.2156
   16CHL1   H4B 1117   3.972   2.478  10.380  1.9292 -1.9524  2.0775
   16CHL1    C5 1118   3.984   2.416  10.168  0.3068  0.0254 -0.2150
   16CHL1    C6 1119   4.061   2.516  10.143 -0.0393  0.2946 -0.4421
   16CHL1    H6 1120   4.088   2.582  10.227  0.2692 -1.0864  0.5929
   16CHL1    C7 1121   4.110   2.541  10.002  0.3379 -0.7240  0.2760
   16CHL1   H7A 1122   4.106   2.652   9.990  1.1433 -0.8225 -1.2120
   16CHL1   H7B 1123   4.217   2.513  10.004  0.2706 -1.0098 -0.1179
   16CHL1    C8 1124   4.026   2.478   9.890  0.2393 -0.2140 -0.5978
   16CHL1    H8 1125   3.927   2.527   9.884  0.3455 -0.1964 -3.7257
   16CHL1   C14 1126   4.099   2.478   9.756  0.0093 -0.5355 -0.6763
   16CHL1   H14 1127   4.191   2.420   9.778  1.1171  1.1705 -0.6788
   16CHL1   C15 1128   4.153   2.611   9.699  0.1797  0.3013  0.2491
   16CHL1  H15A 1129   4.080   2.691   9.726  1.2313  1.5066 -0.3790
   16CHL1  H15B 1130   4.246   2.645   9.748  0.1985 -1.7984  1.7976
   16CHL1   C16 1131   4.170   2.589   9.547 -0.6105 -0.0683 -0.2333
   16CHL1  H16A 1132   4.106   2.667   9.502 -1.0925  0.1332  0.7637
   16CHL1  H16B 1133   4.278   2.599   9.521 -0.6344  0.9080  0.0042
   16CHL1   C17 1134   4.108   2.446   9.525 -0.8963  1.0076 -0.2511
   16CHL1   H17 1135   4.199   2.383   9.541 -0.5853  0.8315 -2.4301
   16CHL1   C13 1136   4.017   2.412   9.642 -0.2569  0.3192 -0.4627
   16CHL1   C18 1137   3.887   2.481   9.624  0.4456 -0.3309  0.0150
   16CHL1  H18A 1138   3.902   2.591   9.617  0.5307 -0.1697  2.2171
   16CHL1  H18B 1139   3.837   2.447   9.530  1.6588  0.6523 -1.0167
   16CHL1  H18C 1140   3.818   2.475   9.710 -0.9244 -0.4150 -1.0461
   16CHL1   C12 1141   3.998   2.261   9.675  0.4354  0.0197  0.0609
   16CHL1  H12A 1142   3.937   2.206   9.600 -1.1032 -0.7040  1.7656
   16CHL1  H12B 1143   4.096   2.208   9.671 -0.4917 -1.6754 -1.4376
   16CHL1   C11 1144   3.934   2.243   9.814  0.3422  0.1687  0.4493
   16CHL1  H11A 1145   3.829   2.273   9.798  1.0870  1.9870 -1.6153
   16CHL1  H11B 1146   3.931   2.136   9.842 -0.8621 -0.5761 -2.1773
   16CHL1    C9 1147   4.004   2.328   9.929  0.1968 -0.1043  0.2587
   16CHL1    H9 1148   4.106   2.289   9.947  0.1251 -1.2528 -1.5609
   16CHL1   C10 1149   3.935   2.311  10.069 -0.0762  1.0083  0.1418
   16CHL1   C19 1150   3.779   2.314  10.050 -0.4905 -0.4945  0.4178
   16CHL1  H19A 1151   3.738   2.228   9.994 -1.2756 -1.0072  1.7315
   16CHL1  H19B 1152   3.721   2.297  10.143 -1.4253  1.2411  0.2038
   16CHL1  H19C 1153   3.755   2.414  10.007 -0.2048 -0.6546 -0.1239
   16CHL1    C1 1154   3.976   2.172  10.132 -0.3661 -0.3349  0.7599
   16CHL1   H1A 1155   3.930   2.101  10.059  2.2696 -1.1322 -0.2420
   16CHL1   H1B 1156   4.085   2.156  10.148 -0.0831 -0.5668 -1.1179
   16CHL1    C2 1157   3.915   2.150  10.268  0.3111 -0.2636 -0.3291
   16CHL1   H2A 1158   3.942   2.057  10.322 -1.0415 -0.3853  0.1730
   16CHL1   H2B 1159   3.804   2.150  10.263  0.3113  0.8781 -0.7473
   16CHL1   C20 1160   4.064   2.421   9.375  0.3475 -0.3209 -0.4646
   16CHL1   H20 1161   3.964   2.468   9.362  0.0081 -1.3779 -1.9271
   16CHL1   C21 1162   4.056   2.263   9.363 -0.0244 -1.0535  0.5933
   16CHL1  H21A 1163   4.150   2.216   9.400  0.8287 -1.7206 -2.2157
   16CHL1  H21B 1164   4.036   2.228   9.260 -0.2500 -0.3582  0.3928
   16CHL1  H21C 1165   3.962   2.226   9.408  0.9799 -2.5373  1.5691
   16CHL1   C22 1166   4.166   2.482   9.269 -0.1026  0.1171 -0.8048
   16CHL1  H22A 1167   4.143   2.589   9.254  2.5366  0.8078 -0.5215
   16CHL1  H22B 1168   4.272   2.486   9.301 -0.4148  2.4435  0.1419
   16CHL1   C23 1169   4.173   2.406   9.129 -0.1979 -0.1690 -0.2041
   16CHL1  H23A 1170   4.184   2.297   9.150  1.9130 -0.5241 -2.6647
   16CHL1  H23B 1171   4.077   2.416   9.074 -0.1812 -1.8385 -0.5783
   16CHL1   C24 1172   4.292   2.468   9.044 -0.7132  0.6521 -0.0587
   16CHL1  H24A 1173   4.272   2.577   9.046 -1.2264  0.5561  1.5477
   16CHL1  H24B 1174   4.386   2.456   9.103 -1.0864 -1.6027  0.1557
   16CHL1   C25 1175   4.305   2.401   8.904  0.2949 -0.6859 -0.0582
   16CHL1   H25 1176   4.211   2.395   8.845  0.7629 -1.3282 -0.7510
   16CHL1   C26 1177   4.397   2.495   8.813 -0.0395 -0.1190 -0.4935
   16CHL1  H26A 1178   4.475   2.551   8.869  0.9122 -1.6225 -0.2582
   16CHL1  H26B 1179   4.456   2.437   8.739 -0.8403  2.3040 -3.2176
   16CHL1  H26C 1180   4.345   2.573   8.753  0.4026  0.0865 -0.6157
   16CHL1   C27 1181   4.362   2.263   8.917  0.9186  0.2585 -0.1321
   16CHL1  H27A 1182   4.463   2.264   8.964  0.5603 -0.0002  0.6694
   16CHL1  H27B 1183   4.299   2.196   8.980  1.4237 -1.3940 -1.3138
   16CHL1  H27C 1184   4.367   2.217   8.817 -1.7948 -1.8516  0.5787
   17CHL1    C3 1185   6.525   0.388  10.346 -0.3504  0.4075  0.2127
   17CHL1    H3 1186   6.576   0.486  10.336  0.9198 -0.1432  1.0397
   17CHL1    O3 1187   6.502   0.338  10.483 -0.1514  0.4695  0.0376
   17CHL1   H3' 1188   6.588   0.308  10.515 -0.5720 -2.7338 -1.4117
   17CHL1    C4 1189   6.386   0.402  10.277 -0.8512  0.1838 -0.3927
   17CHL1   H4A 1190   6.325   0.311  10.294  0.9775 -1.3070 -1.3030
   17CHL1   H4B 1191   6.330   0.483  10.326  0.3130  0.1296  1.0841
   17CHL1    C5 1192   6.407   0.437  10.131  0.5210 -0.1292  0.1644
   17CHL1    C6 1193   6.358   0.554  10.083  0.1832  0.4531 -0.2236
   17CHL1    H6 1194   6.309   0.625  10.151  0.8712  0.7403 -0.0211
   17CHL1    C7 1195   6.363   0.577   9.933 -0.3530 -0.0250 -0.3078
   17CHL1   H7A 1196   6.262   0.603   9.896 -1.3067 -2.1248  0.6568
   17CHL1   H7B 1197   6.437   0.651   9.895  0.4416 -0.6381  0.0284
   17CHL1    C8 1198   6.389   0.450   9.852  0.4242 -0.0576 -0.1996
   17CHL1    H8 1199   6.293   0.393   9.856 -0.3568  1.2560  0.8675
   17CHL1   C14 1200   6.418   0.489   9.711  0.1213  0.4980 -0.1623
   17CHL1   H14 1201   6.486   0.577   9.708 -0.3553  1.0531  2.6332
   17CHL1   C15 1202   6.297   0.546   9.634  0.8254  0.1284 -0.3317
   17CHL1  H15A 1203   6.203   0.489   9.647 -0.1645  0.9275 -3.2628
   17CHL1  H15B 1204   6.268   0.648   9.665 -0.1308 -0.3433  0.3759
   17CHL1   C16 1205   6.333   0.530   9.489 -0.2740  0.3092  0.9683
   17CHL1  H16A 1206   6.249   0.466   9.455 -0.2238 -0.2438  1.8358
   17CHL1  H16B 1207   6.338   0.627   9.436  0.5417 -1.0830 -1.6361
   17CHL1   C17 1208   6.467   0.450   9.483  0.1558  0.6847 -0.9174
   17CHL1   H17 1209   6.546   0.528   9.474 -0.5797  1.5558 -0.0773
   17CHL1   C13 1210   6.472   0.380   9.616  0.2391  0.2338 -0.1546
   17CHL1   C18 1211   6.381   0.253   9.622 -0.3844 -0.0773 -0.2518
   17CHL1  H18A 1212   6.276   0.270   9.592 -0.8530  1.0285  1.8146
   17CHL1  H18B 1213   6.418   0.168   9.560 -1.0756  0.8549 -1.9895
   17CHL1  H18C 1214   6.378   0.215   9.727  0.7250  2.5306  0.7970
   17CHL1   C12 1215   6.609   0.342   9.670 -0.3134 -0.3927 -0.0359
   17CHL1  H12A 1216   6.664   0.271   9.605  2.8451  0.9908  0.9606
   17CHL1  H12B 1217   6.672   0.434   9.670 -1.0993  0.1673 -1.1041
   17CHL1   C11 1218   6.603   0.293   9.812  0.4035  0.0712 -0.2924
   17CHL1  H11A 1219   6.559   0.191   9.801  2.5737 -0.8296 -1.3171
   17CHL1  H11B 1220   6.708   0.280   9.846  0.2693 -3.0590 -0.7082
   17CHL1    C9 1221   6.520   0.387   9.911  0.2190 -0.6981  0.0165
   17CHL1    H9 1222   6.584   0.478   9.919 -0.8444  0.1965 -1.0553
   17CHL1   C10 1223   6.493   0.337  10.054 -1.1869  1.0005  0.0539
   17CHL1   C19 1224   6.424   0.203  10.032  0.1973 -0.3881  0.0296
   17CHL1  H19A 1225   6.487   0.113  10.014 -0.2760 -0.4047 -1.6814
   17CHL1  H19B 1226   6.370   0.185  10.127 -0.5150 -2.2082 -0.6741
   17CHL1  H19C 1227   6.351   0.208   9.949  0.4642  1.8762 -0.1302
   17CHL1    C1 1228   6.631   0.305  10.128  0.3768 -0.2442 -0.0757
   17CHL1   H1A 1229   6.679   0.219  10.076  1.6881  1.6244 -2.1338
   17CHL1   H1B 1230   6.705   0.387  10.125  1.0423 -0.8612 -0.9414
   17CHL1    C2 1231   6.615   0.274  10.281 -0.8376 -0.0411 -0.2386
   17CHL1   H2A 1232   6.709   0.254  10.336 -0.8904  1.0443  0.2661
   17CHL1   H2B 1233   6.562   0.177  10.299 -0.5394  0.2624  2.9578
   17CHL1   C20 1234   6.477   0.369   9.352 -0.2119  0.1505 -0.7174
   17CHL1   H20 1235   6.385   0.306   9.339  0.4280 -0.7467 -1.0377
   17CHL1   C21 1236   6.600   0.278   9.345 -0.1753 -0.6039  0.2297
   17CHL1  H21A 1237   6.630   0.253   9.241  4.1677  2.0001  0.5855
   17CHL1  H21B 1238   6.593   0.191   9.413  1.3248 -0.6174  0.4104
   17CHL1  H21C 1239   6.689   0.336   9.379  0.7316 -1.6737 -0.2458
   17CHL1   C22 1240   6.460   0.447   9.223 -0.0941 -0.1526 -0.3194
   17CHL1  H22A 1241   6.405   0.542   9.244 -0.1788  0.1853 -1.9396
   17CHL1  H22B 1242   6.562   0.486   9.201 -0.5089  0.9926 -0.2544
   17CHL1   C23 1243   6.391   0.369   9.117 -1.2398  0.1891 -0.4050
   17CHL1  H23A 1244   6.429   0.264   9.114 -2.5001 -0.3477  1.3125
   17CHL1  H23B 1245   6.284   0.357   9.142 -1.0075 -0.6734  0.2004
   17CHL1   C24 1246   6.415   0.423   8.978  0.5100  1.1220  0.7594
   17CHL1  H24A 1247   6.373   0.526   8.979  1.1611  1.5065 -2.1495
   17CHL1  H24B 1248   6.524   0.442   8.965  0.2816  2.2452  0.3116
   17CHL1   C25 1249   6.350   0.349   8.864  0.3958 -0.2018  1.0799
   17CHL1   H25 1250   6.258   0.296   8.897  1.7751 -4.0053 -0.5632
   17CHL1   C26 1251   6.312   0.443   8.751  0.5447  0.2725 -0.2018
   17CHL1  H26A 1252   6.405   0.498   8.722  1.0530  0.2367  1.2869
   17CHL1  H26B 1253   6.279   0.385   8.662 -0.6242  0.1029  0.3316
   17CHL1  H26C 1254   6.235   0.510   8.794  0.9415  0.1657  0.7065
   17CHL1   C27 1255   6.443   0.241   8.808  0.2966  0.3571  0.0883
   17CHL1  H27A 1256   6.425   0.238   8.698 -0.6499 -1.6320  0.2422
   17CHL1  H27B 1257   6.549   0.261   8.834  0.8215 -0.5096 -1.2537
   17CHL1  H27C 1258   6.413   0.144   8.854 -1.8320  0.1875 -1.4970
   18CHL1    C3 1259   6.010   4.840  10.125  0.1668 -1.1077  0.2560
   18CHL1    H3 1260   6.108   4.890  10.109 -2.2924  3.9376 -0.8577
   18CHL1    O3 1261   5.978   4.839  10.266 -0.5462  0.3192  0.3236
   18CHL1   H3' 1262   5.984   4.926  10.305  2.2963  0.2144  0.3196
   18CHL1    C4 1263   5.905   4.916  10.055  0.2092 -0.0705 -0.7058
   18CHL1   H4A 1264   5.813   4.860  10.084  0.1149  1.1316  1.5737
   18CHL1   H4B 1265   5.891   5.014  10.105 -1.2610 -0.8522  0.5188
   18CHL1    C5 1266   5.935   4.930   9.909  0.2091 -0.2083  0.1741
   18CHL1    C6 1267   5.952   5.047   9.851  0.8098  0.0710  0.1342
   18CHL1    H6 1268   5.943   5.135   9.916 -1.5752 -0.6733  0.9200
   18CHL1    C7 1269   5.976   5.072   9.710 -0.6577  0.6363  0.8604
   18CHL1   H7A 1270   5.922   5.165   9.682  0.9139  1.6902  1.1776
   18CHL1   H7B 1271   6.081   5.098   9.687 -1.3213  1.1250 -1.8949
   18CHL1    C8 1272   5.943   4.956   9.618  0.3568  0.0931 -0.1103
   18CHL1    H8 1273   5.833   4.943   9.611  0.4269 -0.7627  0.2824
   18CHL1   C14 1274   6.009   4.979   9.480 -0.2936 -0.5034  0.8659
   18CHL1   H14 1275   6.118   4.965   9.500 -0.1270  0.3002  0.5513
   18CHL1   C15 1276   5.989   5.110   9.396  0.2900  0.3102  0.5563
   18CHL1  H15A 1277   5.884   5.140   9.412 -0.2907 -1.8543  1.2149
   18CHL1  H15B 1278   6.055   5.189   9.438  1.2814 -0.8905  1.3325
   18CHL1   C16 1279   6.012   5.065   9.251  0.0337 -0.1774  0.5786
   18CHL1  H16A 1280   5.928   5.102   9.188  1.8075  1.4123 -0.9805
   18CHL1  H16B 1281   6.104   5.106   9.204  0.7605 -0.9288  1.3050
   18CHL1   C17 1282   6.025   4.906   9.251  0.5300 -0.5842  0.1494
   18CHL1   H17 1283   6.133   4.885   9.270  0.8408  1.8976  1.6452
   18CHL1   C13 1284   5.969   4.853   9.387 -0.5370 -0.6423 -0.2465
   18CHL1   C18 1285   5.817   4.843   9.368  0.6478 -0.8343 -0.1478
   18CHL1  H18A 1286   5.778   4.939   9.328  0.5278 -0.4066  0.9698
   18CHL1  H18B 1287   5.802   4.772   9.283  2.8746 -0.4908 -0.9068
   18CHL1  H18C 1288   5.761   4.815   9.460  1.5597  2.9981  1.7630
   18CHL1   C12 1289   6.019   4.726   9.448 -0.2276 -0.0646  0.6291
   18CHL1  H12A 1290   6.011   4.630   9.393 -0.6675 -1.7030  3.3438
   18CHL1  H12B 1291   6.129   4.740   9.449 -0.2466  0.3048 -0.8721
   18CHL1   C11 1292   5.972   4.698   9.597  0.0488  0.1943  0.4707
   18CHL1  H11A 1293   5.868   4.666   9.574  0.2985  0.1272 -0.6234
   18CHL1  H11B 1294   6.041   4.621   9.637  1.3664  1.0076 -0.1995
   18CHL1    C9 1295   5.990   4.820   9.686  0.4064 -0.8140 -0.4898
   18CHL1    H9 1296   6.101   4.820   9.692  0.4538 -0.2349 -1.2183
   18CHL1   C10 1297   5.937   4.796   9.834 -0.3744 -0.1583  0.2810
   18CHL1   C19 1298   5.801   4.726   9.823  0.6039  0.1464  0.5279
   18CHL1  H19A 1299   5.761   4.719   9.926 -3.1206  0.3368 -0.7516
   18CHL1  H19B 1300   5.721   4.773   9.762 -0.7026 -1.1791  1.1625
   18CHL1  H19C 1301   5.803   4.625   9.777 -0.6856  0.0595  0.6322
   18CHL1    C1 1302   6.035   4.700   9.914 -0.3456  0.6068  0.0453
   18CHL1   H1A 1303   6.044   4.598   9.871  0.9091  0.8539 -0.3415
   18CHL1   H1B 1304   6.134   4.746   9.892 -0.1379 -0.9044 -2.6759
   18CHL1    C2 1305   6.016   4.694  10.069 -0.0063  0.0962 -0.3026
   18CHL1   H2A 1306   6.088   4.632  10.126  2.2057  2.6074 -0.1611
   18CHL1   H2B 1307   5.912   4.657  10.083 -0.3053  0.2118 -1.9941
   18CHL1   C20 1308   5.984   4.840   9.114  0.0595 -0.0163 -0.0031
   18CHL1   H20 1309   5.878   4.869   9.097  0.6795  0.9312 -2.7653
   18CHL1   C21 1310   5.992   4.688   9.107  0.0943  0.2158  0.3650
   18CHL1  H21A 1311   6.094   4.655   9.133 -0.4244 -4.8781 -2.5082
   18CHL1  H21B 1312   5.971   4.649   9.004 -0.5067  1.6760 -0.0943
   18CHL1  H21C 1313   5.932   4.649   9.192  0.1383 -1.2673 -0.2486
   18CHL1   C22 1314   6.059   4.895   8.993 -0.5687  0.2141  0.4429
   18CHL1  H22A 1315   6.089   5.002   8.998 -0.8995  0.4589 -1.7032
   18CHL1  H22B 1316   6.156   4.841   8.992  0.6422  2.2711  0.6880
   18CHL1   C23 1317   5.990   4.876   8.859 -0.1296  0.3832  0.7761
   18CHL1  H23A 1318   5.923   4.788   8.868 -0.1222  0.5567  3.3217
   18CHL1  H23B 1319   5.934   4.970   8.838  2.4199  1.2160 -3.4033
   18CHL1   C24 1320   6.079   4.856   8.741  0.1377 -0.4592 -0.5237
   18CHL1  H24A 1321   6.122   4.754   8.744  1.1737 -0.0078  0.3843
   18CHL1  H24B 1322   6.017   4.865   8.649 -0.3229 -1.9858 -0.3816
   18CHL1   C25 1323   6.192   4.954   8.731 -0.2633 -0.4714  0.1011
   18CHL1   H25 1324   6.243   4.968   8.828 -1.1540  3.1394  0.1789
   18CHL1   C26 1325   6.304   4.914   8.629  0.0609 -0.7929  0.0017
   18CHL1  H26A 1326   6.256   4.907   8.529 -0.0394 -1.7303  0.1061
   18CHL1  H26B 1327   6.387   4.987   8.620 -1.4111  0.8307 -1.0559
   18CHL1  H26C 1328   6.348   4.814   8.649  2.8291  0.4517  0.5858
   18CHL1   C27 1329   6.133   5.093   8.689 -0.7033  0.0694  0.9653
   18CHL1  H27A 1330   6.218   5.156   8.657 -1.5432  0.9750  0.4604
   18CHL1  H27B 1331   6.075   5.084   8.595  0.7504  3.0210 -0.3238
   18CHL1  H27C 1332   6.076   5.137   8.774 -0.6876  1.4208  0.2933
   19CHL1    C3 1333   3.374   0.167  10.044  0.6433 -0.1595 -0.4000
   19CHL1    H3 1334   3.327   0.072  10.075  0.9823  0.2046  1.3798
   19CHL1    O3 1335   3.420   0.229  10.164 -0.1875 -0.1829 -0.5364
   19CHL1   H3' 1336   3.345   0.268  10.210 -1.4231 -0.0488 -2.5491
   19CHL1    C4 1337   3.493   0.141   9.951  0.2995 -0.6517 -0.5835
   19CHL1   H4A 1338   3.538   0.242   9.940 -2.8921  1.1658  1.4582
   19CHL1   H4B 1339   3.570   0.080  10.002  0.0992  1.4394  2.4764
   19CHL1    C5 1340   3.451   0.087   9.821  0.3128  0.6733  0.2726
   19CHL1    C6 1341   3.492  -0.037   9.777  0.3944  0.3569  0.2316
   19CHL1    H6 1342   3.566  -0.096   9.833  0.7286 -0.2397 -0.8242
   19CHL1    C7 1343   3.447  -0.106   9.651 -0.5382 -0.6549 -0.4354
   19CHL1   H7A 1344   3.526  -0.155   9.591  0.0706 -1.7258  1.1816
   19CHL1   H7B 1345   3.369  -0.181   9.676 -0.9686 -0.0701 -0.0083
   19CHL1    C8 1346   3.374  -0.008   9.559  0.3405 -0.2400 -0.4531
   19CHL1    H8 1347   3.450   0.056   9.509 -1.0142  0.7087 -1.3535
   19CHL1   C14 1348   3.302  -0.084   9.448  0.3336 -0.4048  0.0873
   19CHL1   H14 1349   3.221  -0.144   9.494 -2.1489  2.0933 -0.7392
   19CHL1   C15 1350   3.378  -0.174   9.358  0.0613 -0.6038 -0.3841
   19CHL1  H15A 1351   3.467  -0.118   9.320  1.2877 -1.7038  0.7431
   19CHL1  H15B 1352   3.422  -0.267   9.401 -0.1961 -0.2577  0.6404
   19CHL1   C16 1353   3.280  -0.200   9.237  0.2063  0.0576  0.1131
   19CHL1  H16A 1354   3.336  -0.192   9.141 -0.9066 -0.7766 -0.6326
   19CHL1  H16B 1355   3.233  -0.300   9.239 -0.1848  0.1341 -2.0859
   19CHL1   C17 1356   3.165  -0.094   9.246 -0.3117 -0.0411  0.0067
   19CHL1   H17 1357   3.089  -0.158   9.295 -0.5633  1.0705  1.1150
   19CHL1   C13 1358   3.215   0.004   9.351 -0.1622 -0.1193 -0.4718
   19CHL1   C18 1359   3.301   0.107   9.270  0.6807 -0.3295 -0.0321
   19CHL1  H18A 1360   3.356   0.172   9.341 -2.0050  1.8726  0.1851
   19CHL1  H18B 1361   3.361   0.052   9.194 -1.0646 -1.9609 -0.3045
   19CHL1  H18C 1362   3.231   0.170   9.212  0.6097 -1.7503 -1.5790
   19CHL1   C12 1363   3.106   0.063   9.436  0.1060  0.0842  0.6664
   19CHL1  H12A 1364   3.053   0.140   9.377  1.3068 -0.0851 -0.6781
   19CHL1  H12B 1365   3.031  -0.010   9.475 -0.3058  0.1212 -0.0235
   19CHL1   C11 1366   3.170   0.157   9.544  0.2019 -0.0686  0.1050
   19CHL1  H11A 1367   3.216   0.239   9.486  0.8557  0.5753  1.4955
   19CHL1  H11B 1368   3.091   0.212   9.599 -0.7675  0.4126 -1.6579
   19CHL1    C9 1369   3.271   0.082   9.637 -0.3112  0.4013  0.1482
   19CHL1    H9 1370   3.219   0.002   9.694  2.9528 -2.1777 -0.1620
   19CHL1   C10 1371   3.344   0.167   9.746  0.1815 -0.0179 -0.3265
   19CHL1   C19 1372   3.404   0.289   9.683  0.1952  0.2438 -0.4001
   19CHL1  H19A 1373   3.476   0.259   9.604  1.6211  0.2073  0.8629
   19CHL1  H19B 1374   3.329   0.359   9.639  1.2932  1.6531 -0.1034
   19CHL1  H19C 1375   3.453   0.357   9.756 -0.2878 -0.2910  0.4409
   19CHL1    C1 1376   3.234   0.218   9.847 -0.1378 -0.3201  0.3191
   19CHL1   H1A 1377   3.176   0.300   9.801 -0.2452 -1.1915 -1.1766
   19CHL1   H1B 1378   3.172   0.127   9.859 -0.1501 -0.5441 -1.2113
   19CHL1    C2 1379   3.279   0.263   9.978 -0.0621  0.1893 -1.1517
   19CHL1   H2A 1380   3.194   0.290  10.045  1.9263  2.5536  0.6263
   19CHL1   H2B 1381   3.331   0.361   9.968 -0.4933  1.1331  3.4015
   19CHL1   C20 1382   3.099  -0.048   9.113 -0.6824 -0.6037  0.2597
   19CHL1   H20 1383   3.174   0.003   9.049 -2.2629 -0.8962 -1.9383
   19CHL1   C21 1384   2.976   0.044   9.125  0.2961  0.0192  0.2185
   19CHL1  H21A 1385   2.987   0.144   9.172 -1.1669 -0.1263  0.9031
   19CHL1  H21B 1386   2.894  -0.011   9.174  0.0182  1.0629  0.9407
   19CHL1  H21C 1387   2.949   0.078   9.023  0.5124  2.4638  0.9134
   19CHL1   C22 1388   3.074  -0.182   9.032 -0.0153 -0.4521 -0.0408
   19CHL1  H22A 1389   3.166  -0.240   9.009 -0.6780 -1.3267 -0.5341
   19CHL1  H22B 1390   3.009  -0.249   9.092  0.0295 -1.8334 -1.4906
   19CHL1   C23 1391   3.014  -0.167   8.885  0.6774 -0.0277 -0.3369
   19CHL1  H23A 1392   2.976  -0.264   8.847  2.7235 -0.4297 -1.4901
   19CHL1  H23B 1393   2.925  -0.102   8.901  1.7679  0.8606  2.9846
   19CHL1   C24 1394   3.112  -0.109   8.789  1.0687 -0.5156  0.1236
   19CHL1  H24A 1395   3.134  -0.004   8.819  0.5693 -1.0704  2.6351
   19CHL1  H24B 1396   3.200  -0.175   8.805  0.4894 -1.3433 -0.0735
   19CHL1   C25 1397   3.073  -0.117   8.641 -0.3144  0.6320  1.1806
   19CHL1   H25 1398   3.056  -0.224   8.615  0.1939  0.7323  0.4060
   19CHL1   C26 1399   2.953  -0.030   8.607 -0.0787 -0.3450 -0.2424
   19CHL1  H26A 1400   2.972   0.061   8.666  0.1671 -0.1725 -0.5831
   19CHL1  H26B 1401   2.942  -0.013   8.497  0.0259 -2.4916 -0.6313
   19CHL1  H26C 1402   2.861  -0.079   8.647 -1.3976  2.7459  0.7930
   19CHL1   C27 1403   3.193  -0.074   8.558 -0.0076 -0.6652  0.3858
   19CHL1  H27A 1404   3.168  -0.089   8.451  1.0589  0.7337 -0.1048
   19CHL1  H27B 1405   3.228   0.031   8.573 -0.5070 -0.4292 -0.0711
   19CHL1  H27C 1406   3.280  -0.137   8.586  0.0765 -0.5855  0.3043
   20CHL1    C3 1407   6.350   3.199  10.417  0.1542  0.3136  0.0905
   20CHL1    H3 1408   6.244   3.168  10.419 -0.1638  1.2205 -1.5847
   20CHL1    O3 1409   6.404   3.200  10.551 -0.2731  0.0631 -0.6028
   20CHL1   H3' 1410   6.401   3.292  10.575  0.3355 -0.5546  2.1421
   20CHL1    C4 1411   6.431   3.103  10.330 -0.2667 -0.1406 -0.6018
   20CHL1   H4A 1412   6.540   3.119  10.342 -0.6436  1.7904  0.6744
   20CHL1   H4B 1413   6.424   2.999  10.368  3.4218  0.3030  1.7831
   20CHL1    C5 1414   6.409   3.108  10.180  0.0766  0.2022  0.6634
   20CHL1    C6 1415   6.388   3.000  10.112  0.5165  0.9549 -0.1398
   20CHL1    H6 1416   6.397   2.899  10.155  1.1646  0.6769 -0.8939
   20CHL1    C7 1417   6.361   3.007   9.963 -0.2220 -0.2351 -0.0646
   20CHL1   H7A 1418   6.411   2.911   9.935 -1.0336 -0.4901 -0.6748
   20CHL1   H7B 1419   6.254   2.983   9.946  0.3964 -2.7389 -0.9215
   20CHL1    C8 1420   6.417   3.130   9.895 -0.4767  0.7175  0.4111
   20CHL1    H8 1421   6.527   3.110   9.892 -0.0580  2.8066 -1.4493
   20CHL1   C14 1422   6.362   3.150   9.750 -0.1872  0.8714 -0.1250
   20CHL1   H14 1423   6.251   3.150   9.751 -0.1951  0.6942 -0.6872
   20CHL1   C15 1424   6.384   3.027   9.655  0.0094  0.1624  0.1055
   20CHL1  H15A 1425   6.487   2.995   9.685  0.8353  2.9003  0.4277
   20CHL1  H15B 1426   6.315   2.942   9.673 -0.7647  0.9053  0.6805
   20CHL1   C16 1427   6.384   3.084   9.516 -0.1865 -0.2462  0.0306
   20CHL1  H16A 1428   6.481   3.075   9.462 -0.0992  0.0224  0.1407
   20CHL1  H16B 1429   6.307   3.032   9.455 -0.6755 -1.1950  1.4092
   20CHL1   C17 1430   6.346   3.234   9.530 -0.4421  0.0050 -0.2411
   20CHL1   H17 1431   6.236   3.246   9.540 -0.2262  3.4679 -0.7008
   20CHL1   C13 1432   6.404   3.269   9.672 -0.4768 -0.5890  0.8177
   20CHL1   C18 1433   6.564   3.281   9.659  0.1968  0.5270 -0.4193
   20CHL1  H18A 1434   6.583   3.380   9.611  3.2943  1.2932  2.0408
   20CHL1  H18B 1435   6.613   3.270   9.758 -0.3564 -0.1249 -0.2085
   20CHL1  H18C 1436   6.613   3.208   9.591  0.4805  1.8626 -1.7053
   20CHL1   C12 1437   6.352   3.390   9.751  0.2779  0.0716 -0.2284
   20CHL1  H12A 1438   6.376   3.485   9.698  0.8321 -0.1149 -0.3153
   20CHL1  H12B 1439   6.241   3.385   9.753  0.2384  0.8488  1.6954
   20CHL1   C11 1440   6.403   3.389   9.896 -0.2571 -0.1746  0.3560
   20CHL1  H11A 1441   6.511   3.405   9.878 -0.7921  1.0820 -2.1103
   20CHL1  H11B 1442   6.368   3.480   9.949  1.6010  0.5309  0.4246
   20CHL1    C9 1443   6.377   3.259   9.970  0.3179  0.3813 -0.2645
   20CHL1    H9 1444   6.267   3.245   9.968  0.5642 -2.0629 -2.5584
   20CHL1   C10 1445   6.417   3.245  10.113  0.6820  0.0460 -0.0204
   20CHL1   C19 1446   6.568   3.296  10.113  0.1739  0.3060 -0.3179
   20CHL1  H19A 1447   6.574   3.406  10.097  0.7970  0.1977 -0.9079
   20CHL1  H19B 1448   6.614   3.263  10.209 -0.2214  1.6924  0.3648
   20CHL1  H19C 1449   6.628   3.242  10.036  0.6441 -1.2069  1.0425
   20CHL1    C1 1450   6.330   3.337  10.212 -0.2406 -0.3772  0.2771
   20CHL1   H1A 1451   6.362   3.438  10.179  0.4256  0.0014  1.9700
   20CHL1   H1B 1452   6.223   3.319  10.191  0.0264 -0.1744 -1.4417
   20CHL1    C2 1453   6.361   3.341  10.361 -0.2359 -0.6393 -0.5208
   20CHL1   H2A 1454   6.284   3.397  10.419 -1.3288  0.4455 -2.8779
   20CHL1   H2B 1455   6.466   3.371  10.381 -0.5745 -1.5189  3.2793
   20CHL1   C20 1456   6.382   3.323   9.410 -0.5630  0.8447  0.7916
   20CHL1   H20 1457   6.493   3.328   9.400 -0.3856  0.4272  2.2766
   20CHL1   C21 1458   6.322   3.458   9.417  0.4761 -0.5261 -0.4114
   20CHL1  H21A 1459   6.215   3.440   9.443  0.9003 -0.9857  1.1573
   20CHL1  H21B 1460   6.312   3.513   9.321 -0.4521 -0.4083 -0.2618
   20CHL1  H21C 1461   6.377   3.529   9.483  3.7601 -1.6068 -1.7656
   20CHL1   C22 1462   6.331   3.245   9.284  0.0841 -0.3718 -0.0822
   20CHL1  H22A 1463   6.382   3.147   9.273  0.7264 -0.0907  0.3392
   20CHL1  H22B 1464   6.220   3.246   9.289 -0.0244  0.0979 -1.9586
   20CHL1   C23 1465   6.356   3.313   9.147  0.2563 -0.5123  0.2421
   20CHL1  H23A 1466   6.290   3.402   9.146  2.1753  1.0187  1.4475
   20CHL1  H23B 1467   6.465   3.335   9.146 -0.1973  2.7917  3.0814
   20CHL1   C24 1468   6.327   3.233   9.019 -0.5172 -0.3716  0.9930
   20CHL1  H24A 1469   6.362   3.128   9.029 -1.4212 -0.6109  1.8396
   20CHL1  H24B 1470   6.216   3.238   9.007 -0.2883 -0.1945 -1.4809
   20CHL1   C25 1471   6.406   3.303   8.893  0.2381  0.8020 -0.4689
   20CHL1   H25 1472   6.515   3.311   8.913  0.3541 -0.6566 -0.4320
   20CHL1   C26 1473   6.378   3.231   8.763  0.3758 -0.2743  0.0041
   20CHL1  H26A 1474   6.270   3.239   8.740  0.1903 -1.0398  0.5547
   20CHL1  H26B 1475   6.436   3.278   8.680  2.2900 -0.6618  1.0630
   20CHL1  H26C 1476   6.412   3.126   8.770 -1.3327 -1.0212 -1.8441
   20CHL1   C27 1477   6.358   3.441   8.875  0.1227  0.2765 -0.6401
   20CHL1  H27A 1478   6.405   3.512   8.946 -1.3249 -0.8585  1.5827
   20CHL1  H27B 1479   6.377   3.490   8.778  1.1081  2.4547  0.5770
   20CHL1  H27C 1480   6.249   3.439   8.893  0.1375 -3.6379 -0.0026
   21CHL1    C3 1481   5.069   5.718   9.992 -0.6583  0.5062 -0.2220
   21CHL1    H3 1482   5.059   5.626   9.931  0.0782 -0.0245  0.4358
   21CHL1    O3 1483   5.106   5.690  10.127  0.6877 -0.1532 -0.4542
   21CHL1   H3' 1484   5.075   5.758  10.187  0.2291 -2.1369  1.7023
   21CHL1    C4 1485   5.185   5.811   9.936  0.4286  1.3781 -0.5790
   21CHL1   H4A 1486   5.194   5.906   9.994 -0.3620  3.2874 -3.3517
   21CHL1   H4B 1487   5.280   5.756   9.952 -0.8707 -0.3919  1.4353
   21CHL1    C5 1488   5.162   5.838   9.791 -0.0804  0.8134 -0.5615
   21CHL1    C6 1489   5.262   5.805   9.709  0.2312 -0.4592  0.6279
   21CHL1    H6 1490   5.351   5.761   9.757  0.6068 -0.1670  0.2113
   21CHL1    C7 1491   5.253   5.824   9.559 -0.0593  0.4481  0.2000
   21CHL1   H7A 1492   5.342   5.872   9.513  1.7461 -1.0484  1.9357
   21CHL1   H7B 1493   5.256   5.719   9.522  2.1748  0.3040  0.6049
   21CHL1    C8 1494   5.126   5.902   9.511 -0.3828 -0.4120  0.0899
   21CHL1    H8 1495   5.148   6.011   9.518  1.4632 -0.7256 -0.2835
   21CHL1   C14 1496   5.098   5.866   9.371  0.1482  0.3814  0.5837
   21CHL1   H14 1497   5.073   5.759   9.356 -2.7681  1.2366 -1.7091
   21CHL1   C15 1498   5.216   5.876   9.276  0.0173 -0.3235  0.1481
   21CHL1  H15A 1499   5.286   5.961   9.294  2.9583 -2.1346 -1.8525
   21CHL1  H15B 1500   5.272   5.780   9.278 -0.2738 -0.5248 -0.9779
   21CHL1   C16 1501   5.148   5.904   9.136 -0.7947  0.0708 -0.7679
   21CHL1  H16A 1502   5.178   6.008   9.107  0.9252  0.5567  2.3367
   21CHL1  H16B 1503   5.184   5.831   9.060 -0.8553  0.2915 -1.0144
   21CHL1   C17 1504   4.995   5.907   9.163  0.0665  0.2931  0.1925
   21CHL1   H17 1505   4.954   5.805   9.146  0.6787  0.1816 -0.6940
   21CHL1   C13 1506   4.982   5.944   9.309  0.2027  0.1645 -0.4235
   21CHL1   C18 1507   5.002   6.095   9.320  0.0468 -0.2061  0.3985
   21CHL1  H18A 1508   5.089   6.139   9.266 -0.9154 -0.9859 -1.9051
   21CHL1  H18B 1509   4.908   6.150   9.299  1.0918  0.8478 -1.8769
   21CHL1  H18C 1510   5.003   6.121   9.428 -0.2597  1.3275  0.0639
   21CHL1   C12 1511   4.857   5.897   9.389 -0.6284 -0.0793  0.3656
   21CHL1  H12A 1512   4.767   5.946   9.349 -0.5733 -0.1507  0.1552
   21CHL1  H12B 1513   4.843   5.787   9.376  1.6427 -0.4316  0.3754
   21CHL1   C11 1514   4.867   5.925   9.545 -0.2481  0.5927 -0.6942
   21CHL1  H11A 1515   4.852   6.034   9.560 -2.6663 -0.1406  4.3467
   21CHL1  H11B 1516   4.783   5.873   9.597  1.1855  0.1513  1.3053
   21CHL1    C9 1517   4.996   5.873   9.602  0.1053 -1.0334 -0.5660
   21CHL1    H9 1518   4.987   5.764   9.581 -2.1818 -0.8085 -1.0595
   21CHL1   C10 1519   5.017   5.879   9.754 -0.3590  0.4998 -0.4661
   21CHL1   C19 1520   5.019   6.027   9.792 -0.3841  0.4142  0.3686
   21CHL1  H19A 1521   5.100   6.080   9.737  0.4993 -2.2733 -1.1331
   21CHL1  H19B 1522   4.916   6.065   9.777  0.1098  0.8549 -2.6664
   21CHL1  H19C 1523   5.036   6.048   9.899  2.4074  1.6793 -0.2293
   21CHL1    C1 1524   4.904   5.801   9.836  0.2221 -0.4798  0.2568
   21CHL1   H1A 1525   4.812   5.863   9.838  0.0437 -0.7614  2.0592
   21CHL1   H1B 1526   4.885   5.696   9.802  0.2859 -0.9160  1.5373
   21CHL1    C2 1527   4.935   5.786   9.987 -0.3033  0.1191  0.1498
   21CHL1   H2A 1528   4.860   5.717  10.031 -0.8084  1.7743  1.9931
   21CHL1   H2B 1529   4.948   5.887  10.031  2.4854 -0.4981  0.9656
   21CHL1   C20 1530   4.914   5.985   9.054  0.0814  0.6694 -0.0412
   21CHL1   H20 1531   4.929   6.095   9.055 -1.9551  0.9913 -0.6893
   21CHL1   C21 1532   4.765   5.955   9.069 -0.2628  0.2784 -0.6158
   21CHL1  H21A 1533   4.706   6.006   9.149  0.1268  0.2909 -0.3362
   21CHL1  H21B 1534   4.751   5.846   9.082 -0.9567  0.6458  2.7657
   21CHL1  H21C 1535   4.705   5.988   8.981 -1.1912  0.2558 -0.0102
   21CHL1   C22 1536   4.946   5.949   8.910 -0.0347 -0.8342  0.6253
   21CHL1  H22A 1537   4.884   6.006   8.838 -1.0065 -1.7575  0.7029
   21CHL1  H22B 1538   5.052   5.975   8.893 -0.4036  0.0401 -0.3820
   21CHL1   C23 1539   4.943   5.802   8.862  0.1002 -0.6839 -0.5566
   21CHL1  H23A 1540   4.993   5.725   8.925  0.3168  1.4568  2.0783
   21CHL1  H23B 1541   4.834   5.780   8.865 -0.2595  1.0825  1.0194
   21CHL1   C24 1542   4.976   5.790   8.715 -0.3644 -0.1656 -0.4483
   21CHL1  H24A 1543   4.895   5.842   8.660  1.7922  2.4213 -1.4334
   21CHL1  H24B 1544   5.070   5.844   8.690 -0.6544  1.3407  1.4219
   21CHL1   C25 1545   4.971   5.645   8.677 -0.5002 -0.0186  0.7718
   21CHL1   H25 1546   5.055   5.593   8.728 -1.5393  0.3181  2.8962
   21CHL1   C26 1547   4.843   5.571   8.732 -0.0066 -0.0611 -0.0277
   21CHL1  H26A 1548   4.836   5.463   8.709  1.3154 -0.7474  2.4118
   21CHL1  H26B 1549   4.853   5.565   8.843  0.3185 -0.4533 -0.0775
   21CHL1  H26C 1550   4.747   5.619   8.704  0.2200 -0.5609 -1.7960
   21CHL1   C27 1551   4.983   5.609   8.524 -0.0557 -0.0022  0.5688
   21CHL1  H27A 1552   4.953   5.504   8.506 -0.3663  0.5140 -2.4487
   21CHL1  H27B 1553   4.923   5.673   8.455  0.0441 -1.4055 -0.8850
   21CHL1  H27C 1554   5.089   5.624   8.493 -0.6074  0.5148 -1.2038
   22CHL1    C3 1555   4.646   0.580  10.028 -0.0754 -0.1711 -0.2645
   22CHL1    H3 1556   4.627   0.685   9.998  0.2290  0.2300  0.8963
   22CHL1    O3 1557   4.663   0.574  10.168 -0.0145 -0.3055  0.1433
   22CHL1   H3' 1558   4.653   0.480  10.182  1.8644 -0.6711 -0.6423
   22CHL1    C4 1559   4.521   0.487   9.995 -0.5267 -0.6813  0.0097
   22CHL1   H4A 1560   4.551   0.382  10.014  1.5440 -0.2730 -0.7325
   22CHL1   H4B 1561   4.440   0.517  10.065  0.7739 -1.1705  1.7965
   22CHL1    C5 1562   4.501   0.512   9.852  0.1488  0.3663  0.2291
   22CHL1    C6 1563   4.387   0.575   9.817 -0.1533 -0.0432 -0.2934
   22CHL1    H6 1564   4.304   0.586   9.888 -0.6438  1.7644 -1.0870
   22CHL1    C7 1565   4.354   0.588   9.672 -0.3171 -0.3691  0.0148
   22CHL1   H7A 1566   4.249   0.576   9.638  0.1188  0.6268 -1.8177
   22CHL1   H7B 1567   4.382   0.693   9.650  1.5078 -0.6647  0.7045
   22CHL1    C8 1568   4.444   0.514   9.567 -0.1152 -0.0247  0.1961
   22CHL1    H8 1569   4.425   0.404   9.572  1.9611 -0.6096 -2.5623
   22CHL1   C14 1570   4.416   0.573   9.432  0.0606  0.5426  0.9168
   22CHL1   H14 1571   4.455   0.677   9.445  0.2538  0.5683  0.1557
   22CHL1   C15 1572   4.278   0.584   9.375 -0.0974 -0.4460 -0.3321
   22CHL1  H15A 1573   4.231   0.485   9.390  0.3709 -0.4832  1.0266
   22CHL1  H15B 1574   4.220   0.667   9.422  0.5521  0.5535 -1.2332
   22CHL1   C16 1575   4.294   0.610   9.226  0.5930  0.7907  0.2857
   22CHL1  H16A 1576   4.239   0.537   9.163  0.2095  1.1705  0.1688
   22CHL1  H16B 1577   4.253   0.712   9.208  0.4491  0.8392  0.8482
   22CHL1   C17 1578   4.444   0.604   9.206 -0.5251 -0.3357 -0.5819
   22CHL1   H17 1579   4.474   0.709   9.229  0.0641  0.0436 -2.8487
   22CHL1   C13 1580   4.494   0.518   9.319 -0.9035 -0.2901  0.1590
   22CHL1   C18 1581   4.465   0.371   9.298 -0.4845  0.0518  0.0383
   22CHL1  H18A 1582   4.493   0.315   9.390 -0.5285  0.4771  0.3133
   22CHL1  H18B 1583   4.355   0.358   9.290 -0.6160  1.6793 -1.3326
   22CHL1  H18C 1584   4.524   0.328   9.214 -0.0525  1.4874 -0.4314
   22CHL1   C12 1585   4.646   0.538   9.357 -0.3582  0.8007 -0.8330
   22CHL1  H12A 1586   4.712   0.489   9.283 -2.0146  2.5921 -3.6696
   22CHL1  H12B 1587   4.666   0.647   9.346 -0.3188  0.7644 -1.1140
   22CHL1   C11 1588   4.687   0.488   9.499 -0.3760 -0.0680  0.0395
   22CHL1  H11A 1589   4.681   0.377   9.494  0.3468 -0.0682 -1.7328
   22CHL1  H11B 1590   4.789   0.520   9.527 -1.2319  2.6325  0.3101
   22CHL1    C9 1591   4.587   0.535   9.607  0.0022 -0.1401 -0.7412
   22CHL1    H9 1592   4.601   0.645   9.615 -1.1785  0.0173 -0.5989
   22CHL1   C10 1593   4.620   0.482   9.753  0.1777  1.2653  0.1574
   22CHL1   C19 1594   4.645   0.330   9.741  0.5106  0.4734 -0.6251
   22CHL1  H19A 1595   4.665   0.280   9.838 -2.8430 -0.6250 -0.3722
   22CHL1  H19B 1596   4.552   0.288   9.698 -0.0251 -2.0749  2.6418
   22CHL1  H19C 1597   4.737   0.320   9.680  0.8801 -0.0795  0.0071
   22CHL1    C1 1598   4.754   0.545   9.803  0.2491  0.7555 -0.3894
   22CHL1   H1A 1599   4.842   0.500   9.753  1.0322  1.7626  0.0617
   22CHL1   H1B 1600   4.751   0.654   9.783  0.2429  1.0221  0.9452
   22CHL1    C2 1601   4.774   0.537   9.958  0.3324  0.6447  0.5888
   22CHL1   H2A 1602   4.860   0.606   9.977  0.1009  0.8566  0.8708
   22CHL1   H2B 1603   4.795   0.434   9.994 -1.9287  0.9524  3.0577
   22CHL1   C20 1604   4.492   0.585   9.066  0.2827  0.4291  0.0411
   22CHL1   H20 1605   4.593   0.537   9.062  0.0508 -0.0815  0.2281
   22CHL1   C21 1606   4.506   0.724   9.011 -0.3154 -0.1717 -0.3507
   22CHL1  H21A 1607   4.588   0.775   9.065 -1.7193 -0.4826  2.1984
   22CHL1  H21B 1608   4.413   0.780   9.034  1.1203  1.6416  1.3059
   22CHL1  H21C 1609   4.533   0.732   8.903  1.9758  1.4530  0.2548
   22CHL1   C22 1610   4.409   0.490   8.980  0.4222 -0.9058  0.2242
   22CHL1  H22A 1611   4.397   0.401   9.046  0.4680 -0.5463  0.7225
   22CHL1  H22B 1612   4.316   0.547   8.959  0.3065 -1.6005 -1.2875
   22CHL1   C23 1613   4.477   0.442   8.842  0.5212 -0.6548  0.3098
   22CHL1  H23A 1614   4.524   0.538   8.812 -0.5888  1.4386  4.4921
   22CHL1  H23B 1615   4.556   0.367   8.865  0.2623 -1.4716 -1.3658
   22CHL1   C24 1616   4.375   0.391   8.732  0.3032 -0.5167 -0.2264
   22CHL1  H24A 1617   4.437   0.347   8.650  0.0371 -1.3053 -0.0121
   22CHL1  H24B 1618   4.312   0.305   8.764  0.1549 -0.3226  0.0008
   22CHL1   C25 1619   4.282   0.502   8.670 -0.0341 -1.3187  0.2856
   22CHL1   H25 1620   4.227   0.556   8.750  0.5260  0.2300 -0.3276
   22CHL1   C26 1621   4.372   0.602   8.596 -0.4755 -0.7278  0.1181
   22CHL1  H26A 1622   4.446   0.650   8.663 -0.3286 -2.1022  0.9810
   22CHL1  H26B 1623   4.438   0.551   8.523 -2.1774 -0.7578 -1.4612
   22CHL1  H26C 1624   4.305   0.669   8.538 -2.6170 -1.5608  1.4834
   22CHL1   C27 1625   4.180   0.453   8.563 -0.3304 -0.4551 -0.0290
   22CHL1  H27A 1626   4.113   0.375   8.605  2.2700 -2.5161  0.5577
   22CHL1  H27B 1627   4.129   0.537   8.512 -0.2068  0.8160  1.8071
   22CHL1  H27C 1628   4.240   0.397   8.489 -0.9627 -2.8206  1.1474
   23CHL1    C3 1629   1.832   0.144  10.249 -0.3066 -0.2300 -0.7001
   23CHL1    H3 1630   1.926   0.091  10.223  0.1315 -0.2246  0.7648
   23CHL1    O3 1631   1.822   0.151  10.391  0.0971  0.0193  0.0223
   23CHL1   H3' 1632   1.780   0.232  10.419 -0.9449 -0.7046  0.6314
   23CHL1    C4 1633   1.830   0.286  10.198 -0.4255 -0.3738 -0.8376
   23CHL1   H4A 1634   1.733   0.327  10.233 -0.9700 -2.6853  0.5762
   23CHL1   H4B 1635   1.915   0.347  10.236 -1.2114 -0.9006  1.9781
   23CHL1    C5 1636   1.824   0.283  10.046 -0.0040  0.0658  0.8417
   23CHL1    C6 1637   1.916   0.354   9.971  0.3697  0.0417  0.4726
   23CHL1    H6 1638   1.994   0.416  10.019  1.9539  0.5360 -2.5136
   23CHL1    C7 1639   1.924   0.338   9.820  0.7194  0.1661 -0.0565
   23CHL1   H7A 1640   1.958   0.435   9.777 -0.9586  0.5765 -0.5006
   23CHL1   H7B 1641   1.992   0.253   9.798 -0.8049 -0.7465 -1.4374
   23CHL1    C8 1642   1.792   0.293   9.763 -0.2820 -0.6157 -0.5750
   23CHL1    H8 1643   1.723   0.378   9.780  0.4630  0.0413 -0.8023
   23CHL1   C14 1644   1.813   0.261   9.620  0.0051  0.6072  0.1313
   23CHL1   H14 1645   1.871   0.167   9.606  1.9000  1.9429 -1.7204
   23CHL1   C15 1646   1.900   0.356   9.529 -0.5360 -0.3000 -0.5163
   23CHL1  H15A 1647   1.877   0.463   9.547 -1.4316  0.1788 -3.8878
   23CHL1  H15B 1648   2.009   0.336   9.526 -0.6272 -1.2434  1.1835
   23CHL1   C16 1649   1.847   0.334   9.382  0.3916  0.8389 -0.7575
   23CHL1  H16A 1650   1.785   0.421   9.349 -1.2319  0.4230  1.0032
   23CHL1  H16B 1651   1.933   0.301   9.320  1.2844  0.0561  0.8342
   23CHL1   C17 1652   1.748   0.219   9.400 -1.1482  0.0751 -0.3068
   23CHL1   H17 1653   1.810   0.127   9.399  1.5398  1.7950 -1.1237
   23CHL1   C13 1654   1.683   0.216   9.536  0.4468 -0.3658  0.4982
   23CHL1   C18 1655   1.573   0.325   9.549 -0.5055  0.9042  0.3334
   23CHL1  H18A 1656   1.590   0.435   9.540 -1.6289  1.3330  2.7446
   23CHL1  H18B 1657   1.491   0.292   9.482 -0.9259  1.6677  0.4572
   23CHL1  H18C 1658   1.527   0.307   9.649 -1.7033 -0.5329 -0.4449
   23CHL1   C12 1659   1.649   0.080   9.600 -0.2647  0.6650  0.3112
   23CHL1  H12A 1660   1.554   0.037   9.562 -0.9531  0.4292  2.1739
   23CHL1  H12B 1661   1.731   0.006   9.588  0.9912  1.8050  1.4949
   23CHL1   C11 1662   1.624   0.094   9.750 -0.4300 -0.4645 -0.5160
   23CHL1  H11A 1663   1.528   0.146   9.768  0.0226  0.5187 -0.8871
   23CHL1  H11B 1664   1.621  -0.008   9.794 -2.1353  0.5093  1.7999
   23CHL1    C9 1665   1.746   0.161   9.828  0.1314 -0.2564 -0.1234
   23CHL1    H9 1666   1.833   0.091   9.831  0.4356  0.0785 -0.8351
   23CHL1   C10 1667   1.721   0.183   9.983 -0.3901 -0.2361  0.3602
   23CHL1   C19 1668   1.590   0.253   9.994  0.1253 -0.4023 -0.0621
   23CHL1  H19A 1669   1.556   0.257  10.100  1.2603 -2.6429  0.4560
   23CHL1  H19B 1670   1.588   0.356   9.954  0.4087 -0.9583 -1.5584
   23CHL1  H19C 1671   1.503   0.201   9.947  1.3317 -0.0036 -2.9296
   23CHL1    C1 1672   1.724   0.046  10.053  0.5719  0.2378  0.5670
   23CHL1   H1A 1673   1.641  -0.002   9.998  0.6654  2.5662 -1.8608
   23CHL1   H1B 1674   1.818  -0.010  10.033  0.1059  0.1486 -1.6953
   23CHL1    C2 1675   1.710   0.059  10.204 -0.0618 -0.5361 -0.9016
   23CHL1   H2A 1676   1.711  -0.032  10.267  1.9337 -0.2881 -0.4991
   23CHL1   H2B 1677   1.613   0.108  10.230 -0.9047 -0.3574 -3.9665
   23CHL1   C20 1678   1.646   0.212   9.283 -0.1083 -0.7708 -0.2883
   23CHL1   H20 1679   1.579   0.300   9.289  1.4371  0.6179 -2.0209
   23CHL1   C21 1680   1.577   0.078   9.273  0.4162 -0.9211 -0.1232
   23CHL1  H21A 1681   1.652  -0.003   9.266  2.6635  0.8769  1.4004
   23CHL1  H21B 1682   1.506   0.074   9.188 -1.4506  1.3069  1.1937
   23CHL1  H21C 1683   1.510   0.053   9.358  0.0674 -1.9544 -0.6858
   23CHL1   C22 1684   1.709   0.240   9.145 -0.3743  0.0009  0.2992
   23CHL1  H22A 1685   1.779   0.327   9.148  0.7373 -0.7460 -1.7797
   23CHL1  H22B 1686   1.771   0.166   9.090  0.8149  1.7064 -0.7483
   23CHL1   C23 1687   1.610   0.298   9.043  0.0271  0.9089  0.3885
   23CHL1  H23A 1688   1.511   0.261   9.074 -0.9312  3.5267  0.7335
   23CHL1  H23B 1689   1.602   0.409   9.053 -3.5266  0.7423  0.6454
   23CHL1   C24 1690   1.649   0.244   8.897  0.5217 -0.8327 -0.1384
   23CHL1  H24A 1691   1.757   0.264   8.877  0.3559  0.8248  0.4819
   23CHL1  H24B 1692   1.616   0.143   8.865 -1.1530  0.2042 -1.8964
   23CHL1   C25 1693   1.574   0.330   8.795  0.8734 -0.3354  0.7369
   23CHL1   H25 1694   1.571   0.437   8.825 -1.8253 -0.5767  1.5972
   23CHL1   C26 1695   1.650   0.324   8.663 -0.3552 -0.4101 -0.1810
   23CHL1  H26A 1696   1.593   0.370   8.580 -0.5200 -1.1157 -0.4671
   23CHL1  H26B 1697   1.748   0.374   8.679  1.2007 -2.7805 -1.5154
   23CHL1  H26C 1698   1.659   0.218   8.629 -0.2156  0.0498 -1.6554
   23CHL1   C27 1699   1.423   0.279   8.774  0.6547  0.4298 -0.0418
   23CHL1  H27A 1700   1.363   0.286   8.867 -0.7869  0.2159 -0.9286
   23CHL1  H27B 1701   1.369   0.344   8.702  1.3619 -0.5036 -1.4738
   23CHL1  H27C 1702   1.421   0.170   8.751 -0.3189  0.2973  0.5952
   24CHL1    C3 1703   2.106   1.175  10.049 -0.1770  0.4473 -0.0917
   24CHL1    H3 1704   2.050   1.270  10.032  0.1728  1.1909  2.4396
   24CHL1    O3 1705   2.118   1.144  10.187 -0.0981  0.1033 -0.6399
   24CHL1   H3' 1706   2.197   1.090  10.180 -0.6137 -1.0089  1.2838
   24CHL1    C4 1707   2.038   1.063   9.969 -0.2540  0.2372 -0.1238
   24CHL1   H4A 1708   2.083   0.965   9.996 -0.4968 -0.7160 -2.9049
   24CHL1   H4B 1709   1.933   1.051  10.005 -1.2108  3.0517 -1.6452
   24CHL1    C5 1710   2.046   1.077   9.820 -0.0810  0.4772  0.6429
   24CHL1    C6 1711   1.935   1.068   9.738  0.0234  0.0261 -0.6582
   24CHL1    H6 1712   1.833   1.048   9.773 -0.5903 -1.9817 -3.2774
   24CHL1    C7 1713   1.934   1.090   9.588 -0.5445  0.4347 -0.5208
   24CHL1   H7A 1714   1.899   1.001   9.530  3.1085 -0.9563 -0.8344
   24CHL1   H7B 1715   1.868   1.174   9.557 -1.3714  0.7079  1.7763
   24CHL1    C8 1716   2.077   1.101   9.530 -0.2287 -0.3068 -0.5330
   24CHL1    H8 1717   2.123   1.000   9.533 -1.4914 -0.8938  0.3241
   24CHL1   C14 1718   2.064   1.158   9.391 -0.6221  0.3641 -0.4649
   24CHL1   H14 1719   2.016   1.256   9.410  1.5473  1.0471  2.0341
   24CHL1   C15 1720   1.956   1.102   9.292  0.2513 -0.7615  0.0812
   24CHL1  H15A 1721   1.946   0.991   9.289  2.1555 -0.9583 -1.3028
   24CHL1  H15B 1722   1.858   1.151   9.310  0.2722 -1.4698  2.3759
   24CHL1   C16 1723   2.014   1.152   9.155 -0.2410 -0.4019  0.6878
   24CHL1  H16A 1724   2.041   1.067   9.089  0.5116  1.5641 -1.6635
   24CHL1  H16B 1725   1.947   1.227   9.107  2.4873  2.0152  0.3912
   24CHL1   C17 1726   2.144   1.235   9.186 -0.2629  0.7250  0.7428
   24CHL1   H17 1727   2.113   1.341   9.201  0.6304  0.9902  0.7617
   24CHL1   C13 1728   2.196   1.180   9.321  0.3878  0.0125 -0.4782
   24CHL1   C18 1729   2.257   1.036   9.292  0.0493 -0.1910  0.0875
   24CHL1  H18A 1730   2.279   0.991   9.391  1.6673  1.7148  0.6611
   24CHL1  H18B 1731   2.206   0.969   9.219  1.8727 -0.5805 -0.8836
   24CHL1  H18C 1732   2.359   1.044   9.250 -0.5350 -1.0624 -1.6238
   24CHL1   C12 1733   2.282   1.278   9.403  0.7203 -0.5162 -0.2656
   24CHL1  H12A 1734   2.377   1.300   9.350  0.2865  0.4005 -0.6828
   24CHL1  H12B 1735   2.231   1.376   9.414  2.7258  0.4998  0.6148
   24CHL1   C11 1736   2.304   1.223   9.540  0.5511 -0.5825 -1.1099
   24CHL1  H11A 1737   2.377   1.139   9.544  1.2958  0.1008  1.2714
   24CHL1  H11B 1738   2.356   1.303   9.597  2.7583 -2.9494  0.4533
   24CHL1    C9 1739   2.171   1.190   9.614  0.0685 -0.3118 -0.6001
   24CHL1    H9 1740   2.121   1.287   9.632  1.6156 -0.0398  3.3627
   24CHL1   C10 1741   2.185   1.131   9.761  0.5245 -0.3077  0.5076
   24CHL1   C19 1742   2.293   1.017   9.770  0.1647 -0.4234  0.5029
   24CHL1  H19A 1743   2.394   1.048   9.736  1.4864 -2.5642  2.2197
   24CHL1  H19B 1744   2.306   0.978   9.873 -1.0848  1.6923  1.5123
   24CHL1  H19C 1745   2.257   0.931   9.709  1.8158 -0.3770 -0.6221
   24CHL1    C1 1746   2.246   1.246   9.849  0.2569 -0.1429  0.0751
   24CHL1   H1A 1747   2.348   1.275   9.816 -0.3217 -0.1375 -1.7937
   24CHL1   H1B 1748   2.188   1.337   9.823  0.7937  0.2259  0.1585
   24CHL1    C2 1749   2.250   1.219   9.998  0.4372  0.0221 -0.0262
   24CHL1   H2A 1750   2.290   1.306  10.055  2.1282  0.3119 -1.5642
   24CHL1   H2B 1751   2.317   1.135  10.025  1.2574  0.5740 -0.3026
   24CHL1   C20 1752   2.249   1.244   9.075 -0.0054  0.3858  0.0189
   24CHL1   H20 1753   2.338   1.187   9.109  1.4550  2.4736 -0.1221
   24CHL1   C21 1754   2.295   1.396   9.069 -0.3204 -0.3370  0.7979
   24CHL1  H21A 1755   2.317   1.433   9.172 -1.0348  1.4690  0.3363
   24CHL1  H21B 1756   2.212   1.451   9.021  0.3240 -1.8656 -2.3023
   24CHL1  H21C 1757   2.385   1.408   9.005 -1.6143 -0.4356 -1.1079
   24CHL1   C22 1758   2.205   1.194   8.937 -0.1026  0.7166  0.4379
   24CHL1  H22A 1759   2.204   1.083   8.947 -0.4520  0.8666  2.4432
   24CHL1  H22B 1760   2.102   1.223   8.908  0.5325  1.7457 -0.8695
   24CHL1   C23 1761   2.301   1.225   8.824  0.0555  0.0421  0.5152
   24CHL1  H23A 1762   2.299   1.330   8.789 -0.8125 -0.3055 -0.5232
   24CHL1  H23B 1763   2.402   1.205   8.866 -1.1432 -2.4395  2.5587
   24CHL1   C24 1764   2.268   1.130   8.707  0.0414 -0.0795  0.1498
   24CHL1  H24A 1765   2.273   1.023   8.736  2.5983 -0.1457 -0.2691
   24CHL1  H24B 1766   2.163   1.158   8.682 -0.2727 -1.3593  0.0063
   24CHL1   C25 1767   2.359   1.145   8.585 -0.6548 -0.0818 -0.2045
   24CHL1   H25 1768   2.383   1.253   8.579  0.2623 -0.3071 -0.8230
   24CHL1   C26 1769   2.491   1.070   8.598  0.2995 -0.1854  0.2542
   24CHL1  H26A 1770   2.563   1.120   8.667  2.5409 -1.7534 -0.8378
   24CHL1  H26B 1771   2.473   0.970   8.642 -2.0646 -0.4565 -1.1612
   24CHL1  H26C 1772   2.526   1.055   8.493 -1.0827  0.6386 -0.3454
   24CHL1   C27 1773   2.290   1.104   8.453  0.4653 -0.1399 -0.2728
   24CHL1  H27A 1774   2.361   1.108   8.368 -0.2235 -0.2891 -0.8615
   24CHL1  H27B 1775   2.251   1.000   8.459 -0.3539  0.2444  2.8632
   24CHL1  H27C 1776   2.200   1.159   8.420  1.2852  0.7810 -1.0358
   25CHL1    C3 1777   4.449   2.176  10.276 -0.0411  0.1576 -0.6138
   25CHL1    H3 1778   4.351   2.128  10.253  0.0976  0.2278 -1.3645
   25CHL1    O3 1779   4.464   2.216  10.410 -0.4972  0.4116  0.6725
   25CHL1   H3' 1780   4.544   2.173  10.442  0.2610  2.0880  1.1524
   25CHL1    C4 1781   4.571   2.086  10.240  0.7816  0.1701 -0.1566
   25CHL1   H4A 1782   4.666   2.141  10.259 -0.2024  1.3619  1.6215
   25CHL1   H4B 1783   4.570   2.001  10.311 -1.5220  0.9753  0.8511
   25CHL1    C5 1784   4.563   2.039  10.091  0.3414  0.3382 -0.1696
   25CHL1    C6 1785   4.577   1.906  10.051  0.8354 -0.4800  0.3940
   25CHL1    H6 1786   4.601   1.829  10.126 -0.6784 -0.4686  0.9242
   25CHL1    C7 1787   4.575   1.861   9.911  0.4676  0.0453  0.1971
   25CHL1   H7A 1788   4.652   1.781   9.898 -0.7420 -1.4950  2.0074
   25CHL1   H7B 1789   4.475   1.816   9.898 -0.6273  2.2231  0.6446
   25CHL1    C8 1790   4.600   1.975   9.809  0.2606 -0.1755  0.7078
   25CHL1    H8 1791   4.707   2.005   9.800  1.5321 -4.1987  0.0718
   25CHL1   C14 1792   4.562   1.931   9.670  0.4899  0.1197 -0.3833
   25CHL1   H14 1793   4.457   1.894   9.673  0.7785 -0.7879 -0.9144
   25CHL1   C15 1794   4.641   1.811   9.607  0.4881 -0.9740 -0.7879
   25CHL1  H15A 1795   4.750   1.807   9.628  0.4452 -1.7739 -0.6919
   25CHL1  H15B 1796   4.604   1.709   9.631  1.9873 -1.1374  1.0575
   25CHL1   C16 1797   4.627   1.835   9.458 -0.3442 -0.1938 -0.2692
   25CHL1  H16A 1798   4.725   1.838   9.405  0.8005 -0.5497  1.7266
   25CHL1  H16B 1799   4.562   1.761   9.406 -0.1269 -0.1710 -0.5829
   25CHL1   C17 1800   4.538   1.965   9.441 -0.2488  0.2479 -0.2563
   25CHL1   H17 1801   4.435   1.924   9.455 -0.6606  1.6672  1.2147
   25CHL1   C13 1802   4.559   2.047   9.567  0.0168  0.5191 -0.8987
   25CHL1   C18 1803   4.689   2.120   9.559  0.2011 -0.2775 -0.0521
   25CHL1  H18A 1804   4.711   2.179   9.651  1.8871 -1.8283  0.5931
   25CHL1  H18B 1805   4.772   2.052   9.531  0.7277 -0.0638  0.9440
   25CHL1  H18C 1806   4.695   2.195   9.477 -2.0560 -0.1745 -0.2033
   25CHL1   C12 1807   4.437   2.135   9.608 -0.0983  0.3037  0.1749
   25CHL1  H12A 1808   4.428   2.220   9.537 -0.7478  1.0210  1.0828
   25CHL1  H12B 1809   4.347   2.070   9.603  0.6761 -0.7191 -0.9028
   25CHL1   C11 1810   4.460   2.202   9.741 -0.0121 -0.2873  0.6773
   25CHL1  H11A 1811   4.540   2.277   9.725 -1.0657  0.4686 -1.3697
   25CHL1  H11B 1812   4.368   2.256   9.770  0.3604  0.6187  0.2092
   25CHL1    C9 1813   4.501   2.092   9.845 -0.3078  0.3626 -0.7653
   25CHL1    H9 1814   4.404   2.042   9.866  0.4852 -0.1552  2.1621
   25CHL1   C10 1815   4.536   2.151   9.980  0.9562 -0.6501 -0.1448
   25CHL1   C19 1816   4.678   2.225   9.972 -0.5137 -0.0860  0.3317
   25CHL1  H19A 1817   4.687   2.307   9.898 -1.1002 -0.7539 -0.4897
   25CHL1  H19B 1818   4.694   2.274  10.071 -0.9162  2.3306 -0.7152
   25CHL1  H19C 1819   4.758   2.152   9.950 -0.1724 -0.4282  2.4824
   25CHL1    C1 1820   4.437   2.256  10.032 -0.4565  0.2715  0.0382
   25CHL1   H1A 1821   4.440   2.343   9.963 -0.2862  0.2004 -0.0433
   25CHL1   H1B 1822   4.344   2.197  10.015 -0.0586 -0.6801  1.0513
   25CHL1    C2 1823   4.458   2.300  10.182 -0.1164 -0.5138 -0.0313
   25CHL1   H2A 1824   4.385   2.380  10.208  0.2380 -0.2086  0.0354
   25CHL1   H2B 1825   4.554   2.354  10.199  1.0557 -1.8409 -2.0328
   25CHL1   C20 1826   4.537   2.043   9.312  0.5977  0.6912 -0.0618
   25CHL1   H20 1827   4.539   2.151   9.337 -0.2325  1.1795 -1.8899
   25CHL1   C21 1828   4.413   2.022   9.228  0.7854 -0.1275 -0.2199
   25CHL1  H21A 1829   4.411   1.913   9.204  0.6479  0.4434 -3.1012
   25CHL1  H21B 1830   4.424   2.077   9.132  0.0195 -2.2263 -1.5851
   25CHL1  H21C 1831   4.318   2.044   9.281 -0.2616 -0.1095 -2.0193
   25CHL1   C22 1832   4.665   2.019   9.223 -0.0532  0.6931 -0.2183
   25CHL1  H22A 1833   4.752   2.032   9.291 -0.1105 -0.6752  0.1498
   25CHL1  H22B 1834   4.667   1.912   9.192 -2.0035  1.0412 -1.7267
   25CHL1   C23 1835   4.681   2.094   9.082  0.0029 -0.1421  0.4229
   25CHL1  H23A 1836   4.591   2.092   9.017  0.4738  3.6330 -0.5937
   25CHL1  H23B 1837   4.720   2.197   9.091  2.8077 -0.9397 -1.3204
   25CHL1   C24 1838   4.800   2.036   9.006 -0.4359 -0.1819 -0.0277
   25CHL1  H24A 1839   4.896   2.034   9.061 -0.4110  0.8570 -0.0268
   25CHL1  H24B 1840   4.771   1.930   8.986 -1.0659  0.0248 -0.2283
   25CHL1   C25 1841   4.848   2.119   8.883  0.1585  0.7746  0.1127
   25CHL1   H25 1842   4.897   2.209   8.926 -0.0297  2.4867 -2.9965
   25CHL1   C26 1843   4.951   2.045   8.798 -0.1125 -0.3034  0.3315
   25CHL1  H26A 1844   5.008   1.983   8.871  0.6844 -0.8153 -0.6975
   25CHL1  H26B 1845   4.904   1.985   8.717 -0.3690  0.1220  0.1632
   25CHL1  H26C 1846   5.031   2.109   8.755 -0.2684  1.2961  2.2709
   25CHL1   C27 1847   4.732   2.182   8.797 -0.2275  0.3768  0.0954
   25CHL1  H27A 1848   4.678   2.096   8.750 -0.7349 -0.2748  1.8092
   25CHL1  H27B 1849   4.669   2.250   8.857 -1.0414 -1.6444  1.6806
   25CHL1  H27C 1850   4.776   2.248   8.719 -1.9103  0.4424 -0.8574
   26CHL1    C3 1851   5.184   0.991  10.212 -0.2215  0.1038  0.8590
   26CHL1    H3 1852   5.074   0.978  10.204  0.0036 -1.6929  0.0383
   26CHL1    O3 1853   5.234   0.987  10.346 -0.6383 -0.5974  0.3275
   26CHL1   H3' 1854   5.195   0.910  10.387 -2.1280 -1.0133 -1.7359
   26CHL1    C4 1855   5.246   0.873  10.129  0.5558 -0.7932  0.6000
   26CHL1   H4A 1856   5.357   0.874  10.123  0.5264 -0.7930 -0.0413
   26CHL1   H4B 1857   5.221   0.779  10.182  1.9472 -2.6973 -1.9147
   26CHL1    C5 1858   5.197   0.873   9.982 -0.2371 -0.0346 -0.3997
   26CHL1    C6 1859   5.144   0.761   9.929  0.1460  0.6531  0.3628
   26CHL1    H6 1860   5.141   0.669   9.990 -0.9458  0.5964  0.2345
   26CHL1    C7 1861   5.102   0.751   9.785  0.2403 -0.1211  0.0765
   26CHL1   H7A 1862   5.143   0.664   9.731 -0.6313 -1.3683  1.3272
   26CHL1   H7B 1863   4.991   0.747   9.785  0.2650 -0.9751  0.2173
   26CHL1    C8 1864   5.144   0.869   9.698 -0.5239 -0.1161  0.8177
   26CHL1    H8 1865   5.251   0.846   9.678 -1.0917 -1.7031 -0.6264
   26CHL1   C14 1866   5.069   0.865   9.565  0.5725  0.5707 -0.0012
   26CHL1   H14 1867   4.964   0.885   9.598  0.0785 -1.0880 -0.4817
   26CHL1   C15 1868   5.071   0.736   9.492  0.1350  0.0300  1.1251
   26CHL1  H15A 1869   5.177   0.706   9.479 -0.4046 -1.6495  0.3755
   26CHL1  H15B 1870   5.010   0.648   9.521 -0.8947 -0.1305 -1.3363
   26CHL1   C16 1871   5.025   0.787   9.347  0.1105  0.1785  0.0569
   26CHL1  H16A 1872   5.088   0.746   9.266 -1.0616 -2.6760  0.4500
   26CHL1  H16B 1873   4.926   0.751   9.310 -0.2822  0.6455  0.6195
   26CHL1   C17 1874   5.012   0.946   9.355  0.3678 -0.1312  0.6171
   26CHL1   H17 1875   4.914   0.977   9.395 -0.8173 -1.2525 -1.2456
   26CHL1   C13 1876   5.109   0.975   9.469  0.7685 -0.8465 -0.3186
   26CHL1   C18 1877   5.257   0.966   9.427  1.1980 -0.2313  0.0051
   26CHL1  H18A 1878   5.328   0.961   9.513  0.4789 -1.0416  0.5774
   26CHL1  H18B 1879   5.273   0.868   9.378 -1.4945 -0.4700 -0.5262
   26CHL1  H18C 1880   5.280   1.062   9.376  1.0370  0.6511  1.5390
   26CHL1   C12 1881   5.078   1.108   9.543 -0.0995 -0.2198 -0.7999
   26CHL1  H12A 1882   5.087   1.201   9.483 -1.5514  0.3672 -0.1486
   26CHL1  H12B 1883   4.971   1.106   9.574 -0.4003 -1.5120 -1.8364
   26CHL1   C11 1884   5.161   1.116   9.669 -0.0882  0.2623 -0.7632
   26CHL1  H11A 1885   5.269   1.117   9.645  0.1743  0.3098  0.3599
   26CHL1  H11B 1886   5.152   1.218   9.713 -0.4046  0.1739 -0.6199
   26CHL1    C9 1887   5.127   1.001   9.772  0.4275  0.2600  0.0528
   26CHL1    H9 1888   5.019   1.009   9.798  0.5556  1.9286  0.2062
   26CHL1   C10 1889   5.211   1.000   9.906  0.1039 -0.9688 -0.5676
   26CHL1   C19 1890   5.362   1.011   9.869  0.1085  0.2715 -0.5078
   26CHL1  H19A 1891   5.417   1.011   9.966 -2.4908 -0.2301  1.0819
   26CHL1  H19B 1892   5.400   0.925   9.809 -1.5726 -0.2690 -0.8503
   26CHL1  H19C 1893   5.392   1.106   9.821  2.0998 -1.0877 -2.1259
   26CHL1    C1 1894   5.166   1.125   9.992  0.1095 -0.6255 -0.0049
   26CHL1   H1A 1895   5.188   1.218   9.935  0.4998 -0.4517  0.4160
   26CHL1   H1B 1896   5.055   1.116   9.993 -0.0197  0.8030  0.1548
   26CHL1    C2 1897   5.234   1.123  10.137 -0.8552 -0.3486  0.3896
   26CHL1   H2A 1898   5.194   1.203  10.202 -0.7996 -1.4951  1.8997
   26CHL1   H2B 1899   5.344   1.132  10.140 -0.8909 -0.0835  2.5610
   26CHL1   C20 1900   5.020   1.015   9.216  0.0656 -0.9637  0.9289
   26CHL1   H20 1901   5.123   0.997   9.179 -0.0612  2.5302 -1.5997
   26CHL1   C21 1902   4.982   1.167   9.219 -0.5342 -0.5817  0.0611
   26CHL1  H21A 1903   4.876   1.178   9.251 -0.4251  1.7242 -0.2495
   26CHL1  H21B 1904   4.988   1.212   9.117 -1.9916 -1.8586 -0.6390
   26CHL1  H21C 1905   5.057   1.222   9.279  2.3884 -2.5208 -1.5175
   26CHL1   C22 1906   4.927   0.951   9.110  0.2837  0.5873  0.5001
   26CHL1  H22A 1907   4.945   0.843   9.129  1.1480  0.9062  1.6470
   26CHL1  H22B 1908   4.825   0.977   9.145 -0.3162 -1.2427  0.2183
   26CHL1   C23 1909   4.946   0.982   8.965  0.4407  0.3490  0.3263
   26CHL1  H23A 1910   4.905   1.085   8.956 -0.6396  0.2888  3.3777
   26CHL1  H23B 1911   5.054   0.980   8.940 -0.0895  0.3146 -2.1874
   26CHL1   C24 1912   4.864   0.900   8.870 -0.9772 -0.1021  0.9069
   26CHL1  H24A 1913   4.906   0.799   8.851 -2.2867 -0.2843 -1.4089
   26CHL1  H24B 1914   4.762   0.894   8.914 -0.9046  0.2662  1.1245
   26CHL1   C25 1915   4.846   0.954   8.718  0.0546  1.0063  0.3080
   26CHL1   H25 1916   4.834   1.064   8.721  0.0443  1.0507 -0.8961
   26CHL1   C26 1917   4.968   0.922   8.630 -0.7910  0.7222 -0.2996
   26CHL1  H26A 1918   5.062   0.946   8.684 -0.9439  0.3918  0.1264
   26CHL1  H26B 1919   4.970   0.815   8.601 -2.6196  0.4669  0.3412
   26CHL1  H26C 1920   4.979   0.988   8.542  1.0671  0.3023 -0.4199
   26CHL1   C27 1921   4.717   0.897   8.657 -0.3972 -0.1118 -0.3645
   26CHL1  H27A 1922   4.716   0.932   8.552  1.9965 -0.2223 -0.4841
   26CHL1  H27B 1923   4.706   0.787   8.659  0.6213 -0.2286  1.5095
   26CHL1  H27C 1924   4.624   0.934   8.705 -0.5002 -1.4977  0.5452
   27CHL1    C3 1925   4.896   3.065  10.346 -0.1384  0.1209 -0.1159
   27CHL1    H3 1926   4.881   2.955  10.350 -1.9416  0.3056 -1.1125
   27CHL1    O3 1927   4.874   3.122  10.476  0.4377  0.2175  0.2108
   27CHL1   H3' 1928   4.872   3.217  10.459 -2.5803  0.2404  0.1180
   27CHL1    C4 1929   5.028   3.111  10.288 -0.5977 -0.4405  0.4402
   27CHL1   H4A 1930   5.034   3.222  10.290  1.0219 -0.4960  0.5004
   27CHL1   H4B 1931   5.103   3.082  10.365  0.9364  2.9338  0.4037
   27CHL1    C5 1932   5.052   3.058  10.151  0.8194 -1.1751 -0.5556
   27CHL1    C6 1933   5.163   2.993  10.116 -0.3009 -0.5861  0.0806
   27CHL1    H6 1934   5.236   2.965  10.193 -0.3337 -0.2401  0.2367
   27CHL1    C7 1935   5.189   2.954   9.976 -0.0480  1.1559  0.3824
   27CHL1   H7A 1936   5.296   2.980   9.958  1.1723 -1.6472  2.8147
   27CHL1   H7B 1937   5.189   2.844   9.960  0.0567  1.5206 -2.7176
   27CHL1    C8 1938   5.090   3.011   9.870  0.5011  0.2715  0.0430
   27CHL1    H8 1939   5.128   3.115   9.855 -0.3147  0.3715 -1.6311
   27CHL1   C14 1940   5.097   2.928   9.741 -0.1610 -0.7638 -0.8414
   27CHL1   H14 1941   5.056   2.830   9.771 -0.5715 -0.7622 -1.3708
   27CHL1   C15 1942   5.244   2.911   9.692  0.1447 -0.0055 -0.7531
   27CHL1  H15A 1943   5.308   3.001   9.702 -0.0004  0.1578 -1.2367
   27CHL1  H15B 1944   5.289   2.831   9.753 -0.3126 -0.0083 -0.4114
   27CHL1   C16 1945   5.212   2.870   9.548 -1.0586 -0.6464 -0.4575
   27CHL1  H16A 1946   5.269   2.939   9.482 -2.9853  0.4419 -1.0599
   27CHL1  H16B 1947   5.253   2.768   9.534  1.9233  0.1156  1.6297
   27CHL1   C17 1948   5.057   2.882   9.520 -0.6926  1.0262  0.1508
   27CHL1   H17 1949   5.020   2.781   9.546  3.0921 -1.2015 -2.1623
   27CHL1   C13 1950   5.010   2.978   9.627 -0.1445  0.4142  0.8595
   27CHL1   C18 1951   5.045   3.118   9.593  0.1605 -0.0661  0.1929
   27CHL1  H18A 1952   5.152   3.125   9.565 -0.1249  1.1433 -0.6438
   27CHL1  H18B 1953   4.985   3.166   9.513  0.7922  1.9864  0.9029
   27CHL1  H18C 1954   5.028   3.184   9.681  1.1440  1.4473 -0.7146
   27CHL1   C12 1955   4.861   2.978   9.676 -0.3183  0.1581 -0.4806
   27CHL1  H12A 1956   4.792   3.022   9.601 -2.6067 -0.3253  1.2389
   27CHL1  H12B 1957   4.827   2.875   9.699  2.5247 -0.3201  2.2291
   27CHL1   C11 1958   4.842   3.047   9.810  0.3545 -0.0603  0.0103
   27CHL1  H11A 1959   4.846   3.158   9.797 -0.7309  0.3224  2.5193
   27CHL1  H11B 1960   4.739   3.024   9.843  0.7629 -1.5497  0.3042
   27CHL1    C9 1961   4.943   3.014   9.921  0.5810  0.5855  0.0261
   27CHL1    H9 1962   4.913   2.911   9.952 -1.6810  1.3688  0.5883
   27CHL1   C10 1963   4.927   3.093  10.050  0.5374  0.9564 -0.6406
   27CHL1   C19 1964   4.922   3.247  10.020 -0.6065  0.3034  0.1943
   27CHL1  H19A 1965   5.007   3.283   9.958 -0.7997 -0.0478 -0.2818
   27CHL1  H19B 1966   4.839   3.270   9.950  0.8008 -0.9754 -2.0194
   27CHL1  H19C 1967   4.897   3.294  10.118 -1.4343 -1.3483  0.8069
   27CHL1    C1 1968   4.790   3.064  10.118 -0.5532 -0.5069 -0.2061
   27CHL1   H1A 1969   4.706   3.098  10.053 -2.0007  0.0758  1.8500
   27CHL1   H1B 1970   4.780   2.955  10.136  0.2350 -0.3222  1.5750
   27CHL1    C2 1971   4.785   3.123  10.263 -0.4989  0.0802  0.4589
   27CHL1   H2A 1972   4.687   3.082  10.298 -0.8879  1.6135  1.2491
   27CHL1   H2B 1973   4.783   3.233  10.258  0.6857  0.0725 -3.1802
   27CHL1   C20 1974   5.037   2.906   9.371  0.3101 -0.3614 -0.3355
   27CHL1   H20 1975   5.082   3.005   9.349 -0.2608 -0.5415 -2.5276
   27CHL1   C21 1976   4.890   2.922   9.326 -0.1871 -0.1812 -0.6489
   27CHL1  H21A 1977   4.868   2.943   9.219 -1.8436 -0.2389 -0.3518
   27CHL1  H21B 1978   4.837   3.007   9.376 -0.5487 -0.8236  0.0869
   27CHL1  H21C 1979   4.835   2.829   9.352 -0.1770  0.5836  2.5139
   27CHL1   C22 1980   5.112   2.806   9.282  0.4966  0.6406 -0.2453
   27CHL1  H22A 1981   5.219   2.800   9.311  0.3826 -2.0553 -0.1145
   27CHL1  H22B 1982   5.064   2.707   9.299 -0.3584  1.2758  1.2734
   27CHL1   C23 1983   5.119   2.841   9.135 -0.2491 -0.0989 -0.4444
   27CHL1  H23A 1984   5.177   2.757   9.091 -0.0321  0.0422 -0.4280
   27CHL1  H23B 1985   5.018   2.845   9.088 -0.5017 -0.5663  0.0403
   27CHL1   C24 1986   5.184   2.975   9.093 -0.1153 -1.5036  0.2792
   27CHL1  H24A 1987   5.153   3.061   9.154  1.8565  0.3286 -1.1301
   27CHL1  H24B 1988   5.294   2.978   9.108  0.0456  0.3475 -0.9314
   27CHL1   C25 1989   5.169   3.011   8.938 -0.9622  0.0491  0.1584
   27CHL1   H25 1990   5.058   3.014   8.925 -1.2946  0.0666  2.5517
   27CHL1   C26 1991   5.226   3.149   8.904 -0.4484 -0.2803  0.6775
   27CHL1  H26A 1992   5.330   3.147   8.941  0.5210 -1.6668 -1.8291
   27CHL1  H26B 1993   5.233   3.173   8.795 -0.9460  1.7427  1.0523
   27CHL1  H26C 1994   5.170   3.218   8.970 -2.1483 -2.5901  1.8111
   27CHL1   C27 1995   5.208   2.897   8.838 -0.1953 -0.4140 -0.1818
   27CHL1  H27A 1996   5.158   2.800   8.857  1.4075 -1.0534  0.9376
   27CHL1  H27B 1997   5.169   2.932   8.740 -2.3326  2.0773  1.4093
   27CHL1  H27C 1998   5.319   2.892   8.833  0.1208  3.7482 -0.6496
   28CHL1    C3 1999   2.473   1.576   9.791 -0.1535 -0.4542 -0.1678
   28CHL1    H3 2000   2.426   1.483   9.752 -2.4314  0.9105 -0.8398
   28CHL1    O3 2001   2.524   1.556   9.923 -0.0929 -0.5256  0.7570
   28CHL1   H3' 2002   2.533   1.637   9.974 -1.5373 -0.2845  0.6881
   28CHL1    C4 2003   2.596   1.617   9.710  0.0512  0.2295 -0.1322
   28CHL1   H4A 2004   2.636   1.712   9.752  1.1837  0.0174 -0.7121
   28CHL1   H4B 2005   2.680   1.544   9.714  0.9809  1.3281  1.7524
   28CHL1    C5 2006   2.558   1.647   9.567  0.4983 -0.6765 -0.3426
   28CHL1    C6 2007   2.626   1.598   9.458  0.2469  0.6566  0.4877
   28CHL1    H6 2008   2.713   1.535   9.481 -0.1316  0.0990  0.4201
   28CHL1    C7 2009   2.602   1.643   9.317 -0.2698  0.3247 -0.7962
   28CHL1   H7A 2010   2.696   1.672   9.266 -0.5038  0.9132 -0.8954
   28CHL1   H7B 2011   2.570   1.550   9.266 -1.0248 -0.0721  0.3524
   28CHL1    C8 2012   2.489   1.752   9.288 -0.3880  0.7734  0.0286
   28CHL1    H8 2013   2.549   1.845   9.294  2.7829 -1.0966 -0.2236
   28CHL1   C14 2014   2.428   1.737   9.148 -0.7728 -0.3766  0.2211
   28CHL1   H14 2015   2.371   1.644   9.173 -0.4675 -0.0672  2.2850
   28CHL1   C15 2016   2.514   1.702   9.026  0.4784 -0.2760  0.0053
   28CHL1  H15A 2017   2.606   1.764   9.017  0.2993  0.0865  0.5832
   28CHL1  H15B 2018   2.533   1.592   9.025  0.3472 -0.2970 -0.3065
   28CHL1   C16 2019   2.419   1.743   8.905 -0.1966  0.0208 -0.0285
   28CHL1  H16A 2020   2.464   1.816   8.835 -0.3098 -0.0087 -0.1298
   28CHL1  H16B 2021   2.396   1.661   8.835 -1.0096  0.7021 -0.5699
   28CHL1   C17 2022   2.289   1.797   8.972 -0.5876 -0.0899 -0.4374
   28CHL1   H17 2023   2.233   1.703   8.984 -0.1997 -0.1612  1.0791
   28CHL1   C13 2024   2.329   1.846   9.114  0.5260 -0.8419 -0.0759
   28CHL1   C18 2025   2.401   1.980   9.105 -0.2207 -0.0258  0.5774
   28CHL1  H18A 2026   2.323   2.053   9.074 -2.5925 -1.3320  3.0229
   28CHL1  H18B 2027   2.449   2.020   9.196 -2.8895  0.5776  1.8312
   28CHL1  H18C 2028   2.473   1.971   9.021  0.7528  0.4945  1.3452
   28CHL1   C12 2029   2.213   1.843   9.224 -0.5462 -0.0242  0.2233
   28CHL1  H12A 2030   2.159   1.938   9.208  0.7899  0.2741 -3.7433
   28CHL1  H12B 2031   2.144   1.757   9.211 -0.8624 -0.4544  3.7820
   28CHL1   C11 2032   2.282   1.855   9.361  0.4248 -0.3590 -0.7133
   28CHL1  H11A 2033   2.330   1.954   9.375 -0.4724  0.0360 -0.3558
   28CHL1  H11B 2034   2.202   1.848   9.438 -0.3682  0.8413 -1.3967
   28CHL1    C9 2035   2.383   1.754   9.391 -0.4811  0.0456 -0.0335
   28CHL1    H9 2036   2.326   1.659   9.387 -1.0082  0.2252  1.8586
   28CHL1   C10 2037   2.442   1.748   9.538  0.3917  0.7810  0.3942
   28CHL1   C19 2038   2.493   1.895   9.570  0.1327  1.0231 -0.4011
   28CHL1  H19A 2039   2.536   1.912   9.671 -0.1746  0.3754 -0.1555
   28CHL1  H19B 2040   2.560   1.934   9.490  1.5991  3.3014  1.7921
   28CHL1  H19C 2041   2.401   1.957   9.570 -0.2699  0.4319  0.2455
   28CHL1    C1 2042   2.321   1.708   9.637 -0.1155  0.4335  0.8525
   28CHL1   H1A 2043   2.245   1.788   9.628  1.5808  2.2948  2.1458
   28CHL1   H1B 2044   2.283   1.613   9.593  0.4205  1.2312 -1.4846
   28CHL1    C2 2045   2.366   1.687   9.781  0.1070  0.4564 -0.8750
   28CHL1   H2A 2046   2.270   1.662   9.831  1.0789 -0.5204  0.5808
   28CHL1   H2B 2047   2.401   1.782   9.826 -1.6808  0.5892  0.3263
   28CHL1   C20 2048   2.199   1.888   8.889 -0.4202  0.5906  0.0490
   28CHL1   H20 2049   2.249   1.987   8.882 -0.5117  0.6641  0.4196
   28CHL1   C21 2050   2.055   1.902   8.940  0.0435 -0.0557  0.0506
   28CHL1  H21A 2051   2.012   1.804   8.971 -0.4139  0.8937  2.5984
   28CHL1  H21B 2052   1.996   1.965   8.870  1.7617  1.9020  0.2706
   28CHL1  H21C 2053   2.060   1.962   9.033  0.5802  1.9896 -1.2464
   28CHL1   C22 2054   2.195   1.848   8.737  0.5418 -0.3347 -0.8166
   28CHL1  H22A 2055   2.130   1.921   8.684 -1.1585 -1.3158 -0.1628
   28CHL1  H22B 2056   2.294   1.853   8.688  1.2163 -1.9117  0.2893
   28CHL1   C23 2057   2.125   1.715   8.716 -0.0097 -0.5351  0.6798
   28CHL1  H23A 2058   2.186   1.639   8.770  2.1473  0.2733 -0.4591
   28CHL1  H23B 2059   2.028   1.713   8.769 -1.5704  2.6288 -1.7666
   28CHL1   C24 2060   2.103   1.665   8.574 -0.1588 -0.3633  0.5395
   28CHL1  H24A 2061   2.043   1.744   8.525 -1.4337 -1.7159 -0.1820
   28CHL1  H24B 2062   2.197   1.650   8.516 -0.6072  0.3574 -0.3929
   28CHL1   C25 2063   2.028   1.531   8.555 -0.3821  0.0340 -0.7944
   28CHL1   H25 2064   1.918   1.538   8.572 -0.0751 -0.7491  1.8627
   28CHL1   C26 2065   2.029   1.477   8.411  0.4069  0.7832  0.0917
   28CHL1  H26A 2066   2.132   1.456   8.375 -0.4900 -2.6837 -0.8253
   28CHL1  H26B 2067   1.984   1.375   8.412  0.0430  0.9058 -1.6440
   28CHL1  H26C 2068   1.979   1.547   8.341 -1.7033 -0.1388  0.5872
   28CHL1   C27 2069   2.078   1.426   8.658  0.6416 -0.0185 -0.1172
   28CHL1  H27A 2070   2.030   1.437   8.758 -0.0431  1.0542 -0.5435
   28CHL1  H27B 2071   2.059   1.328   8.609 -0.9819  1.3661 -2.4536
   28CHL1  H27C 2072   2.186   1.445   8.671  0.5361  2.0686 -1.7861
   29CHL1    C3 2073   5.695   6.216   6.737 -0.2352  0.0456 -0.3216
   29CHL1    H3 2074   5.693   6.113   6.778  2.1155 -0.3466 -1.0527
   29CHL1    O3 2075   5.714   6.207   6.594 -0.0717  0.6078  0.6216
   29CHL1   H3' 2076   5.703   6.294   6.556 -1.5596  0.2282  0.1153
   29CHL1    C4 2077   5.571   6.296   6.769  0.4943 -0.7106 -0.0102
   29CHL1   H4A 2078   5.574   6.395   6.718 -0.9492 -1.3190 -1.3525
   29CHL1   H4B 2079   5.486   6.247   6.717 -0.9612 -1.7431  3.0611
   29CHL1    C5 2080   5.552   6.301   6.920  0.1180 -0.0229  0.4364
   29CHL1    C6 2081   5.446   6.251   6.985  0.9245  0.4316 -0.1849
   29CHL1    H6 2082   5.367   6.198   6.931  1.2240 -0.6551  0.4197
   29CHL1    C7 2083   5.416   6.284   7.130 -0.0194  0.3074  0.7215
   29CHL1   H7A 2084   5.311   6.317   7.146 -0.1664  1.1953 -1.6656
   29CHL1   H7B 2085   5.415   6.189   7.187 -0.9668  0.2467  0.6295
   29CHL1    C8 2086   5.509   6.386   7.202 -0.1407  0.1977 -0.1949
   29CHL1    H8 2087   5.473   6.485   7.168  1.2383  1.0263  0.6490
   29CHL1   C14 2088   5.502   6.373   7.350 -0.4128 -0.8527  0.0251
   29CHL1   H14 2089   5.536   6.272   7.382 -0.0929  0.1593  3.1837
   29CHL1   C15 2090   5.362   6.399   7.412 -0.8577  0.1775 -0.1650
   29CHL1  H15A 2091   5.327   6.487   7.353 -1.1468 -0.4305 -0.9144
   29CHL1  H15B 2092   5.293   6.317   7.384 -1.3164  0.7554 -0.7735
   29CHL1   C16 2093   5.385   6.441   7.562  0.0246 -0.3932 -0.1441
   29CHL1  H16A 2094   5.334   6.539   7.569 -1.2411 -1.1138  1.2050
   29CHL1  H16B 2095   5.353   6.368   7.639  1.1852 -0.8611 -0.0824
   29CHL1   C17 2096   5.546   6.448   7.567  0.0205 -0.7141  0.3269
   29CHL1   H17 2097   5.591   6.351   7.596 -0.4093 -1.4323 -1.2941
   29CHL1   C13 2098   5.595   6.465   7.425 -0.1562 -0.5057 -0.7631
   29CHL1   C18 2099   5.566   6.610   7.381 -0.0265 -0.0383 -0.0606
   29CHL1  H18A 2100   5.468   6.647   7.419  1.5599  0.3369  4.2358
   29CHL1  H18B 2101   5.645   6.675   7.424 -0.3097 -0.0526  0.4944
   29CHL1  H18C 2102   5.564   6.627   7.272 -0.8076  0.3607  0.0102
   29CHL1   C12 2103   5.740   6.423   7.387  0.1037  0.1160  0.2089
   29CHL1  H12A 2104   5.811   6.492   7.439  1.3789 -0.4635 -0.7085
   29CHL1  H12B 2105   5.774   6.324   7.424 -1.8365 -0.8662 -0.5533
   29CHL1   C11 2106   5.761   6.440   7.232  0.1192  0.1857  0.4419
   29CHL1  H11A 2107   5.747   6.549   7.214 -0.8943 -0.3645 -2.6603
   29CHL1  H11B 2108   5.867   6.419   7.208  0.3156  2.2770 -0.7923
   29CHL1    C9 2109   5.653   6.361   7.151 -0.0380  0.3654 -0.5638
   29CHL1    H9 2110   5.682   6.257   7.177  2.0701  1.1700  0.5229
   29CHL1   C10 2111   5.663   6.372   6.992 -0.0805  0.3245  0.7955
   29CHL1   C19 2112   5.676   6.517   6.953 -0.0817 -0.0823  0.5377
   29CHL1  H19A 2113   5.582   6.574   6.967  0.7256  1.1542  1.0859
   29CHL1  H19B 2114   5.753   6.556   7.023  0.5770 -1.9458  0.9159
   29CHL1  H19C 2115   5.716   6.530   6.851 -1.3617 -0.6984 -0.0614
   29CHL1    C1 2116   5.800   6.306   6.951 -1.1833  0.4874  0.6616
   29CHL1   H1A 2117   5.889   6.364   6.982 -0.8417 -0.4622  1.5188
   29CHL1   H1B 2118   5.807   6.205   6.997  0.7189  0.4236  0.3295
   29CHL1    C2 2119   5.820   6.278   6.798  0.4520 -0.1160 -0.2982
   29CHL1   H2A 2120   5.906   6.212   6.774 -0.8371 -3.1020  2.5858
   29CHL1   H2B 2121   5.814   6.381   6.757 -1.3557  0.2951  0.8910
   29CHL1   C20 2122   5.606   6.546   7.675 -1.0182  0.1515 -0.4179
   29CHL1   H20 2123   5.707   6.573   7.639 -0.2416 -0.5565  1.1348
   29CHL1   C21 2124   5.641   6.460   7.809  0.6167 -0.7112  1.2398
   29CHL1  H21A 2125   5.555   6.395   7.834 -2.4758  2.1173 -1.0592
   29CHL1  H21B 2126   5.673   6.515   7.900  1.8828 -0.4097  0.6391
   29CHL1  H21C 2127   5.729   6.396   7.785 -0.2686 -0.7797 -2.4254
   29CHL1   C22 2128   5.525   6.678   7.710  0.7519  0.0478 -0.6226
   29CHL1  H22A 2129   5.527   6.742   7.620 -2.6483 -1.2114 -1.7550
   29CHL1  H22B 2130   5.420   6.651   7.736  1.3343 -1.2167  0.5258
   29CHL1   C23 2131   5.583   6.764   7.828  0.1210 -0.1538 -0.1630
   29CHL1  H23A 2132   5.588   6.717   7.929 -0.3054  2.7599  1.3102
   29CHL1  H23B 2133   5.688   6.789   7.803  0.3745 -0.2154  0.7973
   29CHL1   C24 2134   5.509   6.893   7.842  0.4627  0.3303 -0.5928
   29CHL1  H24A 2135   5.537   6.948   7.749  1.0006 -1.4230 -1.5220
   29CHL1  H24B 2136   5.400   6.879   7.861  0.7302  0.0673  0.7961
   29CHL1   C25 2137   5.568   6.991   7.955 -0.5201 -0.6499 -0.0089
   29CHL1   H25 2138   5.671   7.024   7.931 -0.4779  0.9033  2.0389
   29CHL1   C26 2139   5.484   7.119   7.931  0.1512  0.4810  0.1060
   29CHL1  H26A 2140   5.501   7.153   7.826  0.5228 -0.0704 -0.0174
   29CHL1  H26B 2141   5.377   7.095   7.951 -0.2974  0.5299 -1.9993
   29CHL1  H26C 2142   5.511   7.198   8.004 -1.0032  0.6258  0.3905
   29CHL1   C27 2143   5.543   6.940   8.099  0.0611 -0.3974 -0.4407
   29CHL1  H27A 2144   5.581   7.014   8.172  0.1968 -1.9795  1.1527
   29CHL1  H27B 2145   5.439   6.915   8.129  0.0450  2.0244  1.8420
   29CHL1  H27C 2146   5.598   6.843   8.104 -0.3377 -0.5938  0.2127
   30CHL1    C3 2147   4.532   3.267   7.255  0.4754 -0.2120 -0.0545
   30CHL1    H3 2148   4.625   3.319   7.287  0.9977  0.2930 -2.2250
   30CHL1    O3 2149   4.525   3.277   7.115  0.0236 -0.3124 -0.0875
   30CHL1   H3' 2150   4.432   3.264   7.093  0.0207 -1.2688  0.4383
   30CHL1    C4 2151   4.525   3.127   7.305 -0.1524  0.3928  0.3023
   30CHL1   H4A 2152   4.436   3.069   7.274  0.9170 -0.9183 -0.4425
   30CHL1   H4B 2153   4.610   3.071   7.261  1.2209  0.4221  2.7171
   30CHL1    C5 2154   4.538   3.106   7.452  0.1623 -0.2266 -0.2409
   30CHL1    C6 2155   4.628   3.026   7.507 -0.1137  0.2390 -0.5327
   30CHL1    H6 2156   4.702   2.984   7.438  2.3522  2.6969  0.3850
   30CHL1    C7 2157   4.643   2.990   7.652  0.1632  0.3862 -0.8755
   30CHL1   H7A 2158   4.638   2.879   7.663 -1.2960  0.5044 -0.0754
   30CHL1   H7B 2159   4.744   3.017   7.690 -0.0309 -1.4005  1.1277
   30CHL1    C8 2160   4.522   3.049   7.732  0.0232  0.3756 -1.3383
   30CHL1    H8 2161   4.433   2.984   7.723 -1.2545  1.6318  1.3522
   30CHL1   C14 2162   4.570   3.049   7.876  0.0974 -0.0209  0.0519
   30CHL1   H14 2163   4.661   3.112   7.886  0.3030 -0.5452  1.9104
   30CHL1   C15 2164   4.626   2.920   7.939  0.6387  0.6241 -0.7415
   30CHL1  H15A 2165   4.564   2.829   7.939  0.9413  0.4155 -0.6052
   30CHL1  H15B 2166   4.733   2.901   7.917  1.0746  0.4463  1.2940
   30CHL1   C16 2167   4.621   2.958   8.095 -0.1865 -0.0401 -0.6129
   30CHL1  H16A 2168   4.575   2.875   8.152  2.4400 -0.4106  1.1317
   30CHL1  H16B 2169   4.712   2.989   8.151 -1.7890  3.0501  0.5103
   30CHL1   C17 2170   4.527   3.088   8.110 -0.4528 -0.6283  1.0460
   30CHL1   H17 2171   4.592   3.178   8.121 -1.3446 -0.0530  1.6837
   30CHL1   C13 2172   4.454   3.106   7.968  0.2675  0.0266 -0.4996
   30CHL1   C18 2173   4.337   3.012   7.976  0.2419 -0.1046  0.2091
   30CHL1  H18A 2174   4.246   3.065   8.012 -0.1087  0.1108 -0.9422
   30CHL1  H18B 2175   4.301   2.972   7.879 -1.7463 -0.0205  0.8632
   30CHL1  H18C 2176   4.347   2.916   8.031  0.8286  0.1019  0.4668
   30CHL1   C12 2177   4.420   3.250   7.923 -0.3378 -0.0076  0.9995
   30CHL1  H12A 2178   4.348   3.305   7.986 -0.9575  0.3325  0.0138
   30CHL1  H12B 2179   4.518   3.303   7.927 -0.5778  0.6356 -0.7335
   30CHL1   C11 2180   4.375   3.261   7.778 -0.0997 -0.0853  0.1248
   30CHL1  H11A 2181   4.277   3.211   7.758 -1.2092  0.9660  2.5080
   30CHL1  H11B 2182   4.368   3.366   7.745  1.1264  0.5195  1.6902
   30CHL1    C9 2183   4.481   3.192   7.682  0.3442 -0.1375 -0.4412
   30CHL1    H9 2184   4.568   3.260   7.700 -1.4922  1.6954  2.2694
   30CHL1   C10 2185   4.436   3.190   7.533  0.0980 -0.0931  0.9939
   30CHL1   C19 2186   4.302   3.116   7.516  0.1653  0.3711  0.0010
   30CHL1  H19A 2187   4.212   3.173   7.546 -1.3345 -1.7057 -0.3678
   30CHL1  H19B 2188   4.270   3.096   7.412 -0.0282  0.7023 -0.0057
   30CHL1  H19C 2189   4.305   3.022   7.575 -0.2631 -0.6631 -1.5698
   30CHL1    C1 2190   4.420   3.333   7.474  0.9674  0.7099 -0.0943
   30CHL1   H1A 2191   4.324   3.382   7.504  0.9447  0.6307 -0.0387
   30CHL1   H1B 2192   4.509   3.390   7.507  1.2546 -0.7601  1.8475
   30CHL1    C2 2193   4.415   3.341   7.322 -0.9988  0.1742  0.2909
   30CHL1   H2A 2194   4.408   3.446   7.287  0.8346  0.3975  0.4515
   30CHL1   H2B 2195   4.320   3.293   7.291  0.2879 -1.7154 -0.9775
   30CHL1   C20 2196   4.438   3.106   8.240  0.1855 -0.7788  0.2027
   30CHL1   H20 2197   4.374   3.015   8.244  0.7392 -1.1156  2.1548
   30CHL1   C21 2198   4.352   3.235   8.242  0.2520  0.1467  0.3116
   30CHL1  H21A 2199   4.319   3.271   8.342  0.9375  1.3167  0.1323
   30CHL1  H21B 2200   4.261   3.207   8.185  0.3608 -2.8104  1.4147
   30CHL1  H21C 2201   4.407   3.325   8.208 -0.5853  0.5496  0.0106
   30CHL1   C22 2202   4.526   3.107   8.367 -0.0959 -0.2617 -0.0302
   30CHL1  H22A 2203   4.597   3.022   8.358 -1.3024 -1.1239 -2.4394
   30CHL1  H22B 2204   4.589   3.197   8.375 -0.1990 -0.2546  0.7069
   30CHL1   C23 2205   4.448   3.083   8.498  0.4719 -0.1074  0.3585
   30CHL1  H23A 2206   4.386   3.173   8.518  3.8953  2.4314  0.5305
   30CHL1  H23B 2207   4.393   2.988   8.484  0.9226 -0.0466 -2.5988
   30CHL1   C24 2208   4.539   3.076   8.620 -0.5102  0.1452 -0.7531
   30CHL1  H24A 2209   4.614   2.996   8.604 -1.9743 -1.1133 -1.6247
   30CHL1  H24B 2210   4.584   3.176   8.636 -1.0029  0.4121 -1.0112
   30CHL1   C25 2211   4.475   3.024   8.753  0.0029 -1.3960  0.0144
   30CHL1   H25 2212   4.390   3.093   8.774  0.6000 -0.9469  1.0548
   30CHL1   C26 2213   4.431   2.881   8.752  0.2089 -0.5966  0.8745
   30CHL1  H26A 2214   4.373   2.869   8.846 -0.8320  0.5887  0.4111
   30CHL1  H26B 2215   4.361   2.862   8.667  0.2144 -0.0046  0.7339
   30CHL1  H26C 2216   4.522   2.817   8.745 -0.8731 -2.0823 -0.4486
   30CHL1   C27 2217   4.565   3.046   8.879  0.6346 -0.3444  0.6302
   30CHL1  H27A 2218   4.579   3.154   8.898 -1.5782 -0.0139  0.5783
   30CHL1  H27B 2219   4.508   2.994   8.959 -2.7669  1.7323 -0.2183
   30CHL1  H27C 2220   4.665   3.001   8.859  0.2803 -0.6056 -0.6296
   31CHL1    C3 2221   3.559   5.803   6.935 -0.3337 -0.2520  0.1946
   31CHL1    H3 2222   3.649   5.869   6.931  2.1046 -3.2294  1.8178
   31CHL1    O3 2223   3.531   5.763   6.799  0.1754 -0.0008  0.3197
   31CHL1   H3' 2224   3.436   5.748   6.788  0.3022 -0.9099  0.3709
   31CHL1    C4 2225   3.593   5.678   7.025  0.1256  0.0876 -0.6740
   31CHL1   H4A 2226   3.504   5.614   7.008 -0.0200 -0.0083  0.3829
   31CHL1   H4B 2227   3.685   5.621   6.999 -0.0862 -1.2232  1.1694
   31CHL1    C5 2228   3.599   5.718   7.181 -0.0172  0.0223  1.0011
   31CHL1    C6 2229   3.711   5.688   7.252 -0.1910 -0.4717  0.5845
   31CHL1    H6 2230   3.797   5.632   7.211  1.6182  0.1011  3.2964
   31CHL1    C7 2231   3.739   5.714   7.399  0.9368  0.4797 -0.1565
   31CHL1   H7A 2232   3.781   5.628   7.454  1.1430  0.9842  0.4854
   31CHL1   H7B 2233   3.806   5.801   7.415 -0.3530  1.4361  0.2518
   31CHL1    C8 2234   3.600   5.745   7.468 -0.0458 -0.5300 -0.3198
   31CHL1    H8 2235   3.544   5.649   7.473 -1.8897  0.4913 -0.6408
   31CHL1   C14 2236   3.627   5.811   7.606 -0.2575 -0.0238  0.2625
   31CHL1   H14 2237   3.684   5.905   7.596 -0.2446 -0.0366  0.2150
   31CHL1   C15 2238   3.718   5.739   7.705  0.9746  0.1417  0.4019
   31CHL1  H15A 2239   3.687   5.632   7.713  0.2442  0.1729 -1.4500
   31CHL1  H15B 2240   3.826   5.735   7.680  1.1211 -4.1987  0.8812
   31CHL1   C16 2241   3.700   5.803   7.839  0.3039  0.0825 -0.4831
   31CHL1  H16A 2242   3.667   5.723   7.909 -0.3659 -0.2299 -1.1368
   31CHL1  H16B 2243   3.799   5.841   7.873  0.9572 -1.8003 -0.1373
   31CHL1   C17 2244   3.581   5.906   7.813  0.2339 -0.8411  0.5876
   31CHL1   H17 2245   3.642   5.997   7.794 -2.2936  0.6340 -1.0837
   31CHL1   C13 2246   3.507   5.861   7.684  0.1202 -0.0113 -0.8466
   31CHL1   C18 2247   3.420   5.733   7.719  0.9238 -0.0850 -0.8699
   31CHL1  H18A 2248   3.337   5.776   7.779  1.9064  2.0852 -0.9565
   31CHL1  H18B 2249   3.380   5.685   7.627  1.6620  0.0244 -1.2613
   31CHL1  H18C 2250   3.473   5.656   7.779 -1.2468 -1.4326 -0.5770
   31CHL1   C12 2251   3.428   5.966   7.605  0.3997  0.5336  0.0024
   31CHL1  H12A 2252   3.334   6.003   7.652  0.4526 -1.6359  1.9509
   31CHL1  H12B 2253   3.489   6.058   7.590  1.3968  0.0357  0.9207
   31CHL1   C11 2254   3.392   5.916   7.460  0.1785  0.7205  0.1257
   31CHL1  H11A 2255   3.314   5.838   7.477 -0.4952  1.3203 -0.1563
   31CHL1  H11B 2256   3.346   5.998   7.401 -2.7030 -0.5488  0.4074
   31CHL1    C9 2257   3.515   5.846   7.384  0.0495  0.4367 -0.6074
   31CHL1    H9 2258   3.592   5.925   7.369 -1.6303  2.0493 -1.2080
   31CHL1   C10 2259   3.481   5.804   7.240 -0.3425  0.8495 -0.2477
   31CHL1   C19 2260   3.353   5.720   7.249 -0.2736 -0.0317 -0.2327
   31CHL1  H19A 2261   3.338   5.666   7.154 -0.3166  1.7747 -1.2960
   31CHL1  H19B 2262   3.347   5.638   7.323 -3.3061  0.2801 -0.0022
   31CHL1  H19C 2263   3.262   5.784   7.261  0.4140  0.7342  1.1920
   31CHL1    C1 2264   3.469   5.913   7.141  0.3774  0.8616 -0.2999
   31CHL1   H1A 2265   3.385   5.975   7.179 -0.4966 -1.0502  1.0476
   31CHL1   H1B 2266   3.559   5.976   7.160  0.3748  0.4487  1.2417
   31CHL1    C2 2267   3.450   5.886   6.993  0.2058  0.0717 -0.3323
   31CHL1   H2A 2268   3.430   5.981   6.939  1.6584  0.6111  0.0445
   31CHL1   H2B 2269   3.354   5.830   7.001  0.5178 -0.4537 -0.2072
   31CHL1   C20 2270   3.484   5.953   7.931 -0.3814  0.3631  0.4401
   31CHL1   H20 2271   3.377   5.968   7.906 -0.8954 -3.2359  0.0359
   31CHL1   C21 2272   3.548   6.074   7.998 -0.5093  0.2490  0.0739
   31CHL1  H21A 2273   3.577   6.154   7.927 -0.8148 -0.1684 -0.5206
   31CHL1  H21B 2274   3.643   6.040   8.044 -0.6547  0.7728  0.7869
   31CHL1  H21C 2275   3.486   6.125   8.076 -0.2932 -1.0860  1.1648
   31CHL1   C22 2276   3.480   5.841   8.035  0.5360  0.2847 -0.3615
   31CHL1  H22A 2277   3.437   5.751   7.985  1.4696 -0.3422 -0.0726
   31CHL1  H22B 2278   3.583   5.809   8.061  0.3781  0.9796  1.2307
   31CHL1   C23 2279   3.400   5.875   8.161  0.1977 -0.2925  0.6791
   31CHL1  H23A 2280   3.460   5.939   8.229 -2.1848  0.6787  1.9779
   31CHL1  H23B 2281   3.306   5.927   8.133 -0.0569 -1.8933 -1.7632
   31CHL1   C24 2282   3.375   5.748   8.242 -0.0005  0.8154  0.0019
   31CHL1  H24A 2283   3.292   5.698   8.188 -1.7135  2.4573  0.9706
   31CHL1  H24B 2284   3.471   5.692   8.243  0.7898  2.1021 -0.5567
   31CHL1   C25 2285   3.317   5.773   8.383  0.0069  0.7095 -0.1336
   31CHL1   H25 2286   3.289   5.673   8.421  1.5183 -0.1155 -1.0854
   31CHL1   C26 2287   3.414   5.832   8.487  0.5943  0.5714 -0.7286
   31CHL1  H26A 2288   3.367   5.859   8.584  1.6379  0.0862 -0.0670
   31CHL1  H26B 2289   3.491   5.756   8.513 -0.4949 -0.5680 -0.7495
   31CHL1  H26C 2290   3.463   5.927   8.457  1.3132  1.5618  2.9733
   31CHL1   C27 2291   3.178   5.845   8.374  0.2251  1.1164 -0.0700
   31CHL1  H27A 2292   3.141   5.852   8.478 -0.0298  1.0237 -0.1547
   31CHL1  H27B 2293   3.104   5.790   8.313  0.9349  0.2055 -0.1338
   31CHL1  H27C 2294   3.196   5.948   8.337 -0.4097  0.9366 -0.9006
   32CHL1    C3 2295   4.923   3.850   6.992  1.5962  0.0754  0.0187
   32CHL1    H3 2296   4.831   3.790   7.011  0.8611  0.9781 -0.5874
   32CHL1    O3 2297   4.927   3.843   6.847 -0.2746  0.3769  0.0037
   32CHL1   H3' 2298   4.929   3.935   6.823  1.2258  1.6164  4.0153
   32CHL1    C4 2299   4.904   3.995   7.040  0.4170  0.1437  1.0515
   32CHL1   H4A 2300   4.986   4.064   7.011  0.0838 -0.0459 -0.4136
   32CHL1   H4B 2301   4.809   4.033   6.998  1.3782  4.6034  2.4143
   32CHL1    C5 2302   4.893   3.997   7.190 -0.1681  0.5369  0.2528
   32CHL1    C6 2303   4.783   4.056   7.252  0.0786 -0.0343  0.3450
   32CHL1    H6 2304   4.705   4.096   7.185  0.7180  0.2339 -0.2532
   32CHL1    C7 2305   4.763   4.065   7.402  0.5331 -0.5873  0.3539
   32CHL1   H7A 2306   4.741   4.166   7.445 -1.1333 -1.7038  2.3365
   32CHL1   H7B 2307   4.675   4.003   7.429 -0.6077 -0.1176 -2.0055
   32CHL1    C8 2308   4.889   4.022   7.480 -0.5136  0.7103  0.7225
   32CHL1    H8 2309   4.954   4.112   7.485  1.1717 -0.5271  2.2871
   32CHL1   C14 2310   4.858   3.976   7.627 -0.3254  0.0891  1.2794
   32CHL1   H14 2311   4.790   3.889   7.622 -1.0714  0.6187  1.9571
   32CHL1   C15 2312   4.775   4.086   7.706 -0.8649  0.0951  0.3989
   32CHL1  H15A 2313   4.815   4.189   7.692  1.3131 -0.2790  2.9393
   32CHL1  H15B 2314   4.674   4.080   7.661 -0.3040 -2.2288 -0.7545
   32CHL1   C16 2315   4.791   4.035   7.849 -0.5793 -0.0912  0.7403
   32CHL1  H16A 2316   4.804   4.121   7.917  1.0337  1.4581 -1.3719
   32CHL1  H16B 2317   4.694   3.986   7.871 -0.3695 -2.1304 -2.2105
   32CHL1   C17 2318   4.892   3.920   7.851 -0.2307 -0.1912 -0.6084
   32CHL1   H17 2319   4.841   3.825   7.827  0.6207 -0.7805 -0.1330
   32CHL1   C13 2320   4.971   3.934   7.721  0.2165 -0.5130  0.7453
   32CHL1   C18 2321   5.075   4.048   7.743  0.0190 -0.0272  0.1452
   32CHL1  H18A 2322   5.110   4.081   7.643  1.1593 -3.9279 -0.9114
   32CHL1  H18B 2323   5.033   4.139   7.793  1.5302  0.0935  1.2668
   32CHL1  H18C 2324   5.162   4.021   7.806 -0.3489  1.6014  1.4371
   32CHL1   C12 2325   5.040   3.811   7.656 -0.3418 -0.3465 -0.1339
   32CHL1  H12A 2326   5.129   3.796   7.721  0.1770  2.6533 -0.0067
   32CHL1  H12B 2327   4.974   3.722   7.654 -0.4206 -0.2786 -1.8562
   32CHL1   C11 2328   5.072   3.838   7.507 -0.1630 -0.3261  0.4679
   32CHL1  H11A 2329   5.161   3.903   7.513 -0.3411 -0.0754  0.3904
   32CHL1  H11B 2330   5.102   3.744   7.456  2.8371 -0.0848  1.5898
   32CHL1    C9 2331   4.962   3.901   7.415 -0.3187 -0.4589  0.1979
   32CHL1    H9 2332   4.887   3.819   7.403 -2.6443  1.4098  1.2355
   32CHL1   C10 2333   5.014   3.927   7.265 -0.0418  0.1388 -1.0540
   32CHL1   C19 2334   5.138   4.018   7.263 -0.2710 -0.2245 -0.1644
   32CHL1  H19A 2335   5.182   4.034   7.162  2.2624 -1.0822  0.7187
   32CHL1  H19B 2336   5.106   4.113   7.311 -1.5611 -0.5224 -0.3870
   32CHL1  H19C 2337   5.224   3.977   7.320 -2.3763 -1.5684  2.2534
   32CHL1    C1 2338   5.052   3.790   7.198  0.4025 -0.4907  0.8240
   32CHL1   H1A 2339   5.152   3.760   7.235 -0.0797 -0.4240  2.2660
   32CHL1   H1B 2340   4.969   3.723   7.228  1.0435 -2.4230 -1.3955
   32CHL1    C2 2341   5.047   3.787   7.046 -0.2921  0.0685 -0.8717
   32CHL1   H2A 2342   5.068   3.682   7.014 -0.2860 -0.8150  1.7773
   32CHL1   H2B 2343   5.129   3.848   7.004 -0.6649  1.6284  0.5635
   32CHL1   C20 2344   4.963   3.913   7.988 -0.2843  0.7283 -0.9779
   32CHL1   H20 2345   5.023   4.006   7.992  1.8726 -0.5883 -0.6598
   32CHL1   C21 2346   5.070   3.800   7.988 -0.2219 -0.0946 -0.6712
   32CHL1  H21A 2347   5.153   3.830   7.921  0.4607  1.1235  0.6409
   32CHL1  H21B 2348   5.022   3.706   7.955 -1.3779 -0.3316  1.4736
   32CHL1  H21C 2349   5.114   3.782   8.088  0.1993 -0.9134 -1.0007
   32CHL1   C22 2350   4.877   3.908   8.124  0.0331 -0.2380 -1.0188
   32CHL1  H22A 2351   4.942   3.926   8.212 -1.5583  1.0593 -0.0363
   32CHL1  H22B 2352   4.805   3.991   8.106 -1.7498 -1.5519 -0.1981
   32CHL1   C23 2353   4.794   3.782   8.142  0.8514  0.1042 -0.0086
   32CHL1  H23A 2354   4.723   3.780   8.057 -0.4529  1.8381  0.9880
   32CHL1  H23B 2355   4.864   3.696   8.150  0.4006 -0.1560  1.7702
   32CHL1   C24 2356   4.692   3.787   8.263  0.0870 -0.0597 -0.4120
   32CHL1  H24A 2357   4.750   3.819   8.351  0.7886  1.4925 -1.3936
   32CHL1  H24B 2358   4.624   3.873   8.244  0.1914 -0.2171 -1.5864
   32CHL1   C25 2359   4.606   3.662   8.275  0.0730  0.2991 -0.0290
   32CHL1   H25 2360   4.541   3.691   8.360  1.6430  0.9919  0.9823
   32CHL1   C26 2361   4.524   3.622   8.158  0.8523 -0.8735  0.0285
   32CHL1  H26A 2362   4.558   3.571   8.066 -1.6968  2.0840 -2.8119
   32CHL1  H26B 2363   4.435   3.561   8.186  0.5808 -0.6554 -0.3580
   32CHL1  H26C 2364   4.481   3.719   8.127  1.7835 -0.6727 -0.6920
   32CHL1   C27 2365   4.690   3.545   8.329 -0.0190  0.3356  0.5100
   32CHL1  H27A 2366   4.758   3.512   8.247 -1.1436  2.8371 -1.5906
   32CHL1  H27B 2367   4.741   3.574   8.423 -1.0636 -0.6890  1.4300
   32CHL1  H27C 2368   4.623   3.459   8.354 -0.1234 -0.4468 -2.1395
   33CHL1    C3 2369   5.336   2.653   6.879  1.0555  0.0334 -0.0853
   33CHL1    H3 2370   5.251   2.581   6.883  0.2763  0.9915  1.5053
   33CHL1    O3 2371   5.372   2.664   6.744 -0.1367 -0.4439  0.3472
   33CHL1   H3' 2372   5.438   2.733   6.734 -0.0191 -0.7119 -0.8621
   33CHL1    C4 2373   5.280   2.777   6.934  0.9865  0.0379 -0.6617
   33CHL1   H4A 2374   5.344   2.867   6.926  0.8230  0.2237  0.0154
   33CHL1   H4B 2375   5.196   2.809   6.868 -0.1090 -0.6771  0.3526
   33CHL1    C5 2376   5.220   2.771   7.077  0.1645  1.0546  0.4937
   33CHL1    C6 2377   5.089   2.794   7.107  0.6485 -0.0400 -0.0973
   33CHL1    H6 2378   5.018   2.829   7.031 -1.7934  1.2013  2.5687
   33CHL1    C7 2379   5.032   2.800   7.244  0.3656 -0.4943 -0.5208
   33CHL1   H7A 2380   4.964   2.887   7.251  1.1523  0.0405  0.7641
   33CHL1   H7B 2381   4.968   2.710   7.252 -2.0551  1.0691 -1.3004
   33CHL1    C8 2382   5.144   2.802   7.349 -0.0339  0.6001  0.1349
   33CHL1    H8 2383   5.185   2.905   7.359  0.1873  0.5373 -0.1131
   33CHL1   C14 2384   5.085   2.757   7.485  0.1745  0.3289 -0.0199
   33CHL1   H14 2385   5.048   2.653   7.470 -1.0912  0.9228 -1.2548
   33CHL1   C15 2386   4.967   2.836   7.543 -0.4883 -0.1657 -0.1255
   33CHL1  H15A 2387   4.998   2.943   7.536  0.0054  0.0123  3.1837
   33CHL1  H15B 2388   4.867   2.813   7.502  0.0002 -2.7401 -0.0435
   33CHL1   C16 2389   4.960   2.809   7.696  0.0423  0.1394 -0.1453
   33CHL1  H16A 2390   4.947   2.905   7.750  0.0068  0.3606 -0.5360
   33CHL1  H16B 2391   4.874   2.746   7.729  0.7336  0.2311  1.9458
   33CHL1   C17 2392   5.092   2.731   7.729 -0.1923 -0.7621 -0.3555
   33CHL1   H17 2393   5.080   2.620   7.732  0.6071 -0.8356  0.2612
   33CHL1   C13 2394   5.185   2.760   7.609  0.3691 -0.2457 -0.4142
   33CHL1   C18 2395   5.257   2.899   7.621 -0.3455  0.3719  0.1582
   33CHL1  H18A 2396   5.345   2.894   7.689 -0.6687 -0.3207  0.5390
   33CHL1  H18B 2397   5.291   2.936   7.522 -0.5942 -0.9125 -0.4319
   33CHL1  H18C 2398   5.203   2.981   7.672  0.4965 -0.8193  3.1267
   33CHL1   C12 2399   5.299   2.660   7.572  0.8577 -0.1191  0.2844
   33CHL1  H12A 2400   5.382   2.684   7.642  0.6018 -0.1637  0.6075
   33CHL1  H12B 2401   5.271   2.553   7.582 -0.2363  0.0256 -0.9705
   33CHL1   C11 2402   5.358   2.678   7.433 -0.1070 -0.5728  0.3795
   33CHL1  H11A 2403   5.426   2.766   7.434 -1.0667  0.2193 -1.1132
   33CHL1  H11B 2404   5.421   2.591   7.404 -0.1259  0.1882 -2.1882
   33CHL1    C9 2405   5.258   2.696   7.318  0.6159  0.3645  0.5593
   33CHL1    H9 2406   5.207   2.598   7.310  0.8443  0.3326 -0.6183
   33CHL1   C10 2407   5.324   2.727   7.178  0.5050 -0.1728 -0.4093
   33CHL1   C19 2408   5.417   2.844   7.203  0.1353 -0.0734 -0.0703
   33CHL1  H19A 2409   5.446   2.885   7.104 -1.0220 -0.0163 -0.4061
   33CHL1  H19B 2410   5.369   2.935   7.246  2.4848  0.6227  1.2501
   33CHL1  H19C 2411   5.508   2.831   7.265  1.1904 -0.9261 -1.7438
   33CHL1    C1 2412   5.404   2.602   7.123 -0.6131  0.0675 -0.0867
   33CHL1   H1A 2413   5.489   2.594   7.194  0.8018 -1.6202 -1.8547
   33CHL1   H1B 2414   5.342   2.510   7.131 -0.9191  0.1003 -1.7752
   33CHL1    C2 2415   5.451   2.608   6.977 -0.5253  0.2415 -0.1647
   33CHL1   H2A 2416   5.500   2.513   6.947 -0.5673 -0.4133  1.6980
   33CHL1   H2B 2417   5.532   2.685   6.971  1.9249 -2.0557  0.9912
   33CHL1   C20 2418   5.144   2.761   7.874  0.3266  0.3745 -0.9921
   33CHL1   H20 2419   5.173   2.868   7.882  0.3874  0.2855  0.1240
   33CHL1   C21 2420   5.269   2.675   7.908 -0.3977  0.2679  0.7214
   33CHL1  H21A 2421   5.317   2.699   8.006 -1.4747 -1.7184  1.8033
   33CHL1  H21B 2422   5.347   2.710   7.837 -2.2688  0.8435 -1.1469
   33CHL1  H21C 2423   5.253   2.566   7.893 -1.7770  0.3559  1.4043
   33CHL1   C22 2424   5.036   2.744   7.988  0.1287 -0.0283  0.0358
   33CHL1  H22A 2425   4.964   2.820   7.951 -0.6333 -0.5555  0.4043
   33CHL1  H22B 2426   4.986   2.645   7.985  1.8719 -1.0296  1.7132
   33CHL1   C23 2427   5.071   2.781   8.134 -0.3068  0.2549  0.0406
   33CHL1  H23A 2428   5.126   2.691   8.169 -0.5768 -0.2332 -0.7610
   33CHL1  H23B 2429   5.143   2.865   8.135  0.9375 -0.7509 -1.1528
   33CHL1   C24 2430   4.952   2.803   8.233 -0.0550 -0.1166 -0.0109
   33CHL1  H24A 2431   4.906   2.899   8.200  3.3115  3.0689  3.5209
   33CHL1  H24B 2432   4.879   2.720   8.221 -1.1792  0.2773  3.1941
   33CHL1   C25 2433   4.985   2.807   8.387 -0.2524 -0.5262  0.5717
   33CHL1   H25 2434   5.021   2.708   8.422 -1.5857 -1.3392 -0.2564
   33CHL1   C26 2435   5.103   2.900   8.400  0.3126 -0.7465 -0.0178
   33CHL1  H26A 2436   5.188   2.864   8.339 -1.2045 -1.4532 -1.8043
   33CHL1  H26B 2437   5.061   2.993   8.358 -2.6931 -1.6562  0.7261
   33CHL1  H26C 2438   5.127   2.909   8.509  1.1910 -0.2656 -0.2377
   33CHL1   C27 2439   4.864   2.844   8.471 -0.9520  0.9327  0.6402
   33CHL1  H27A 2440   4.888   2.861   8.578 -1.6672 -2.3353  1.4136
   33CHL1  H27B 2441   4.825   2.942   8.434  0.2164 -0.0026 -3.5894
   33CHL1  H27C 2442   4.783   2.768   8.474  1.5113 -1.8632  0.2653
   34CHL1    C3 2443   6.687   2.640   7.121 -0.0949  0.7999  0.0905
   34CHL1    H3 2444   6.576   2.639   7.116 -0.2692 -1.1274  2.3799
   34CHL1    O3 2445   6.722   2.659   6.993  0.3101  0.1707  0.8867
   34CHL1   H3' 2446   6.815   2.637   6.981 -0.1522 -1.2474 -0.5953
   34CHL1    C4 2447   6.743   2.748   7.215  0.4051 -0.0309  0.8865
   34CHL1   H4A 2448   6.849   2.751   7.182  0.1279  0.8875  0.0189
   34CHL1   H4B 2449   6.700   2.848   7.192  1.2628  0.4189  1.1895
   34CHL1    C5 2450   6.734   2.725   7.362  0.1363 -0.1123  0.5327
   34CHL1    C6 2451   6.678   2.821   7.436  0.2047  0.5524 -0.0079
   34CHL1    H6 2452   6.643   2.913   7.387 -1.0940 -0.3750 -0.9042
   34CHL1    C7 2453   6.642   2.806   7.586 -0.2948  0.3181  0.2830
   34CHL1   H7A 2454   6.672   2.891   7.650  0.2917  1.3645 -1.3048
   34CHL1   H7B 2455   6.533   2.798   7.606 -0.1773 -1.1624  0.4157
   34CHL1    C8 2456   6.710   2.676   7.651  0.6576  0.4937 -0.4871
   34CHL1    H8 2457   6.815   2.706   7.666 -0.0057  3.0602 -0.5141
   34CHL1   C14 2458   6.657   2.637   7.791  0.6733 -0.8896 -0.0418
   34CHL1   H14 2459   6.552   2.601   7.780  0.6491 -0.5691 -0.9653
   34CHL1   C15 2460   6.653   2.744   7.901 -1.0516  0.4429  0.3828
   34CHL1  H15A 2461   6.730   2.822   7.887 -1.0396  0.1461 -1.5649
   34CHL1  H15B 2462   6.555   2.797   7.897 -0.9640  0.5359 -0.7957
   34CHL1   C16 2463   6.670   2.671   8.036  0.8541 -0.4562  0.3200
   34CHL1  H16A 2464   6.763   2.704   8.086  1.0615 -1.5304  0.6618
   34CHL1  H16B 2465   6.582   2.684   8.103 -1.7232  1.9870 -3.1525
   34CHL1   C17 2466   6.682   2.520   8.004 -0.1997  0.3089  0.2113
   34CHL1   H17 2467   6.581   2.476   8.005 -0.0604 -0.3112  4.1118
   34CHL1   C13 2468   6.743   2.522   7.858 -0.3969 -0.0216 -0.0781
   34CHL1   C18 2469   6.888   2.559   7.866 -0.1640  0.0656  0.5943
   34CHL1  H18A 2470   6.932   2.578   7.766 -0.4388  1.7955  0.7674
   34CHL1  H18B 2471   6.915   2.646   7.930  4.2104 -1.4440  1.2048
   34CHL1  H18C 2472   6.948   2.474   7.905  0.8488 -0.0339 -1.0660
   34CHL1   C12 2473   6.710   2.406   7.762 -0.1845  0.4760  0.2430
   34CHL1  H12A 2474   6.763   2.314   7.795  0.0521  1.0180  1.3763
   34CHL1  H12B 2475   6.601   2.382   7.763 -0.0551 -0.5998 -2.4661
   34CHL1   C11 2476   6.754   2.423   7.619  0.1705  0.9455  0.1212
   34CHL1  H11A 2477   6.865   2.413   7.610 -0.0291 -0.0972 -1.4574
   34CHL1  H11B 2478   6.722   2.335   7.560  0.4483 -0.9116  2.5749
   34CHL1    C9 2479   6.706   2.556   7.558  0.7377  0.7853  0.2779
   34CHL1    H9 2480   6.597   2.544   7.538  0.5451  2.4431  0.1468
   34CHL1   C10 2481   6.771   2.589   7.416  0.1343  0.5566 -0.0064
   34CHL1   C19 2482   6.923   2.590   7.426 -0.2556 -0.5190  0.1010
   34CHL1  H19A 2483   6.953   2.645   7.518  1.3118  0.3061 -0.8607
   34CHL1  H19B 2484   6.970   2.490   7.419  0.8428 -0.1775  1.9516
   34CHL1  H19C 2485   6.977   2.639   7.343  0.5298  1.4138  1.6698
   34CHL1    C1 2486   6.708   2.489   7.316  0.3665  1.2914 -0.1278
   34CHL1   H1A 2487   6.742   2.388   7.349 -2.3001  0.3456 -0.0490
   34CHL1   H1B 2488   6.599   2.473   7.332  0.8966 -0.6084  2.1914
   34CHL1    C2 2489   6.731   2.499   7.166 -0.1036 -0.3956 -0.4010
   34CHL1   H2A 2490   6.675   2.424   7.107 -1.2638 -0.4553  0.7336
   34CHL1   H2B 2491   6.840   2.478   7.152 -0.0671 -1.5622  1.2363
   34CHL1   C20 2492   6.751   2.438   8.114  0.7451  0.0547  0.4460
   34CHL1   H20 2493   6.857   2.471   8.125  0.6882  0.6180 -0.6143
   34CHL1   C21 2494   6.740   2.296   8.068 -0.0804  0.3236  0.0103
   34CHL1  H21A 2495   6.831   2.263   8.013  0.7231 -0.7057  1.8778
   34CHL1  H21B 2496   6.648   2.267   8.012  0.0465 -2.3066  1.0146
   34CHL1  H21C 2497   6.732   2.240   8.163 -0.9762  0.3342 -0.0535
   34CHL1   C22 2498   6.691   2.454   8.257  0.1413 -0.2549  0.4949
   34CHL1  H22A 2499   6.645   2.554   8.266  0.4319  0.1716 -1.9993
   34CHL1  H22B 2500   6.606   2.382   8.258  0.1850 -0.4572 -2.1165
   34CHL1   C23 2501   6.782   2.404   8.376  0.5353  0.6338  0.0463
   34CHL1  H23A 2502   6.756   2.297   8.391 -2.7688  1.6885  3.2172
   34CHL1  H23B 2503   6.889   2.422   8.350 -0.0701  1.6297 -1.9542
   34CHL1   C24 2504   6.751   2.481   8.508 -0.3055 -0.0356 -0.2623
   34CHL1  H24A 2505   6.755   2.589   8.481  0.1042  0.3300  1.1872
   34CHL1  H24B 2506   6.652   2.440   8.540  0.4200 -1.3279  0.3848
   34CHL1   C25 2507   6.858   2.459   8.616 -0.1332  0.5641  0.0163
   34CHL1   H25 2508   6.868   2.348   8.615 -1.2099  0.3971 -3.0296
   34CHL1   C26 2509   6.986   2.544   8.583  0.5653 -0.0140  0.2714
   34CHL1  H26A 2510   7.025   2.506   8.486  3.1608 -1.9265  1.9672
   34CHL1  H26B 2511   6.942   2.647   8.583 -2.2392 -1.0820  2.1976
   34CHL1  H26C 2512   7.071   2.547   8.654  0.1062  1.9882  0.8059
   34CHL1   C27 2513   6.810   2.503   8.754 -0.7175 -0.1592  0.0948
   34CHL1  H27A 2514   6.886   2.469   8.828  0.3554 -1.5633 -1.5896
   34CHL1  H27B 2515   6.801   2.614   8.763 -0.2634 -0.2080  1.5182
   34CHL1  H27C 2516   6.711   2.458   8.777 -1.6710  2.4135  1.5721
   35CHL1    C3 2517   3.947   3.467   7.153  0.4474 -0.0683 -0.3047
   35CHL1    H3 2518   3.991   3.375   7.109  0.5501  1.3603 -3.4566
   35CHL1    O3 2519   3.933   3.559   7.046 -0.2689  0.3811 -0.0105
   35CHL1   H3' 2520   4.022   3.571   7.013 -0.6129  2.5354 -0.2545
   35CHL1    C4 2521   3.807   3.448   7.207 -0.3819  0.1025  0.4381
   35CHL1   H4A 2522   3.760   3.545   7.236 -1.7935 -0.1853 -0.7889
   35CHL1   H4B 2523   3.739   3.418   7.125 -0.0678  0.5397  0.0108
   35CHL1    C5 2524   3.813   3.370   7.337 -0.4175 -0.3077  0.0940
   35CHL1    C6 2525   3.730   3.269   7.349 -0.0401 -0.1150  0.2339
   35CHL1    H6 2526   3.666   3.246   7.263 -0.2778 -1.8104  0.8256
   35CHL1    C7 2527   3.716   3.189   7.475 -0.1069 -0.1590 -0.1731
   35CHL1   H7A 2528   3.609   3.165   7.495 -0.0179 -0.1399  0.3160
   35CHL1   H7B 2529   3.765   3.092   7.457 -0.8722 -1.0662  2.2742
   35CHL1    C8 2530   3.771   3.256   7.599  0.1697  0.2006  0.1390
   35CHL1    H8 2531   3.708   3.342   7.631  1.2599  1.3413 -0.6850
   35CHL1   C14 2532   3.789   3.158   7.714  0.7231 -0.3375 -0.6580
   35CHL1   H14 2533   3.868   3.088   7.680  1.1478  0.5464 -1.5293
   35CHL1   C15 2534   3.674   3.060   7.751  0.4835  0.3348 -0.1880
   35CHL1  H15A 2535   3.574   3.105   7.738 -0.3805 -1.5979 -0.6046
   35CHL1  H15B 2536   3.676   2.970   7.686 -0.4036 -0.7295  1.1829
   35CHL1   C16 2537   3.702   3.013   7.891  0.2274 -0.0819 -0.2308
   35CHL1  H16A 2538   3.621   3.058   7.953  0.5336 -1.2719  1.0888
   35CHL1  H16B 2539   3.704   2.905   7.915  1.2890  0.2156  1.1288
   35CHL1   C17 2540   3.826   3.087   7.938 -0.2672 -0.4467 -0.1123
   35CHL1   H17 2541   3.909   3.020   7.905  0.3591  0.0088  0.5154
   35CHL1   C13 2542   3.833   3.216   7.850 -0.2297  0.2763  0.2810
   35CHL1   C18 2543   3.736   3.327   7.901 -0.1600  0.5164 -0.5311
   35CHL1  H18A 2544   3.703   3.406   7.831 -0.2084  0.2932 -0.7584
   35CHL1  H18B 2545   3.637   3.290   7.933 -0.5701  1.1938 -0.9913
   35CHL1  H18C 2546   3.788   3.382   7.984 -0.4321 -0.9848  0.6701
   35CHL1   C12 2547   3.974   3.274   7.826  0.3441  0.2750  0.4105
   35CHL1  H12A 2548   4.016   3.324   7.916 -0.6506  0.4078  0.8091
   35CHL1  H12B 2549   4.038   3.191   7.787 -0.5886 -1.0849  1.6599
   35CHL1   C11 2550   3.972   3.375   7.704 -0.0597  0.2300 -0.3389
   35CHL1  H11A 2551   3.929   3.469   7.744 -1.5125 -0.6952  0.3474
   35CHL1  H11B 2552   4.080   3.391   7.683  0.2432  0.0073  0.9424
   35CHL1    C9 2553   3.911   3.320   7.571  0.4660  0.2249  0.0093
   35CHL1    H9 2554   3.974   3.232   7.547  0.9257 -0.4036  3.1115
   35CHL1   C10 2555   3.908   3.425   7.451 -0.1461  0.6342  0.2074
   35CHL1   C19 2556   3.851   3.558   7.506 -0.1884  0.1836 -0.4999
   35CHL1  H19A 2557   3.752   3.550   7.556  0.1880  0.8327  0.3865
   35CHL1  H19B 2558   3.930   3.603   7.570 -0.5850  2.0369 -1.2553
   35CHL1  H19C 2559   3.835   3.633   7.425  2.5212  0.4717 -0.8588
   35CHL1    C1 2560   4.049   3.459   7.395  0.5771 -0.2257  0.0427
   35CHL1   H1A 2561   4.105   3.521   7.468 -0.3269 -1.0385  1.4772
   35CHL1   H1B 2562   4.090   3.357   7.382 -2.1957 -1.5052  0.5081
   35CHL1    C2 2563   4.046   3.530   7.255  0.6400  0.7021  0.4151
   35CHL1   H2A 2564   4.150   3.535   7.218 -0.2248  0.2397 -2.2691
   35CHL1   H2B 2565   4.016   3.637   7.264  0.2153  0.9739 -2.9728
   35CHL1   C20 2566   3.824   3.104   8.097 -0.1734 -0.0336  1.1912
   35CHL1   H20 2567   3.728   3.151   8.125  0.0815 -0.3266  2.6730
   35CHL1   C21 2568   3.947   3.179   8.152  0.9101 -0.0524  0.1309
   35CHL1  H21A 2569   3.938   3.208   8.259 -0.7059  2.7736 -0.6708
   35CHL1  H21B 2570   3.961   3.276   8.100  0.9949  0.4031  0.9976
   35CHL1  H21C 2571   4.042   3.123   8.139  0.8312 -0.0687 -0.4275
   35CHL1   C22 2572   3.836   2.966   8.175  0.1068  0.7658  0.7048
   35CHL1  H22A 2573   3.758   2.904   8.127  0.4939  2.0393 -1.7611
   35CHL1  H22B 2574   3.935   2.922   8.150  0.1791  0.1467  2.0368
   35CHL1   C23 2575   3.826   2.977   8.329  0.1342  1.3366  0.3764
   35CHL1  H23A 2576   3.879   3.064   8.372  0.7700  1.2269 -0.1697
   35CHL1  H23B 2577   3.720   2.995   8.356 -0.8381  0.2736 -2.3924
   35CHL1   C24 2578   3.874   2.848   8.400  0.3523  0.4194 -0.1464
   35CHL1  H24A 2579   3.816   2.758   8.370 -0.4688  0.6387  0.7236
   35CHL1  H24B 2580   3.980   2.834   8.369  1.0529  2.0162  1.3503
   35CHL1   C25 2581   3.863   2.846   8.552 -0.1695 -0.5723  0.3041
   35CHL1   H25 2582   3.760   2.884   8.565 -0.6452 -1.4710 -0.7492
   35CHL1   C26 2583   3.876   2.709   8.609 -0.1704 -0.0443  0.4480
   35CHL1  H26A 2584   3.848   2.719   8.716  1.4134 -0.5687  0.9428
   35CHL1  H26B 2585   3.815   2.635   8.554 -1.0204  2.4013 -2.1424
   35CHL1  H26C 2586   3.981   2.673   8.597 -0.6342 -2.1311  2.0721
   35CHL1   C27 2587   3.953   2.959   8.615  0.5848 -0.0800  0.3430
   35CHL1  H27A 2588   3.903   3.058   8.607  0.5579 -0.1632 -0.5699
   35CHL1  H27B 2589   4.059   2.952   8.582 -0.2237 -0.9303 -2.2847
   35CHL1  H27C 2590   3.945   2.948   8.726  2.0453  0.9833  0.5872
   36CHL1    C3 2591   4.933   3.303   7.074  0.4362 -0.2327 -0.0780
   36CHL1    H3 2592   4.831   3.260   7.073  1.2894 -2.5300 -3.5292
   36CHL1    O3 2593   4.960   3.319   6.942  0.2100 -0.1665 -0.2765
   36CHL1   H3' 2594   4.967   3.233   6.902  1.5124  1.1898 -3.2748
   36CHL1    C4 2595   4.936   3.438   7.151  0.7832 -0.6052  0.0091
   36CHL1   H4A 2596   5.032   3.482   7.117  1.5323 -1.7208  0.6071
   36CHL1   H4B 2597   4.851   3.495   7.109 -0.2665 -1.4507  0.9269
   36CHL1    C5 2598   4.924   3.417   7.301 -0.1427  0.2720 -0.3403
   36CHL1    C6 2599   4.834   3.489   7.371 -0.6854  0.0037 -0.0747
   36CHL1    H6 2600   4.764   3.551   7.313 -0.6504 -2.0945 -2.5409
   36CHL1    C7 2601   4.820   3.473   7.516 -0.0427  0.1206  0.4560
   36CHL1   H7A 2602   4.794   3.570   7.563 -1.0598 -0.8184  1.9005
   36CHL1   H7B 2603   4.734   3.402   7.522 -1.2648  1.5711  0.7323
   36CHL1    C8 2604   4.943   3.402   7.581 -0.6917 -0.6409 -0.0834
   36CHL1    H8 2605   5.017   3.485   7.580 -1.1445 -0.2379 -0.4059
   36CHL1   C14 2606   4.919   3.374   7.735  0.4041 -0.3353 -0.1693
   36CHL1   H14 2607   4.860   3.282   7.720 -1.5674  0.9055 -0.4412
   36CHL1   C15 2608   4.843   3.479   7.814  0.1453  0.3848  0.5463
   36CHL1  H15A 2609   4.899   3.574   7.804  1.2846 -0.4024 -1.1187
   36CHL1  H15B 2610   4.737   3.498   7.787 -0.5241 -0.6001  2.3508
   36CHL1   C16 2611   4.872   3.443   7.963 -0.5301  0.0074  0.4906
   36CHL1  H16A 2612   4.900   3.530   8.025  1.4397 -0.2336  0.0158
   36CHL1  H16B 2613   4.776   3.398   7.998 -1.7773  0.5080 -2.0271
   36CHL1   C17 2614   4.983   3.326   7.951  0.0606  0.0267 -0.2693
   36CHL1   H17 2615   4.915   3.239   7.955 -0.9597  0.8779  2.4483
   36CHL1   C13 2616   5.040   3.336   7.812 -0.2227 -0.5749 -0.1439
   36CHL1   C18 2617   5.152   3.450   7.817 -0.5276 -0.4379 -0.6745
   36CHL1  H18A 2618   5.124   3.532   7.886 -0.2982 -0.2044 -0.8580
   36CHL1  H18B 2619   5.245   3.408   7.862  1.0557  3.5053  0.0870
   36CHL1  H18C 2620   5.179   3.484   7.715 -0.4293  0.2426 -0.4228
   36CHL1   C12 2621   5.091   3.205   7.748  0.4906  0.7943  0.2081
   36CHL1  H12A 2622   5.178   3.160   7.801  0.3371  2.9543  2.4249
   36CHL1  H12B 2623   5.018   3.125   7.771  0.2606  0.4669 -1.5131
   36CHL1   C11 2624   5.118   3.210   7.594 -0.3333 -0.5130 -0.6394
   36CHL1  H11A 2625   5.205   3.277   7.583 -1.5813  1.4713  0.9084
   36CHL1  H11B 2626   5.136   3.107   7.556  2.0717 -0.4262  0.1027
   36CHL1    C9 2627   4.997   3.280   7.512 -0.8456 -0.1329  0.1098
   36CHL1    H9 2628   4.919   3.201   7.518 -1.9412  0.9131 -0.1201
   36CHL1   C10 2629   5.015   3.316   7.366  0.4372  0.4909  0.2803
   36CHL1   C19 2630   5.152   3.388   7.354 -0.4647  0.8645  0.1988
   36CHL1  H19A 2631   5.237   3.331   7.397  0.8798  1.9165 -0.9318
   36CHL1  H19B 2632   5.193   3.405   7.252  0.9074  2.4933  0.9738
   36CHL1  H19C 2633   5.141   3.484   7.408  1.3200  0.8710  0.5933
   36CHL1    C1 2634   5.007   3.181   7.286  0.1286 -0.1580  0.0271
   36CHL1   H1A 2635   5.084   3.111   7.325  0.4735 -0.0388 -0.4320
   36CHL1   H1B 2636   4.908   3.140   7.316 -0.6225  1.9277  0.6211
   36CHL1    C2 2637   5.028   3.201   7.134 -0.3076  0.1626 -0.3574
   36CHL1   H2A 2638   5.016   3.105   7.079  0.9871 -0.1837 -0.0824
   36CHL1   H2B 2639   5.134   3.232   7.115  0.0444  0.5000  1.8742
   36CHL1   C20 2640   5.069   3.313   8.080  0.2143 -0.2215 -0.0549
   36CHL1   H20 2641   5.144   3.394   8.094  1.2907 -1.1935 -0.0665
   36CHL1   C21 2642   5.162   3.185   8.055  0.1023  0.0092 -0.6619
   36CHL1  H21A 2643   5.106   3.092   8.034  1.5013 -1.1294  0.3844
   36CHL1  H21B 2644   5.222   3.165   8.147 -0.8139  2.6254  0.6165
   36CHL1  H21C 2645   5.240   3.201   7.977  0.6227 -0.7471 -0.3102
   36CHL1   C22 2646   4.981   3.287   8.204 -0.4199  0.0101  1.0557
   36CHL1  H22A 2647   4.898   3.361   8.212 -0.0031  0.6641 -0.5218
   36CHL1  H22B 2648   4.930   3.188   8.195 -0.7370  0.2010  0.7447
   36CHL1   C23 2649   5.060   3.299   8.342 -0.0799  0.1646  0.2499
   36CHL1  H23A 2650   5.149   3.233   8.338  0.1682  0.5809 -2.2788
   36CHL1  H23B 2651   5.096   3.403   8.358 -1.2587  0.9079 -1.5730
   36CHL1   C24 2652   4.964   3.276   8.457  0.1946  0.0698 -0.2675
   36CHL1  H24A 2653   4.875   3.343   8.452 -1.1633 -1.6781 -0.5946
   36CHL1  H24B 2654   4.928   3.171   8.457 -0.2420  0.2019  0.8583
   36CHL1   C25 2655   5.018   3.281   8.597  0.1296  0.4295 -0.3845
   36CHL1   H25 2656   5.097   3.204   8.604  0.8255  1.2506  1.4703
   36CHL1   C26 2657   5.066   3.426   8.636 -0.4150  0.6845  0.5023
   36CHL1  H26A 2658   5.095   3.436   8.742  3.8884  4.3058 -0.7351
   36CHL1  H26B 2659   5.164   3.438   8.585 -0.9406 -1.7088 -1.2810
   36CHL1  H26C 2660   4.993   3.507   8.616 -0.4360  0.7960  1.0179
   36CHL1   C27 2661   4.911   3.223   8.695 -0.2651 -0.6517 -0.7833
   36CHL1  H27A 2662   4.812   3.265   8.670 -0.6200 -0.2899  1.0688
   36CHL1  H27B 2663   4.910   3.114   8.678  0.2732 -1.1720  1.9488
   36CHL1  H27C 2664   4.941   3.229   8.802  0.5065 -3.6499 -0.7603
   37CHL1    C3 2665   0.198   4.943   7.058  0.0804 -0.2125  0.7270
   37CHL1    H3 2666   0.157   4.840   7.048 -3.8919  1.2677 -0.0247
   37CHL1    O3 2667   0.216   4.993   6.926  0.1508  0.0341  0.1177
   37CHL1   H3' 2668   0.286   4.944   6.883  0.4384  0.6744 -0.1502
   37CHL1    C4 2669   0.095   5.024   7.138  0.3861 -0.4334 -0.4483
   37CHL1   H4A 2670   0.114   5.134   7.130 -2.1685  0.3463  2.2072
   37CHL1   H4B 2671  -0.002   5.009   7.085  0.1269 -1.6219  0.3346
   37CHL1    C5 2672   0.078   5.000   7.281  0.0169  0.5131 -0.7077
   37CHL1    C6 2673  -0.037   4.972   7.334 -0.1391 -0.0905 -0.2328
   37CHL1    H6 2674  -0.127   4.978   7.271  0.2972 -2.5649 -1.1936
   37CHL1    C7 2675  -0.057   4.963   7.485 -1.1228 -0.0973  0.6459
   37CHL1   H7A 2676  -0.135   5.030   7.529 -1.2640  0.4604 -0.3988
   37CHL1   H7B 2677  -0.080   4.862   7.523 -1.4031  0.2793  1.5091
   37CHL1    C8 2678   0.068   5.009   7.567 -0.9752  0.8236  0.3877
   37CHL1    H8 2679   0.059   5.120   7.562 -2.1252  0.6795 -2.4138
   37CHL1   C14 2680   0.061   4.948   7.708 -0.0289 -0.2753  1.0674
   37CHL1   H14 2681   0.060   4.838   7.690  2.1581 -0.3998  1.4426
   37CHL1   C15 2682  -0.061   4.983   7.789  0.7727  0.6130  0.4318
   37CHL1  H15A 2683  -0.071   5.093   7.801  0.4158  0.4354  1.8891
   37CHL1  H15B 2684  -0.150   4.936   7.741  0.7091 -0.0878  1.2127
   37CHL1   C16 2685  -0.031   4.907   7.915  0.1481 -0.8365  0.5400
   37CHL1  H16A 2686  -0.075   4.973   7.994 -2.1023 -1.2585 -0.2831
   37CHL1  H16B 2687  -0.081   4.808   7.920 -1.7784  0.0517 -0.0331
   37CHL1   C17 2688   0.126   4.905   7.924 -0.2255  0.2764 -0.2684
   37CHL1   H17 2689   0.142   4.797   7.906 -1.0233  0.1918 -0.5034
   37CHL1   C13 2690   0.179   4.970   7.797 -0.1583 -0.7345 -0.6510
   37CHL1   C18 2691   0.198   5.129   7.828  0.2071 -0.3298  0.0804
   37CHL1  H18A 2692   0.208   5.186   7.733  0.4940 -1.1327 -0.3851
   37CHL1  H18B 2693   0.113   5.183   7.873 -1.0235 -1.6366 -0.5787
   37CHL1  H18C 2694   0.294   5.152   7.879  1.7084 -1.1262 -2.1891
   37CHL1   C12 2695   0.315   4.924   7.743  0.3048 -0.0932  0.1665
   37CHL1  H12A 2696   0.397   4.966   7.806 -0.4184 -0.9262  1.7112
   37CHL1  H12B 2697   0.306   4.814   7.745  0.9550 -0.2508 -2.2385
   37CHL1   C11 2698   0.328   4.966   7.593  0.6028 -0.2936 -0.1001
   37CHL1  H11A 2699   0.356   5.074   7.591 -1.8945  0.4145 -0.9186
   37CHL1  H11B 2700   0.420   4.923   7.549  2.4878  1.0031  2.3236
   37CHL1    C9 2701   0.199   4.949   7.504  0.2538 -0.2556  0.0950
   37CHL1    H9 2702   0.192   4.839   7.489 -0.6607 -0.2550  0.5078
   37CHL1   C10 2703   0.219   5.010   7.358  0.6379  0.9794 -0.1465
   37CHL1   C19 2704   0.272   5.159   7.359  0.6143 -0.3430  0.2593
   37CHL1  H19A 2705   0.282   5.190   7.253  1.8531  0.4217  0.5735
   37CHL1  H19B 2706   0.197   5.225   7.407  0.4392 -0.4423  0.1237
   37CHL1  H19C 2707   0.372   5.166   7.407  1.2103 -0.6882 -0.8972
   37CHL1    C1 2708   0.311   4.911   7.277 -0.7821 -0.1297 -0.0717
   37CHL1   H1A 2709   0.410   4.903   7.327  1.1797  1.3368 -3.3860
   37CHL1   H1B 2710   0.276   4.805   7.281  0.0058 -0.3800  0.7166
   37CHL1    C2 2711   0.333   4.946   7.129 -0.2962 -0.0890  0.2242
   37CHL1   H2A 2712   0.395   4.872   7.073 -0.2452 -3.6594  4.4231
   37CHL1   H2B 2713   0.379   5.046   7.117  2.2174 -1.1250  0.4346
   37CHL1   C20 2714   0.184   4.935   8.062  0.3416 -0.3291 -0.6508
   37CHL1   H20 2715   0.179   5.046   8.074  2.9608  0.0791 -2.5340
   37CHL1   C21 2716   0.331   4.879   8.066 -0.2024 -0.7300 -0.1890
   37CHL1  H21A 2717   0.403   4.951   8.022 -0.9888 -0.0828 -0.4396
   37CHL1  H21B 2718   0.342   4.778   8.022 -0.7416 -1.6115  1.6193
   37CHL1  H21C 2719   0.370   4.871   8.170  0.9859  0.2803 -0.5356
   37CHL1   C22 2720   0.101   4.871   8.181 -0.1263  0.0302  0.4502
   37CHL1  H22A 2721  -0.006   4.901   8.172 -0.6602 -1.6711  0.7101
   37CHL1  H22B 2722   0.100   4.760   8.174 -1.1080  0.0773 -0.4390
   37CHL1   C23 2723   0.141   4.912   8.323  0.2340  0.5018  0.1051
   37CHL1  H23A 2724   0.245   4.874   8.333 -0.4014 -1.2047  0.6621
   37CHL1  H23B 2725   0.144   5.022   8.332  0.2895  0.3492  2.4869
   37CHL1   C24 2726   0.070   4.839   8.439  0.1108  0.6733  0.4072
   37CHL1  H24A 2727   0.102   4.732   8.434  2.3593  1.3551 -1.1381
   37CHL1  H24B 2728   0.097   4.894   8.531 -1.0016  1.9560 -0.0085
   37CHL1   C25 2729  -0.080   4.831   8.437  0.3301  0.4123  0.1309
   37CHL1   H25 2730  -0.096   4.776   8.342  1.7916  1.6716 -0.8925
   37CHL1   C26 2731  -0.138   4.746   8.556 -0.3697  0.1525 -0.3125
   37CHL1  H26A 2732  -0.111   4.805   8.646  0.0891  1.4344 -1.2571
   37CHL1  H26B 2733  -0.248   4.751   8.542 -0.4479  0.4971  0.3833
   37CHL1  H26C 2734  -0.099   4.643   8.572 -4.0259 -1.2352  0.8742
   37CHL1   C27 2735  -0.142   4.971   8.442 -0.3458  0.2386  1.2253
   37CHL1  H27A 2736  -0.109   5.040   8.362  1.0327 -0.5755  1.0543
   37CHL1  H27B 2737  -0.253   4.967   8.438 -0.3877 -1.3873  2.6575
   37CHL1  H27C 2738  -0.128   5.014   8.543 -3.2308 -0.0088  1.8266
   38CHL1    C3 2739   3.572   6.211   6.710 -0.3411  0.2386  0.4127
   38CHL1    H3 2740   3.528   6.110   6.719 -1.1661  0.4993 -0.4915
   38CHL1    O3 2741   3.626   6.237   6.578 -0.6724 -0.0794 -0.2766
   38CHL1   H3' 2742   3.659   6.161   6.528 -0.3842  0.4069 -0.8357
   38CHL1    C4 2743   3.469   6.320   6.734 -0.5495  0.6797 -0.8291
   38CHL1   H4A 2744   3.516   6.418   6.711  2.4215 -0.6563 -0.8605
   38CHL1   H4B 2745   3.392   6.292   6.659  1.4186 -1.0045 -2.3457
   38CHL1    C5 2746   3.423   6.308   6.880  0.5611  0.4700 -0.1359
   38CHL1    C6 2747   3.290   6.299   6.899 -0.0165 -0.4865 -0.3007
   38CHL1    H6 2748   3.231   6.302   6.807  0.3370  0.6303 -0.4972
   38CHL1    C7 2749   3.234   6.310   7.030 -0.1518  0.8831 -0.3745
   38CHL1   H7A 2750   3.145   6.375   7.021 -0.8034 -0.0398 -0.7458
   38CHL1   H7B 2751   3.201   6.211   7.068 -0.0040  0.1515 -2.0502
   38CHL1    C8 2752   3.327   6.362   7.137 -0.2254  0.5612  0.3617
   38CHL1    H8 2753   3.334   6.472   7.123  0.6308  0.3739 -0.7523
   38CHL1   C14 2754   3.274   6.320   7.272  0.3529 -0.2941 -0.0942
   38CHL1   H14 2755   3.286   6.209   7.270 -0.4757 -0.4770  2.0205
   38CHL1   C15 2756   3.122   6.362   7.300  0.7656  0.2634  0.1093
   38CHL1  H15A 2757   3.099   6.464   7.262 -1.8317 -0.1055  0.5258
   38CHL1  H15B 2758   3.066   6.286   7.241  1.9595 -1.0525  0.6235
   38CHL1   C16 2759   3.112   6.353   7.447 -0.0143 -1.3909 -0.2759
   38CHL1  H16A 2760   3.069   6.447   7.486  2.5933 -0.5235  0.7037
   38CHL1  H16B 2761   3.044   6.273   7.483  0.6452 -2.1377 -0.6463
   38CHL1   C17 2762   3.250   6.321   7.505 -0.2594  0.0303  0.7162
   38CHL1   H17 2763   3.265   6.211   7.513  3.1412  0.4130  1.1458
   38CHL1   C13 2764   3.359   6.365   7.394 -0.1734 -0.3180 -0.7690
   38CHL1   C18 2765   3.383   6.511   7.396  0.1397 -0.1124  0.3259
   38CHL1  H18A 2766   3.436   6.555   7.483 -0.5864  0.3274  0.5630
   38CHL1  H18B 2767   3.434   6.553   7.307 -0.3958 -0.1812 -0.0215
   38CHL1  H18C 2768   3.287   6.567   7.398  0.1576 -0.0637  0.0170
   38CHL1   C12 2769   3.498   6.297   7.381 -0.7429  1.1162  1.1985
   38CHL1  H12A 2770   3.578   6.336   7.448 -0.8828  1.1738  1.3313
   38CHL1  H12B 2771   3.488   6.187   7.392  1.1406  0.7833  0.1328
   38CHL1   C11 2772   3.558   6.317   7.238  0.0731  0.8128 -0.2831
   38CHL1  H11A 2773   3.591   6.423   7.245  1.3052  0.3260  2.8007
   38CHL1  H11B 2774   3.639   6.243   7.220 -2.3382 -1.8086 -0.9483
   38CHL1    C9 2775   3.465   6.289   7.122  0.3021  0.4056  0.8149
   38CHL1    H9 2776   3.427   6.185   7.115 -2.9776  1.5157  0.4548
   38CHL1   C10 2777   3.531   6.313   6.984  0.0650  0.6484 -0.1750
   38CHL1   C19 2778   3.596   6.451   6.977 -0.3614  0.1476  0.1574
   38CHL1  H19A 2779   3.626   6.481   6.875  0.1784  0.4917  0.4110
   38CHL1  H19B 2780   3.516   6.525   7.002  1.5861  2.0922  0.9693
   38CHL1  H19C 2781   3.683   6.464   7.045  1.1573 -3.3642 -0.9125
   38CHL1    C1 2782   3.641   6.202   6.952  0.0182 -0.6010 -0.5896
   38CHL1   H1A 2783   3.724   6.206   7.026  1.2158  0.1105 -1.9153
   38CHL1   H1B 2784   3.601   6.099   6.960 -0.7119 -0.2494  0.4977
   38CHL1    C2 2785   3.690   6.223   6.806 -0.3521 -0.4362 -0.4273
   38CHL1   H2A 2786   3.764   6.144   6.781  0.5478 -0.0331  0.8673
   38CHL1   H2B 2787   3.745   6.320   6.798 -1.0837  0.1546  1.3508
   38CHL1   C20 2788   3.271   6.383   7.641  0.6359  0.2584 -0.7320
   38CHL1   H20 2789   3.253   6.492   7.629  0.6885  0.6559  2.0779
   38CHL1   C21 2790   3.412   6.350   7.693 -0.3222 -0.0785 -0.3763
   38CHL1  H21A 2791   3.430   6.241   7.704  2.2711  0.4138  1.3430
   38CHL1  H21B 2792   3.420   6.391   7.797  0.3211 -0.8053 -0.1350
   38CHL1  H21C 2793   3.486   6.396   7.625 -1.0251  0.6127 -0.6957
   38CHL1   C22 2794   3.161   6.338   7.741 -0.7071  0.4080  0.7394
   38CHL1  H22A 2795   3.188   6.372   7.844 -0.0562 -1.8611  1.3690
   38CHL1  H22B 2796   3.062   6.383   7.720 -1.1262 -0.4408  0.8632
   38CHL1   C23 2797   3.118   6.192   7.753  0.3753 -0.4227 -0.0710
   38CHL1  H23A 2798   3.064   6.179   7.657  0.7254  1.1341 -0.5045
   38CHL1  H23B 2799   3.214   6.136   7.756  1.5190  1.2489 -2.6420
   38CHL1   C24 2800   3.038   6.187   7.888  0.0308  0.2669  0.4558
   38CHL1  H24A 2801   3.103   6.211   7.975  0.9972 -1.0333  0.1238
   38CHL1  H24B 2802   2.956   6.260   7.873 -0.9333 -0.6684  1.0555
   38CHL1   C25 2803   2.956   6.056   7.915  0.2506  0.4848 -0.5151
   38CHL1   H25 2804   2.891   6.027   7.830 -2.7508  1.4459  1.2625
   38CHL1   C26 2805   3.057   5.943   7.953  0.7605 -0.2750  0.0833
   38CHL1  H26A 2806   3.121   5.924   7.864  0.4637  0.7395 -0.3689
   38CHL1  H26B 2807   3.118   5.974   8.041  1.8598 -1.7875 -0.1048
   38CHL1  H26C 2808   2.997   5.851   7.969 -1.8535  1.1163 -1.0391
   38CHL1   C27 2809   2.856   6.091   8.035 -0.3599  0.2950 -0.0829
   38CHL1  H27A 2810   2.908   6.161   8.103 -0.5657 -0.9385  1.4242
   38CHL1  H27B 2811   2.768   6.142   7.991 -0.9986 -0.7183 -0.0168
   38CHL1  H27C 2812   2.828   6.000   8.094 -0.5614  0.6836  0.4314
   39CHL1    C3 2813   3.162   4.994   6.829  0.4669 -0.3473 -0.6026
   39CHL1    H3 2814   3.160   4.892   6.872  1.6208 -0.0706  0.1710
   39CHL1    O3 2815   3.120   4.997   6.696 -0.2088  0.2581 -0.0065
   39CHL1   H3' 2816   3.147   5.085   6.670  2.6187 -0.1432  1.2251
   39CHL1    C4 2817   3.073   5.086   6.919 -0.3073 -0.3682 -0.6232
   39CHL1   H4A 2818   3.044   5.180   6.868  0.9896 -0.0478 -0.8122
   39CHL1   H4B 2819   2.978   5.030   6.927 -1.3227  1.2483 -0.9225
   39CHL1    C5 2820   3.117   5.119   7.063  0.5638  0.6692 -0.1419
   39CHL1    C6 2821   3.038   5.089   7.170 -0.6570  0.2786  0.7346
   39CHL1    H6 2822   2.932   5.063   7.151 -0.4766  0.2906 -0.3444
   39CHL1    C7 2823   3.085   5.115   7.309 -0.6823  0.6456 -0.4343
   39CHL1   H7A 2824   3.007   5.170   7.364 -0.7487  3.0817 -2.7630
   39CHL1   H7B 2825   3.107   5.017   7.358 -0.9455 -0.7170 -2.8920
   39CHL1    C8 2826   3.220   5.198   7.320  0.5526 -0.1288  0.6033
   39CHL1    H8 2827   3.192   5.303   7.297 -1.0440 -0.7385 -0.3883
   39CHL1   C14 2828   3.267   5.190   7.463 -0.3879 -0.1712 -0.3319
   39CHL1   H14 2829   3.293   5.083   7.473 -0.6138 -0.1410  0.7593
   39CHL1   C15 2830   3.172   5.226   7.568  0.9787 -0.1863  0.6898
   39CHL1  H15A 2831   3.121   5.324   7.556  0.2169 -0.3940  1.9484
   39CHL1  H15B 2832   3.080   5.163   7.570 -0.4556  1.5128 -2.9798
   39CHL1   C16 2833   3.261   5.233   7.692  0.4778  0.7090 -0.0610
   39CHL1  H16A 2834   3.237   5.336   7.727  0.6524  0.8740 -0.4238
   39CHL1  H16B 2835   3.224   5.162   7.769 -1.3956 -0.4757 -1.9304
   39CHL1   C17 2836   3.404   5.219   7.651  1.0514  0.2163  0.1794
   39CHL1   H17 2837   3.425   5.110   7.647 -0.4483 -0.0986  0.2709
   39CHL1   C13 2838   3.402   5.254   7.500 -0.0632 -0.0786  0.4516
   39CHL1   C18 2839   3.398   5.406   7.472  0.0505  0.9109  0.1788
   39CHL1  H18A 2840   3.499   5.452   7.463 -0.2595  1.5068 -0.3242
   39CHL1  H18B 2841   3.350   5.428   7.374  0.6034  1.5907  0.0487
   39CHL1  H18C 2842   3.336   5.459   7.547 -2.4607  2.9269 -3.0307
   39CHL1   C12 2843   3.505   5.186   7.399 -0.1200  0.2954  0.3310
   39CHL1  H12A 2844   3.607   5.228   7.407 -0.5470  1.8220 -1.5643
   39CHL1  H12B 2845   3.510   5.078   7.425  1.2548 -0.2983 -2.1325
   39CHL1   C11 2846   3.459   5.204   7.246  0.1243  0.3695 -0.0098
   39CHL1  H11A 2847   3.465   5.313   7.225 -0.6684  0.5592  0.7017
   39CHL1  H11B 2848   3.523   5.151   7.173 -2.3988 -1.3925 -1.0776
   39CHL1    C9 2849   3.319   5.149   7.218 -0.1091 -0.0108 -0.1972
   39CHL1    H9 2850   3.333   5.041   7.243 -1.3473 -0.7309 -2.4101
   39CHL1   C10 2851   3.264   5.165   7.069 -0.4149 -0.2348  0.6671
   39CHL1   C19 2852   3.278   5.320   7.029 -0.2232  0.3246 -0.3405
   39CHL1  H19A 2853   3.226   5.340   6.933  0.9937 -1.1041 -1.3511
   39CHL1  H19B 2854   3.230   5.388   7.102 -1.4531  0.9693 -1.7087
   39CHL1  H19C 2855   3.387   5.330   7.010  0.6983 -2.0450  2.7940
   39CHL1    C1 2856   3.351   5.075   6.974  0.2321 -0.2103  0.7251
   39CHL1   H1A 2857   3.451   5.124   6.974  0.2337 -0.2135  0.5814
   39CHL1   H1B 2858   3.364   4.974   7.017 -1.4629 -0.0893  1.6209
   39CHL1    C2 2859   3.303   5.049   6.837  0.5591  0.1629  0.2447
   39CHL1   H2A 2860   3.358   4.971   6.778  1.2086  0.6769  0.1609
   39CHL1   H2B 2861   3.307   5.148   6.787 -2.0845  0.2790  0.1652
   39CHL1   C20 2862   3.508   5.279   7.741 -0.8421 -0.0120  0.8544
   39CHL1   H20 2863   3.529   5.387   7.725  0.1194 -0.2119  0.6656
   39CHL1   C21 2864   3.646   5.209   7.718 -0.1028 -0.0322  0.0043
   39CHL1  H21A 2865   3.643   5.118   7.782 -0.6753  1.0008  1.5166
   39CHL1  H21B 2866   3.724   5.274   7.763 -2.8898  3.2264  0.5119
   39CHL1  H21C 2867   3.662   5.181   7.612  1.6053  2.5685 -0.5190
   39CHL1   C22 2868   3.478   5.275   7.891  0.0206 -0.2458 -0.4367
   39CHL1  H22A 2869   3.367   5.280   7.890  0.0224  0.4413 -2.3973
   39CHL1  H22B 2870   3.494   5.170   7.924 -0.0043  0.3630  1.6545
   39CHL1   C23 2871   3.542   5.384   7.967 -0.8629 -0.5283 -0.4044
   39CHL1  H23A 2872   3.646   5.409   7.938 -0.0317 -0.7338  2.1041
   39CHL1  H23B 2873   3.488   5.479   7.952  1.6667  1.6101  2.6256
   39CHL1   C24 2874   3.550   5.353   8.116  0.3529  0.2598  0.0472
   39CHL1  H24A 2875   3.577   5.450   8.164  0.3723 -0.5662  1.7732
   39CHL1  H24B 2876   3.443   5.344   8.147  0.1439 -2.6171 -1.2480
   39CHL1   C25 2877   3.630   5.227   8.173 -0.0668 -0.4314 -0.3443
   39CHL1   H25 2878   3.604   5.130   8.123 -0.4332 -0.6587  0.2796
   39CHL1   C26 2879   3.778   5.229   8.139 -0.5802  0.5564  0.2136
   39CHL1  H26A 2880   3.837   5.148   8.186  0.4704  2.0654  1.6133
   39CHL1  H26B 2881   3.789   5.234   8.028 -1.0397  0.7107  0.1713
   39CHL1  H26C 2882   3.811   5.325   8.183  0.5632  0.5445 -0.5714
   39CHL1   C27 2883   3.613   5.211   8.326  0.1435 -0.8087  0.6908
   39CHL1  H27A 2884   3.649   5.113   8.364  2.0355  0.4660  2.3474
   39CHL1  H27B 2885   3.672   5.296   8.365 -1.1938  0.3477  0.2771
   39CHL1  H27C 2886   3.504   5.203   8.344  0.3241 -2.3748  1.2719
   40CHL1    C3 2887   5.623   5.661   6.810 -0.4969  0.2923 -0.1481
   40CHL1    H3 2888   5.627   5.751   6.744 -0.9555  1.0575  0.8486
   40CHL1    O3 2889   5.633   5.551   6.724 -0.5580 -0.3331  1.0200
   40CHL1   H3' 2890   5.583   5.480   6.765  0.1447 -0.8034  1.0810
   40CHL1    C4 2891   5.752   5.662   6.898 -0.3412 -0.2417  0.1217
   40CHL1   H4A 2892   5.762   5.557   6.934 -1.3500 -1.2744 -2.3420
   40CHL1   H4B 2893   5.843   5.670   6.835 -0.6119  0.3307 -0.2070
   40CHL1    C5 2894   5.732   5.759   7.018 -0.3186 -0.5829 -0.1136
   40CHL1    C6 2895   5.829   5.854   7.040  0.0591 -0.1628  0.0185
   40CHL1    H6 2896   5.911   5.876   6.971 -0.3220  1.1301 -0.0521
   40CHL1    C7 2897   5.825   5.940   7.169  0.5073  0.6210 -0.1537
   40CHL1   H7A 2898   5.923   5.940   7.223 -0.1530 -2.1433  1.2482
   40CHL1   H7B 2899   5.796   6.046   7.151 -0.5315 -0.1428 -3.6491
   40CHL1    C8 2900   5.728   5.872   7.276  0.8652 -1.0290  0.3314
   40CHL1    H8 2901   5.772   5.773   7.298  0.1513 -1.8618 -1.7663
   40CHL1   C14 2902   5.711   5.963   7.402  0.3903  0.2573  0.0410
   40CHL1   H14 2903   5.674   6.062   7.369 -1.8842  0.3864  2.5264
   40CHL1   C15 2904   5.840   5.988   7.489 -0.1509 -0.4548  0.0363
   40CHL1  H15A 2905   5.895   5.896   7.520  2.6151  1.1786  0.3378
   40CHL1  H15B 2906   5.919   6.046   7.437 -0.2088 -1.1829 -0.8960
   40CHL1   C16 2907   5.779   6.052   7.616 -0.1933 -0.2724  0.7170
   40CHL1  H16A 2908   5.822   5.994   7.701  1.8000 -2.4696 -1.6160
   40CHL1  H16B 2909   5.799   6.160   7.628 -2.3471  0.5986 -2.2305
   40CHL1   C17 2910   5.627   6.033   7.615  0.1133  0.5193  0.0623
   40CHL1   H17 2911   5.592   6.126   7.566  1.0780  1.1171  0.4654
   40CHL1   C13 2912   5.599   5.925   7.504 -0.2005 -0.0429 -0.1695
   40CHL1   C18 2913   5.618   5.787   7.566 -0.7257  0.2843  0.3068
   40CHL1  H18A 2914   5.711   5.790   7.626 -0.6724  2.6139  0.1835
   40CHL1  H18B 2915   5.537   5.757   7.636 -0.4330 -1.1998  0.0579
   40CHL1  H18C 2916   5.638   5.727   7.474  0.0470  2.2278 -0.8680
   40CHL1   C12 2917   5.471   5.939   7.428  0.3587 -0.4053  0.0592
   40CHL1  H12A 2918   5.383   5.918   7.492  0.3347 -0.8164 -0.1050
   40CHL1  H12B 2919   5.448   6.039   7.385 -2.9136 -1.3213 -0.5755
   40CHL1   C11 2920   5.466   5.845   7.310  0.1872  0.3138  0.1050
   40CHL1  H11A 2921   5.459   5.746   7.362  1.2073 -0.5577 -1.3501
   40CHL1  H11B 2922   5.374   5.858   7.249  1.0750  2.6435 -0.8489
   40CHL1    C9 2923   5.596   5.855   7.210  0.7941  0.0818 -0.9365
   40CHL1    H9 2924   5.578   5.954   7.165 -0.5885  1.6056  2.5819
   40CHL1   C10 2925   5.602   5.740   7.106 -0.0731  0.1874  0.3498
   40CHL1   C19 2926   5.607   5.600   7.179  0.0242  0.0055  0.4385
   40CHL1  H19A 2927   5.511   5.573   7.227 -0.2801  1.6591  0.7983
   40CHL1  H19B 2928   5.627   5.526   7.099  0.2503 -0.0223  0.5177
   40CHL1  H19C 2929   5.693   5.588   7.249 -0.1028  0.8770  0.7532
   40CHL1    C1 2930   5.492   5.755   7.004 -0.4162  0.0928  0.0590
   40CHL1   H1A 2931   5.396   5.742   7.059 -1.0917 -0.4245 -1.2097
   40CHL1   H1B 2932   5.492   5.855   6.956  0.0975  0.6135  1.1019
   40CHL1    C2 2933   5.500   5.644   6.898 -0.0568 -0.4526  0.6635
   40CHL1   H2A 2934   5.415   5.657   6.828 -0.0166 -3.7143 -0.1423
   40CHL1   H2B 2935   5.495   5.547   6.952  0.5602 -0.3006  1.0094
   40CHL1   C20 2936   5.557   6.022   7.755 -0.0775  0.0483  0.5203
   40CHL1   H20 2937   5.548   5.912   7.766  2.2558 -0.5118 -2.0493
   40CHL1   C21 2938   5.419   6.086   7.739  0.0712  0.2783  0.4041
   40CHL1  H21A 2939   5.382   6.070   7.635  0.8990  0.7836  0.0258
   40CHL1  H21B 2940   5.419   6.196   7.754 -1.1926  0.2724  0.5610
   40CHL1  H21C 2941   5.354   6.037   7.815  0.2621  2.3617  1.9940
   40CHL1   C22 2942   5.627   6.081   7.881  0.2664  0.1866 -0.1124
   40CHL1  H22A 2943   5.700   6.002   7.906 -0.6085 -1.0830 -1.4217
   40CHL1  H22B 2944   5.677   6.178   7.859  0.8223  0.3807  1.7976
   40CHL1   C23 2945   5.533   6.104   8.010  0.0444 -0.3357  0.3805
   40CHL1  H23A 2946   5.462   6.180   7.974  0.2355 -0.9258 -1.3484
   40CHL1  H23B 2947   5.468   6.014   8.017 -0.8330  0.2485 -0.1277
   40CHL1   C24 2948   5.604   6.142   8.140 -0.2850  0.2548  0.1181
   40CHL1  H24A 2949   5.539   6.136   8.229  1.1989  0.1166  1.2282
   40CHL1  H24B 2950   5.685   6.067   8.154 -0.9080 -0.5410 -0.4361
   40CHL1   C25 2951   5.671   6.282   8.148 -0.2408  0.2114 -0.2917
   40CHL1   H25 2952   5.597   6.352   8.103  1.4916  1.8264 -0.7636
   40CHL1   C26 2953   5.681   6.354   8.288 -0.4633  0.4587 -0.1766
   40CHL1  H26A 2954   5.762   6.295   8.336  0.2832  1.7654  0.2502
   40CHL1  H26B 2955   5.727   6.455   8.278  1.8316 -0.4285  0.6521
   40CHL1  H26C 2956   5.585   6.342   8.342 -0.8533  0.1366 -0.9390
   40CHL1   C27 2957   5.811   6.289   8.081 -0.4746 -0.1273  0.1125
   40CHL1  H27A 2958   5.885   6.216   8.120  0.6687  1.3130  0.7303
   40CHL1  H27B 2959   5.800   6.262   7.973  0.2294  0.5353 -0.1348
   40CHL1  H27C 2960   5.861   6.388   8.080 -0.8251  0.0693 -1.4621
   41CHL1    C3 2961   0.609   4.387   6.787  0.4627 -0.1775 -0.2153
   41CHL1    H3 2962   0.665   4.293   6.806 -0.0779 -0.1436  1.7441
   41CHL1    O3 2963   0.612   4.407   6.649 -0.4009  0.0634 -0.2792
   41CHL1   H3' 2964   0.572   4.493   6.634  0.1456  0.8697  2.4400
   41CHL1    C4 2965   0.468   4.386   6.849 -0.0858 -0.8358 -0.7518
   41CHL1   H4A 2966   0.427   4.483   6.811  0.8911 -0.5439 -1.0820
   41CHL1   H4B 2967   0.406   4.308   6.799 -0.2421 -1.7119  0.7663
   41CHL1    C5 2968   0.468   4.372   7.002 -0.2348 -0.1752 -0.6011
   41CHL1    C6 2969   0.407   4.266   7.061 -0.3394 -0.1084  0.2811
   41CHL1    H6 2970   0.372   4.174   7.011 -1.9153  0.1715  0.8188
   41CHL1    C7 2971   0.407   4.257   7.212 -0.4282 -0.3984 -0.1999
   41CHL1   H7A 2972   0.312   4.215   7.251  0.0216 -3.0411 -1.7228
   41CHL1   H7B 2973   0.477   4.179   7.248 -0.7834 -0.9749 -0.7463
   41CHL1    C8 2974   0.444   4.390   7.281  0.0981  0.2862 -0.3525
   41CHL1    H8 2975   0.357   4.459   7.283 -0.4164 -0.3464  1.8663
   41CHL1   C14 2976   0.479   4.364   7.428  0.1689 -0.3337  0.2673
   41CHL1   H14 2977   0.576   4.311   7.431 -0.2491 -1.1824 -0.5477
   41CHL1   C15 2978   0.383   4.286   7.515 -0.0396  0.1073 -0.6076
   41CHL1  H15A 2979   0.276   4.318   7.509 -0.6282 -1.2610  1.5939
   41CHL1  H15B 2980   0.386   4.180   7.483 -1.7293 -0.6938  1.6258
   41CHL1   C16 2981   0.425   4.312   7.658 -0.1966 -0.0996 -0.7171
   41CHL1  H16A 2982   0.332   4.327   7.717  2.1444 -1.3765  3.7657
   41CHL1  H16B 2983   0.478   4.223   7.697 -0.2739 -0.0305 -0.4545
   41CHL1   C17 2984   0.524   4.433   7.654  0.0793  0.6089  0.5987
   41CHL1   H17 2985   0.620   4.377   7.646 -0.7486 -0.6967 -0.7684
   41CHL1   C13 2986   0.507   4.491   7.507 -0.6853  0.0556  0.5637
   41CHL1   C18 2987   0.393   4.591   7.513  0.2308  0.3386 -0.0612
   41CHL1  H18A 2988   0.343   4.615   7.417  1.2342  1.4235 -0.3437
   41CHL1  H18B 2989   0.305   4.554   7.570 -1.5140 -0.2173 -2.9685
   41CHL1  H18C 2990   0.432   4.686   7.556 -1.5916  0.5744  1.1844
   41CHL1   C12 2991   0.631   4.548   7.450  0.1860  0.4492  0.2114
   41CHL1  H12A 2992   0.663   4.642   7.499 -1.3820  1.0813  0.1031
   41CHL1  H12B 2993   0.716   4.477   7.459 -1.2499 -1.0523  2.8619
   41CHL1   C11 2994   0.608   4.580   7.298 -0.4095 -1.0239 -0.2061
   41CHL1  H11A 2995   0.538   4.667   7.294 -1.0628 -1.5797 -1.2319
   41CHL1  H11B 2996   0.703   4.624   7.263 -0.2971  0.0512  1.3373
   41CHL1    C9 2997   0.566   4.456   7.215  0.9311  0.6234 -0.6614
   41CHL1    H9 2998   0.647   4.381   7.223  0.0852 -0.4799 -1.9632
   41CHL1   C10 2999   0.544   4.481   7.068  0.3585  0.5529 -0.0841
   41CHL1   C19 3000   0.458   4.613   7.055  0.1816  0.0854  0.8941
   41CHL1  H19A 3001   0.514   4.698   7.100  0.6473 -0.5205  1.4711
   41CHL1  H19B 3002   0.432   4.650   6.953 -2.2156  1.2079  1.8367
   41CHL1  H19C 3003   0.366   4.616   7.116 -0.5617  3.1519 -0.1667
   41CHL1    C1 3004   0.676   4.487   6.991  0.4921 -0.7540 -0.4900
   41CHL1   H1A 3005   0.732   4.568   7.042 -3.0017  0.9575  1.0077
   41CHL1   H1B 3006   0.735   4.400   7.026 -1.6918 -1.8512  0.7013
   41CHL1    C2 3007   0.690   4.498   6.841  0.0801  0.1874  0.1475
   41CHL1   H2A 3008   0.796   4.504   6.807  0.3701  2.7395  1.2502
   41CHL1   H2B 3009   0.641   4.593   6.809 -0.0409  0.8817  2.2737
   41CHL1   C20 3010   0.527   4.518   7.781 -0.5755 -0.4079  0.4625
   41CHL1   H20 3011   0.439   4.586   7.783 -0.4922 -0.1659 -1.8196
   41CHL1   C21 3012   0.638   4.630   7.769  0.3571  0.7642  0.7160
   41CHL1  H21A 3013   0.604   4.706   7.696 -0.7835 -1.5105 -1.2733
   41CHL1  H21B 3014   0.737   4.592   7.735 -0.0006 -1.1615  1.6890
   41CHL1  H21C 3015   0.661   4.678   7.867  0.5820 -0.3226  1.2216
   41CHL1   C22 3016   0.538   4.430   7.909 -0.3321  0.1408 -0.2214
   41CHL1  H22A 3017   0.454   4.357   7.918  0.7584 -1.0880  0.2102
   41CHL1  H22B 3018   0.624   4.361   7.897  1.9320  2.9584 -1.4934
   41CHL1   C23 3019   0.562   4.512   8.036  0.6531 -0.0370 -0.4828
   41CHL1  H23A 3020   0.668   4.535   8.060  0.0523  3.7918 -0.7833
   41CHL1  H23B 3021   0.520   4.614   8.021  1.6364  0.5743  0.7466
   41CHL1   C24 3022   0.491   4.460   8.164 -0.4124 -0.7728  0.0413
   41CHL1  H24A 3023   0.392   4.417   8.139 -1.0499 -0.4018  1.8154
   41CHL1  H24B 3024   0.547   4.377   8.213 -0.0906 -0.3715  0.3552
   41CHL1   C25 3025   0.467   4.573   8.277 -0.2537  1.1627  0.5754
   41CHL1   H25 3026   0.407   4.655   8.233  0.7912  0.9843 -1.2962
   41CHL1   C26 3027   0.388   4.523   8.400 -0.2485 -0.0830  0.7132
   41CHL1  H26A 3028   0.449   4.470   8.476 -0.2045  0.8685  1.3594
   41CHL1  H26B 3029   0.345   4.612   8.451 -1.1509  0.1935 -0.4787
   41CHL1  H26C 3030   0.299   4.461   8.376 -1.7157  0.5305  4.0596
   41CHL1   C27 3031   0.606   4.637   8.319 -0.2299  0.4496  0.2547
   41CHL1  H27A 3032   0.590   4.721   8.390  1.3480  0.5112  0.5819
   41CHL1  H27B 3033   0.678   4.564   8.363 -0.3222  0.6796  0.7868
   41CHL1  H27C 3034   0.664   4.673   8.231  4.4057 -1.4347  2.2284
   42CHL1    C3 3035   1.231   2.528   6.865  0.9002 -0.3886  0.4871
   42CHL1    H3 3036   1.341   2.514   6.878  1.1343  1.8210  1.2917
   42CHL1    O3 3037   1.205   2.512   6.732 -0.1273 -0.0917  0.8683
   42CHL1   H3' 3038   1.229   2.597   6.693  1.8096 -0.5966  0.8742
   42CHL1    C4 3039   1.153   2.437   6.952  0.1738  0.1720 -0.0644
   42CHL1   H4A 3040   1.042   2.432   6.940 -0.0912 -2.4449  2.3399
   42CHL1   H4B 3041   1.179   2.336   6.915 -0.5915  0.2747 -0.9262
   42CHL1    C5 3042   1.179   2.446   7.099 -0.2353 -0.1724  0.4115
   42CHL1    C6 3043   1.220   2.341   7.177 -0.7268 -0.1158  0.6644
   42CHL1    H6 3044   1.231   2.244   7.127 -0.4697  0.3522 -0.2182
   42CHL1    C7 3045   1.232   2.346   7.323 -0.7415  0.1934 -0.3268
   42CHL1   H7A 3046   1.179   2.257   7.365 -0.2438 -1.2320 -2.5015
   42CHL1   H7B 3047   1.338   2.336   7.353 -1.1274  1.3520  1.5625
   42CHL1    C8 3048   1.174   2.477   7.379  0.3500  0.0643 -0.1899
   42CHL1    H8 3049   1.063   2.471   7.383  0.4083 -2.2193 -0.3248
   42CHL1   C14 3050   1.225   2.496   7.522 -0.2652  0.2111 -0.2557
   42CHL1   H14 3051   1.334   2.509   7.509 -0.4040  1.1117 -0.6151
   42CHL1   C15 3052   1.216   2.382   7.628  0.0584 -0.9525  0.0121
   42CHL1  H15A 3053   1.113   2.341   7.626 -0.5536  0.5653 -0.2602
   42CHL1  H15B 3054   1.284   2.296   7.604 -0.0819 -0.7237 -1.2903
   42CHL1   C16 3055   1.254   2.449   7.753  0.1005 -0.5780 -1.2059
   42CHL1  H16A 3056   1.176   2.437   7.831  1.2473 -0.4785 -0.0043
   42CHL1  H16B 3057   1.348   2.404   7.790 -0.5547 -2.1950 -1.4360
   42CHL1   C17 3058   1.275   2.605   7.726 -0.2658  0.2689 -0.4520
   42CHL1   H17 3059   1.377   2.631   7.690 -0.5698  1.7530 -0.3253
   42CHL1   C13 3060   1.190   2.626   7.599 -1.4238 -0.1319  0.2151
   42CHL1   C18 3061   1.046   2.631   7.645  0.6282 -0.2658 -0.4167
   42CHL1  H18A 3062   1.034   2.728   7.697  1.8693 -0.5561  0.4450
   42CHL1  H18B 3063   0.978   2.634   7.557 -1.1590 -4.3351  0.5525
   42CHL1  H18C 3064   1.009   2.551   7.713 -3.0996  0.3089 -1.5270
   42CHL1   C12 3065   1.228   2.747   7.514  0.7094 -0.0048  0.4265
   42CHL1  H12A 3066   1.187   2.836   7.566 -1.2718 -0.8128  0.3109
   42CHL1  H12B 3067   1.339   2.754   7.504  0.9646 -1.6072  1.7527
   42CHL1   C11 3068   1.166   2.738   7.372 -0.0639 -0.0485  0.4998
   42CHL1  H11A 3069   1.055   2.747   7.371  0.0509  2.0035 -0.9427
   42CHL1  H11B 3070   1.206   2.817   7.305 -1.4297 -1.3123 -1.9581
   42CHL1    C9 3071   1.210   2.602   7.299  0.0015 -1.1293  0.3837
   42CHL1    H9 3072   1.321   2.607   7.296 -0.0073  1.5776  1.4420
   42CHL1   C10 3073   1.159   2.590   7.149  0.0973  0.4766 -0.2884
   42CHL1   C19 3074   1.004   2.623   7.145 -0.7236 -0.4900 -0.1308
   42CHL1  H19A 3075   0.984   2.732   7.147  1.1361 -0.1214  0.9169
   42CHL1  H19B 3076   0.951   2.585   7.055  1.1261 -1.8637 -0.7049
   42CHL1  H19C 3077   0.953   2.584   7.237 -0.4543  1.4365  0.8920
   42CHL1    C1 3078   1.237   2.690   7.056  0.3946  0.0131  0.1584
   42CHL1   H1A 3079   1.201   2.794   7.070 -0.7088 -0.1796 -1.0633
   42CHL1   H1B 3080   1.345   2.667   7.069  0.1312 -1.1181  0.4218
   42CHL1    C2 3081   1.201   2.669   6.903 -0.0501 -0.3752 -0.1233
   42CHL1   H2A 3082   1.265   2.738   6.844  0.9931 -1.1202  0.1138
   42CHL1   H2B 3083   1.092   2.690   6.898 -0.0876  0.0429  1.7145
   42CHL1   C20 3084   1.252   2.691   7.850 -0.2773 -0.2572  0.4179
   42CHL1   H20 3085   1.147   2.676   7.885 -0.4482  1.3086  0.6580
   42CHL1   C21 3086   1.260   2.839   7.823 -0.3579 -0.6629 -0.0124
   42CHL1  H21A 3087   1.160   2.873   7.790 -0.1933  2.0932  2.0409
   42CHL1  H21B 3088   1.344   2.860   7.753 -0.3564 -1.2757 -0.2069
   42CHL1  H21C 3089   1.271   2.898   7.916 -1.4699 -0.3444 -0.0726
   42CHL1   C22 3090   1.338   2.650   7.974  0.1946 -0.4165 -0.0222
   42CHL1  H22A 3091   1.345   2.741   8.037  1.2937  0.4773 -1.3608
   42CHL1  H22B 3092   1.293   2.563   8.025 -0.7241 -0.1554 -0.3659
   42CHL1   C23 3093   1.486   2.614   7.953 -0.6202  0.1597 -0.3836
   42CHL1  H23A 3094   1.500   2.538   7.873 -0.2221  0.7949 -0.9262
   42CHL1  H23B 3095   1.539   2.705   7.920 -1.7389  0.2102 -2.1894
   42CHL1   C24 3096   1.543   2.560   8.087  0.4613 -0.3358 -0.2541
   42CHL1  H24A 3097   1.511   2.617   8.177  0.6389 -2.5513  1.2723
   42CHL1  H24B 3098   1.510   2.455   8.101  0.0557  0.0234  1.7207
   42CHL1   C25 3099   1.696   2.541   8.100 -0.5530 -0.3791 -0.7639
   42CHL1   H25 3100   1.742   2.486   8.015 -0.6266 -1.7176  0.0378
   42CHL1   C26 3101   1.761   2.683   8.105  0.4056 -0.5908  0.2900
   42CHL1  H26A 3102   1.734   2.753   8.023  1.1889  0.7840  1.1568
   42CHL1  H26B 3103   1.738   2.742   8.196  0.3188  0.2325 -0.2548
   42CHL1  H26C 3104   1.872   2.679   8.102  0.5060  1.0676  0.7918
   42CHL1   C27 3105   1.728   2.473   8.237 -0.0804 -0.4181  0.5501
   42CHL1  H27A 3106   1.838   2.472   8.248  0.1507 -0.0618 -1.3514
   42CHL1  H27B 3107   1.682   2.374   8.218  0.4260 -0.3582 -1.1908
   42CHL1  H27C 3108   1.673   2.518   8.322 -1.9425 -0.2367 -0.6789
   43CHL1    C3 3109   6.707   5.682   6.845 -0.8191 -0.2568 -0.0680
   43CHL1    H3 3110   6.690   5.790   6.862 -0.9752 -0.7320  3.4525
   43CHL1    O3 3111   6.684   5.660   6.710  0.6135  0.4987 -0.3102
   43CHL1   H3' 3112   6.763   5.630   6.663 -0.1663 -2.0864 -0.1257
   43CHL1    C4 3113   6.854   5.643   6.890 -0.1789  0.0199  0.5668
   43CHL1   H4A 3114   6.874   5.538   6.859  3.5317  1.0330 -0.9508
   43CHL1   H4B 3115   6.923   5.705   6.828  3.9744 -2.2030  2.5709
   43CHL1    C5 3116   6.867   5.666   7.039 -0.4805  0.1054  0.3128
   43CHL1    C6 3117   6.963   5.738   7.091 -0.6123  0.1918  0.3235
   43CHL1    H6 3118   7.040   5.788   7.030  0.3117 -1.3057  0.2050
   43CHL1    C7 3119   6.998   5.766   7.233 -0.0731 -0.0713  0.1712
   43CHL1   H7A 3120   7.108   5.756   7.242  0.2001 -2.0931 -3.5644
   43CHL1   H7B 3121   6.972   5.871   7.258  0.2092 -0.1913  1.0158
   43CHL1    C8 3122   6.921   5.664   7.324  0.0440  0.4030  0.3563
   43CHL1    H8 3123   6.987   5.574   7.320 -1.3469 -0.7571  1.9401
   43CHL1   C14 3124   6.930   5.697   7.469 -0.1939  0.4818 -0.2146
   43CHL1   H14 3125   6.884   5.797   7.488  0.2918  0.3201  2.1102
   43CHL1   C15 3126   7.073   5.703   7.517 -0.4513  0.5035  0.5581
   43CHL1  H15A 3127   7.137   5.621   7.479  0.5933  1.8801 -0.7722
   43CHL1  H15B 3128   7.122   5.800   7.492 -0.6622  0.9473  1.7721
   43CHL1   C16 3129   7.053   5.694   7.666  0.1801  0.4058 -0.2918
   43CHL1  H16A 3130   7.111   5.608   7.705 -0.3043 -0.7931 -2.1194
   43CHL1  H16B 3131   7.077   5.787   7.723  2.3775 -0.1942 -0.1358
   43CHL1   C17 3132   6.900   5.660   7.694 -0.2609  0.3749 -0.1966
   43CHL1   H17 3133   6.855   5.760   7.712  1.4896  0.8870  1.6646
   43CHL1   C13 3134   6.857   5.606   7.559  0.2898 -0.2464  0.0730
   43CHL1   C18 3135   6.902   5.454   7.546 -0.1618  0.0232  0.3174
   43CHL1  H18A 3136   7.003   5.438   7.589 -0.8640  0.3348  2.1525
   43CHL1  H18B 3137   6.829   5.390   7.600 -0.0567  1.2551  1.9750
   43CHL1  H18C 3138   6.899   5.427   7.438 -2.8129  1.7242 -0.1238
   43CHL1   C12 3139   6.708   5.597   7.525  1.2906 -0.7288  0.6492
   43CHL1  H12A 3140   6.648   5.530   7.589 -1.3762 -0.2235 -1.1733
   43CHL1  H12B 3141   6.664   5.698   7.542  0.3329 -1.2111  1.1060
   43CHL1   C11 3142   6.677   5.568   7.380 -0.2550 -0.6855 -0.2541
   43CHL1  H11A 3143   6.698   5.459   7.374 -0.9636 -0.8060 -0.7235
   43CHL1  H11B 3144   6.574   5.603   7.356  0.4764  0.1520 -2.3985
   43CHL1    C9 3145   6.776   5.655   7.285 -0.3389  0.5206  0.7584
   43CHL1    H9 3146   6.733   5.757   7.280  1.1090  1.1065 -0.5298
   43CHL1   C10 3147   6.762   5.607   7.131 -0.0605 -0.3798  0.4841
   43CHL1   C19 3148   6.790   5.452   7.130  0.0724  0.2659 -0.2024
   43CHL1  H19A 3149   6.798   5.391   7.037 -1.7479 -0.8353  0.3078
   43CHL1  H19B 3150   6.872   5.420   7.198 -0.8100 -0.6134  0.4727
   43CHL1  H19C 3151   6.699   5.412   7.178  1.1713 -0.5291  1.3120
   43CHL1    C1 3152   6.621   5.635   7.076  0.5004 -0.8508 -0.2428
   43CHL1   H1A 3153   6.548   5.574   7.134  0.4886  1.2650  2.1703
   43CHL1   H1B 3154   6.597   5.743   7.086  1.2811 -0.4412 -2.3863
   43CHL1    C2 3155   6.597   5.613   6.929 -0.3049  0.1831  0.5436
   43CHL1   H2A 3156   6.501   5.663   6.902  0.1674  0.1133 -1.4060
   43CHL1   H2B 3157   6.590   5.503   6.912 -0.0492 -0.0313  1.7633
   43CHL1   C20 3158   6.875   5.573   7.822 -0.5697 -0.3262  0.7953
   43CHL1   H20 3159   6.879   5.465   7.798  2.9662  0.4878 -3.6418
   43CHL1   C21 3160   6.725   5.599   7.867 -0.3498 -0.0685  0.1798
   43CHL1  H21A 3161   6.697   5.707   7.870  0.4148  0.1990 -1.3245
   43CHL1  H21B 3162   6.712   5.567   7.972 -1.6018 -0.2467 -0.0124
   43CHL1  H21C 3163   6.662   5.548   7.792  0.2935  0.9308 -1.0765
   43CHL1   C22 3164   6.966   5.608   7.939 -0.1822  0.4058 -0.2150
   43CHL1  H22A 3165   7.072   5.598   7.909 -0.1813  1.2443 -0.4943
   43CHL1  H22B 3166   6.960   5.713   7.974  3.2000  0.9039 -0.7754
   43CHL1   C23 3167   6.948   5.511   8.057 -0.2070  0.3466 -0.6315
   43CHL1  H23A 3168   6.865   5.548   8.122 -0.0532  1.6271 -1.1368
   43CHL1  H23B 3169   6.929   5.407   8.023  0.3795 -0.6834  1.9310
   43CHL1   C24 3170   7.071   5.494   8.152  0.2857  0.2398 -0.1293
   43CHL1  H24A 3171   7.153   5.438   8.104  0.3443  0.7986 -0.6931
   43CHL1  H24B 3172   7.098   5.601   8.165  0.3474  0.1542  0.4826
   43CHL1   C25 3173   7.044   5.429   8.291  0.6602 -0.5191 -0.3369
   43CHL1   H25 3174   6.935   5.448   8.303  0.2595 -1.2886 -2.2647
   43CHL1   C26 3175   7.062   5.275   8.292 -0.3118 -0.2386 -0.8184
   43CHL1  H26A 3176   6.984   5.231   8.227 -0.7438  1.8011 -1.7420
   43CHL1  H26B 3177   7.162   5.246   8.253  0.7857  1.3827  0.6539
   43CHL1  H26C 3178   7.037   5.235   8.393  1.0109 -0.4470 -0.5477
   43CHL1   C27 3179   7.125   5.491   8.407  0.1236 -0.9161  0.0151
   43CHL1  H27A 3180   7.125   5.600   8.385 -0.2291 -0.6036  1.4820
   43CHL1  H27B 3181   7.076   5.473   8.505 -0.7989 -0.6125 -0.3798
   43CHL1  H27C 3182   7.226   5.445   8.400  1.2003  1.1534  1.1703
   44CHL1    C3 3183   1.625   4.212   6.523 -0.1344  0.2784  0.8111
   44CHL1    H3 3184   1.710   4.147   6.554 -0.0172 -0.7646 -1.4620
   44CHL1    O3 3185   1.624   4.234   6.386  0.4756  0.7806  0.4819
   44CHL1   H3' 3186   1.553   4.297   6.376  0.4211  0.6551  0.0771
   44CHL1    C4 3187   1.498   4.137   6.573  0.1687 -0.6284 -0.1471
   44CHL1   H4A 3188   1.418   4.210   6.548  1.1124  1.1677  1.8079
   44CHL1   H4B 3189   1.471   4.042   6.522  1.5402 -0.7354 -0.7152
   44CHL1    C5 3190   1.501   4.119   6.722 -1.4895  0.1916  0.4249
   44CHL1    C6 3191   1.486   3.993   6.782  1.1778 -0.5528 -0.0934
   44CHL1    H6 3192   1.474   3.905   6.718  0.9811  0.0189 -0.8593
   44CHL1    C7 3193   1.485   3.976   6.928  0.7402  0.0329 -0.2120
   44CHL1   H7A 3194   1.398   3.912   6.953  1.8112 -2.6917 -2.8826
   44CHL1   H7B 3195   1.575   3.918   6.959  1.5782  1.1890 -0.4341
   44CHL1    C8 3196   1.477   4.104   7.015  0.1803  0.2669  0.5846
   44CHL1    H8 3197   1.373   4.141   7.016  0.0200 -0.1761  0.5213
   44CHL1   C14 3198   1.520   4.074   7.162 -0.2013 -0.6235  0.3007
   44CHL1   H14 3199   1.627   4.044   7.164 -0.6653 -2.3872  0.2239
   44CHL1   C15 3200   1.441   3.973   7.238  0.1995  0.6302 -0.4533
   44CHL1  H15A 3201   1.332   3.993   7.235  0.2382  1.9030  2.9134
   44CHL1  H15B 3202   1.455   3.870   7.197  1.5202  0.7580 -0.3833
   44CHL1   C16 3203   1.484   3.998   7.386 -0.0188 -0.0634 -0.0869
   44CHL1  H16A 3204   1.391   4.017   7.444  1.4968 -0.5768  2.6913
   44CHL1  H16B 3205   1.542   3.913   7.429 -2.7913 -1.4201  1.2254
   44CHL1   C17 3206   1.563   4.138   7.386  0.1822  0.2788  0.0907
   44CHL1   H17 3207   1.668   4.103   7.396  0.7228  0.2522 -3.8093
   44CHL1   C13 3208   1.520   4.199   7.249  0.0357 -0.1489  0.1087
   44CHL1   C18 3209   1.376   4.248   7.254 -0.2920  0.3578 -0.3390
   44CHL1  H18A 3210   1.334   4.270   7.153 -1.3710 -2.2512 -0.5152
   44CHL1  H18B 3211   1.307   4.185   7.314 -1.4928  2.5407  0.7143
   44CHL1  H18C 3212   1.387   4.352   7.294  1.5768  0.3480 -0.7280
   44CHL1   C12 3213   1.625   4.299   7.188 -0.3910 -0.4231 -0.4475
   44CHL1  H12A 3214   1.636   4.386   7.256  0.5452  1.0435 -2.3777
   44CHL1  H12B 3215   1.724   4.250   7.197 -0.7736 -0.9289  1.5470
   44CHL1   C11 3216   1.572   4.336   7.052 -0.3219  0.5997  0.0531
   44CHL1  H11A 3217   1.474   4.387   7.059 -1.3444 -0.9872 -1.7538
   44CHL1  H11B 3218   1.637   4.408   6.998  0.7935 -0.6394 -0.3061
   44CHL1    C9 3219   1.568   4.215   6.957 -0.1371 -0.8166 -0.6443
   44CHL1    H9 3220   1.673   4.180   6.953 -0.2214 -1.0297 -1.0001
   44CHL1   C10 3221   1.533   4.249   6.806 -0.0624  0.1140 -0.3939
   44CHL1   C19 3222   1.408   4.334   6.810  0.3634 -0.2030 -0.3865
   44CHL1  H19A 3223   1.361   4.348   6.710  0.5409 -1.7086 -0.7073
   44CHL1  H19B 3224   1.325   4.295   6.873 -1.0389  0.9515 -1.4258
   44CHL1  H19C 3225   1.425   4.436   6.851 -4.3034  0.9204 -0.5809
   44CHL1    C1 3226   1.645   4.332   6.746 -0.4699 -0.0560 -0.0130
   44CHL1   H1A 3227   1.665   4.431   6.792  0.6369 -0.1288 -0.3080
   44CHL1   H1B 3228   1.745   4.287   6.765 -0.4176 -0.6392 -1.5505
   44CHL1    C2 3229   1.642   4.349   6.589 -0.1114  0.3189 -0.7682
   44CHL1   H2A 3230   1.733   4.403   6.555  0.1887 -0.0532 -0.5700
   44CHL1   H2B 3231   1.556   4.410   6.555 -3.8001 -2.3942  2.7833
   44CHL1   C20 3232   1.534   4.213   7.519 -0.3753 -0.1737  0.0357
   44CHL1   H20 3233   1.433   4.259   7.522  0.9262  2.8598  1.2551
   44CHL1   C21 3234   1.624   4.338   7.532 -1.1702  0.0409 -0.1142
   44CHL1  H21A 3235   1.729   4.313   7.508 -0.7237  2.1948 -0.5932
   44CHL1  H21B 3236   1.627   4.372   7.638  0.9265 -0.0328 -0.1132
   44CHL1  H21C 3237   1.579   4.419   7.471 -2.2506 -0.1884  0.3468
   44CHL1   C22 3238   1.546   4.121   7.651 -0.5404  0.0693  0.9135
   44CHL1  H22A 3239   1.586   4.020   7.626  3.0438  1.6953 -0.6159
   44CHL1  H22B 3240   1.622   4.163   7.721  0.3453  0.5758 -0.3345
   44CHL1   C23 3241   1.409   4.104   7.715  0.1193 -0.4473 -0.2127
   44CHL1  H23A 3242   1.358   4.203   7.712  0.9331  0.0040  0.4768
   44CHL1  H23B 3243   1.346   4.038   7.651  0.5969 -1.4539  0.3274
   44CHL1   C24 3244   1.398   4.055   7.856 -0.1480  0.1986 -0.4214
   44CHL1  H24A 3245   1.296   4.020   7.884  0.7310 -2.5983 -0.3437
   44CHL1  H24B 3246   1.462   3.964   7.863  0.1418  0.3674 -0.8338
   44CHL1   C25 3247   1.435   4.158   7.954 -0.0600 -0.2807 -0.3633
   44CHL1   H25 3248   1.531   4.204   7.921  0.0096 -0.6765 -0.7201
   44CHL1   C26 3249   1.334   4.271   7.977  0.0795 -0.1211  0.2010
   44CHL1  H26A 3250   1.290   4.317   7.886  0.8407  3.2953  1.4086
   44CHL1  H26B 3251   1.250   4.222   8.032  1.3371 -2.2104  0.3834
   44CHL1  H26C 3252   1.362   4.359   8.039  0.2162  1.5371 -2.1205
   44CHL1   C27 3253   1.465   4.090   8.088  0.5414 -0.1904 -0.5666
   44CHL1  H27A 3254   1.489   4.156   8.174 -0.6081  0.7180 -0.9228
   44CHL1  H27B 3255   1.376   4.030   8.116 -1.5122  3.3097  1.0504
   44CHL1  H27C 3256   1.540   4.008   8.081 -0.6011 -1.2387 -0.9996
   45CHL1    C3 3257   1.685   3.538   6.789 -0.3630 -0.8184 -0.7033
   45CHL1    H3 3258   1.759   3.617   6.809 -1.2390 -0.7625  2.9141
   45CHL1    O3 3259   1.670   3.497   6.656  0.0859 -0.8955  0.6025
   45CHL1   H3' 3260   1.597   3.435   6.665  0.0583 -0.6262  2.5881
   45CHL1    C4 3261   1.732   3.414   6.866  0.6729  0.1496 -0.0663
   45CHL1   H4A 3262   1.668   3.327   6.840  0.5206  0.0536  0.6147
   45CHL1   H4B 3263   1.836   3.404   6.827  1.0458  0.3812  0.8396
   45CHL1    C5 3264   1.732   3.433   7.019  0.3403 -0.2738  0.3461
   45CHL1    C6 3265   1.847   3.425   7.084 -0.4249  0.4593  0.3465
   45CHL1    H6 3266   1.934   3.383   7.031 -0.5055 -1.1592  1.4346
   45CHL1    C7 3267   1.868   3.442   7.230 -0.4651  0.0860  0.8972
   45CHL1   H7A 3268   1.931   3.357   7.266 -1.3925 -0.6910  0.7291
   45CHL1   H7B 3269   1.928   3.535   7.244 -1.3698  0.8311 -0.0810
   45CHL1    C8 3270   1.733   3.439   7.305  0.1015 -0.8611 -0.6758
   45CHL1    H8 3271   1.691   3.337   7.304  0.7310 -1.1810  1.1769
   45CHL1   C14 3272   1.758   3.495   7.449  0.1893 -0.5429  0.6734
   45CHL1   H14 3273   1.800   3.597   7.439  3.0737 -1.4050  2.6690
   45CHL1   C15 3274   1.862   3.429   7.543 -0.0629  0.0800  0.1802
   45CHL1  H15A 3275   1.838   3.322   7.559 -0.4098  0.4120  2.0986
   45CHL1  H15B 3276   1.965   3.445   7.505 -0.6965  0.7097 -1.4067
   45CHL1   C16 3277   1.837   3.496   7.678 -0.6757 -0.1214  0.2640
   45CHL1  H16A 3278   1.821   3.419   7.756  2.6613 -1.5467 -0.2755
   45CHL1  H16B 3279   1.920   3.565   7.702  0.0152 -0.1056 -1.9183
   45CHL1   C17 3280   1.706   3.576   7.664  1.0595  0.1781  0.1137
   45CHL1   H17 3281   1.720   3.682   7.635  0.8077  0.7780  2.0431
   45CHL1   C13 3282   1.631   3.519   7.534 -0.2925 -0.0201 -0.2193
   45CHL1   C18 3283   1.570   3.381   7.571 -0.0469 -0.0723 -0.7047
   45CHL1  H18A 3284   1.479   3.392   7.633  1.3133 -0.9844  1.5866
   45CHL1  H18B 3285   1.544   3.333   7.474 -1.2314  1.0628 -0.9774
   45CHL1  H18C 3286   1.644   3.313   7.620  0.0620  0.2420 -0.4297
   45CHL1   C12 3287   1.533   3.610   7.466  0.8225  0.4780  0.4361
   45CHL1  H12A 3288   1.447   3.624   7.535  1.0796  0.1492  0.8276
   45CHL1  H12B 3289   1.569   3.715   7.460  0.8967  0.4044 -0.4380
   45CHL1   C11 3290   1.507   3.555   7.323  0.2255 -0.1113 -0.4914
   45CHL1  H11A 3291   1.461   3.454   7.330  0.7911 -0.2236  2.9904
   45CHL1  H11B 3292   1.437   3.625   7.273 -0.3317  1.1234  1.9064
   45CHL1    C9 3293   1.631   3.533   7.234 -1.1026 -0.1786  0.1147
   45CHL1    H9 3294   1.680   3.631   7.215 -0.7599 -0.1136  1.2935
   45CHL1   C10 3295   1.600   3.487   7.083 -0.3568  0.2666 -0.1519
   45CHL1   C19 3296   1.505   3.366   7.075  0.0800  0.0529 -0.7101
   45CHL1  H19A 3297   1.555   3.285   7.131 -1.1114  0.6579  1.3468
   45CHL1  H19B 3298   1.408   3.388   7.124 -0.0421 -0.1994 -0.8365
   45CHL1  H19C 3299   1.476   3.343   6.970  0.8188  1.0545 -1.1508
   45CHL1    C1 3300   1.556   3.609   6.996 -0.1060 -0.1934  0.4567
   45CHL1   H1A 3301   1.455   3.644   7.026  0.2178 -0.7991  2.3698
   45CHL1   H1B 3302   1.635   3.687   7.005  0.9737 -1.3667  1.5237
   45CHL1    C2 3303   1.553   3.585   6.844  1.0814 -0.4684  0.2475
   45CHL1   H2A 3304   1.529   3.684   6.798  0.1858 -1.0291 -0.5269
   45CHL1   H2B 3305   1.470   3.515   6.820  0.6875  0.3694 -0.9552
   45CHL1   C20 3306   1.634   3.584   7.798 -0.4242 -0.1209 -1.0501
   45CHL1   H20 3307   1.638   3.478   7.832 -0.1980 -0.6024 -2.5201
   45CHL1   C21 3308   1.490   3.635   7.781  0.3141 -0.4355  0.0933
   45CHL1  H21A 3309   1.417   3.566   7.733 -0.1593  1.5626 -2.2510
   45CHL1  H21B 3310   1.498   3.727   7.719 -2.5927 -0.4441 -0.3992
   45CHL1  H21C 3311   1.441   3.653   7.879 -0.5829 -1.4057 -0.1663
   45CHL1   C22 3312   1.709   3.677   7.897  0.4426  0.3518 -0.1601
   45CHL1  H22A 3313   1.820   3.683   7.887  0.2836  3.8377 -0.8552
   45CHL1  H22B 3314   1.667   3.776   7.871 -0.9346 -0.4198 -0.9807
   45CHL1   C23 3315   1.662   3.647   8.041 -0.1403 -0.1454  0.1317
   45CHL1  H23A 3316   1.551   3.656   8.049 -0.1885 -0.3976 -0.2409
   45CHL1  H23B 3317   1.688   3.541   8.063  1.6951  0.0944 -0.7164
   45CHL1   C24 3318   1.724   3.748   8.140  0.3419  0.3739  0.0910
   45CHL1  H24A 3319   1.823   3.703   8.167  1.0584  2.0683  0.4097
   45CHL1  H24B 3320   1.744   3.848   8.097  0.9243  0.1240 -0.2367
   45CHL1   C25 3321   1.642   3.754   8.272 -0.4791 -0.3644  0.2266
   45CHL1   H25 3322   1.536   3.773   8.243  0.1653 -0.2141 -2.3083
   45CHL1   C26 3323   1.632   3.626   8.350  0.5943  0.6195 -0.3391
   45CHL1  H26A 3324   1.589   3.635   8.452 -1.6035  1.7574 -1.2953
   45CHL1  H26B 3325   1.564   3.558   8.294  0.8847 -2.2470  2.4865
   45CHL1  H26C 3326   1.723   3.562   8.343  1.8090  2.1107  1.1711
   45CHL1   C27 3327   1.691   3.876   8.362  0.1894  0.1256  0.0573
   45CHL1  H27A 3328   1.795   3.859   8.396  0.2355 -1.3706 -0.7596
   45CHL1  H27B 3329   1.677   3.976   8.314 -1.5943  0.7319  1.7073
   45CHL1  H27C 3330   1.618   3.888   8.445  0.2134 -0.0880  0.1084
   46CHL1    C3 3331   2.904   3.687   7.224 -0.1781  0.8728 -0.0441
   46CHL1    H3 3332   3.006   3.681   7.269  0.0371  0.4380 -0.5894
   46CHL1    O3 3333   2.908   3.637   7.089 -0.0412 -0.3491  0.0806
   46CHL1   H3' 3334   2.817   3.617   7.064 -0.4197  3.3943 -2.2354
   46CHL1    C4 3335   2.812   3.589   7.299 -0.2461  0.5841 -0.2118
   46CHL1   H4A 3336   2.714   3.572   7.248  0.8209 -0.8073 -1.8968
   46CHL1   H4B 3337   2.871   3.496   7.294 -1.2541 -0.0242 -3.0409
   46CHL1    C5 3338   2.780   3.636   7.440 -0.0183 -0.5200  0.3409
   46CHL1    C6 3339   2.804   3.560   7.548  0.7047 -0.1326 -0.6697
   46CHL1    H6 3340   2.852   3.461   7.543  1.1668  0.0350  0.1864
   46CHL1    C7 3341   2.779   3.603   7.693  0.1721  0.9520 -0.0140
   46CHL1   H7A 3342   2.733   3.532   7.765  3.8483  0.2299  1.8150
   46CHL1   H7B 3343   2.876   3.606   7.747  0.4358 -3.4082  0.1504
   46CHL1    C8 3344   2.688   3.727   7.712 -0.1466  0.3423  0.0081
   46CHL1    H8 3345   2.583   3.690   7.701  0.1817 -0.9179  0.8693
   46CHL1   C14 3346   2.711   3.786   7.858 -0.5575 -0.1191  0.7600
   46CHL1   H14 3347   2.821   3.798   7.864 -0.3294 -1.7064  0.1990
   46CHL1   C15 3348   2.677   3.701   7.980  0.1408  0.0646 -0.1697
   46CHL1  H15A 3349   2.582   3.645   7.967  0.0931  0.4059 -1.4309
   46CHL1  H15B 3350   2.757   3.629   8.008  0.6384  1.2444  1.5955
   46CHL1   C16 3351   2.665   3.802   8.097 -0.2535  0.4481  0.4074
   46CHL1  H16A 3352   2.568   3.799   8.151 -1.3099  2.4706 -1.2700
   46CHL1  H16B 3353   2.747   3.785   8.171  0.8607 -1.2256 -1.1402
   46CHL1   C17 3354   2.684   3.943   8.032  0.9438  0.4158 -0.9399
   46CHL1   H17 3355   2.793   3.967   8.035  0.8571  0.8313 -1.0798
   46CHL1   C13 3356   2.642   3.918   7.883 -0.0072  0.0900 -0.8322
   46CHL1   C18 3357   2.483   3.892   7.888  0.1422 -0.4596 -0.0343
   46CHL1  H18A 3358   2.430   3.989   7.899  2.6615  1.2407 -1.6820
   46CHL1  H18B 3359   2.471   3.844   7.788 -0.1506  0.4895 -0.4624
   46CHL1  H18C 3360   2.436   3.816   7.954 -1.0405  0.4979  0.2444
   46CHL1   C12 3361   2.684   4.018   7.776 -0.5642 -0.0132  0.4612
   46CHL1  H12A 3362   2.633   4.117   7.774 -1.8072 -0.6449 -0.4358
   46CHL1  H12B 3363   2.794   4.032   7.786 -0.4348 -1.5090  1.3850
   46CHL1   C11 3364   2.662   3.970   7.627  0.0275  0.2141 -0.4399
   46CHL1  H11A 3365   2.551   3.969   7.619 -0.0318  0.7848  0.2709
   46CHL1  H11B 3366   2.698   4.039   7.548  3.5409 -1.0417 -0.1361
   46CHL1    C9 3367   2.728   3.831   7.604 -0.0902  0.3042 -0.0411
   46CHL1    H9 3368   2.834   3.855   7.628 -0.9101  1.5100  2.9054
   46CHL1   C10 3369   2.731   3.776   7.457  0.6109  0.0909 -0.3632
   46CHL1   C19 3370   2.584   3.781   7.397 -1.6077 -0.0604  0.1264
   46CHL1  H19A 3371   2.584   3.715   7.308 -0.9056  0.1721 -0.0450
   46CHL1  H19B 3372   2.515   3.754   7.480 -1.0644  1.4336  1.1110
   46CHL1  H19C 3373   2.555   3.885   7.369 -1.2081 -0.1658 -0.6981
   46CHL1    C1 3374   2.816   3.873   7.368 -0.4048 -0.1119  0.1341
   46CHL1   H1A 3375   2.764   3.970   7.353  0.3520  0.1295 -1.1176
   46CHL1   H1B 3376   2.910   3.895   7.424  0.1027 -3.3175  0.7217
   46CHL1    C2 3377   2.853   3.828   7.227  0.0019 -0.5313  0.0525
   46CHL1   H2A 3378   2.919   3.897   7.171 -1.8704  0.9544 -0.4617
   46CHL1   H2B 3379   2.763   3.821   7.163  0.5682 -0.6461 -0.7367
   46CHL1   C20 3380   2.609   4.048   8.115  0.5279  0.1981 -0.4688
   46CHL1   H20 3381   2.500   4.026   8.127  0.5767  0.3585  0.3290
   46CHL1   C21 3382   2.619   4.179   8.047  0.2856  0.4923  0.3554
   46CHL1  H21A 3383   2.546   4.199   7.965 -0.4136 -0.5735  0.6945
   46CHL1  H21B 3384   2.719   4.204   8.007 -1.2267  0.6718 -3.7990
   46CHL1  H21C 3385   2.587   4.266   8.109 -0.0782  3.1836 -3.2687
   46CHL1   C22 3386   2.665   4.055   8.264 -0.7731 -0.4617 -0.3869
   46CHL1  H22A 3387   2.640   3.960   8.316 -2.0895 -0.8356 -1.6416
   46CHL1  H22B 3388   2.776   4.059   8.264 -0.7845  0.0108 -0.1723
   46CHL1   C23 3389   2.613   4.169   8.347  0.7144  0.4089 -0.1685
   46CHL1  H23A 3390   2.644   4.267   8.306  1.6842  0.5442  0.8568
   46CHL1  H23B 3391   2.503   4.184   8.351  0.5523 -0.7891  0.2227
   46CHL1   C24 3392   2.655   4.157   8.496 -0.0863  0.2699 -0.1893
   46CHL1  H24A 3393   2.639   4.057   8.542 -0.8005 -0.6495 -2.2937
   46CHL1  H24B 3394   2.766   4.162   8.500  0.2198 -2.8975 -1.6068
   46CHL1   C25 3395   2.584   4.245   8.591 -0.2943  0.1477 -0.0263
   46CHL1   H25 3396   2.478   4.213   8.582  0.4104 -1.7267 -2.8902
   46CHL1   C26 3397   2.640   4.212   8.729  0.1225  0.0220 -0.0254
   46CHL1  H26A 3398   2.751   4.208   8.736  0.2178  0.4389 -1.0764
   46CHL1  H26B 3399   2.616   4.289   8.806 -1.5523 -0.6098  0.1199
   46CHL1  H26C 3400   2.599   4.115   8.764  1.9193 -0.3837  1.1318
   46CHL1   C27 3401   2.595   4.400   8.567 -0.6682 -0.4721  0.2441
   46CHL1  H27A 3402   2.549   4.437   8.472 -0.6672 -0.4885  0.2382
   46CHL1  H27B 3403   2.547   4.448   8.656 -3.2932 -2.9173  0.3056
   46CHL1  H27C 3404   2.703   4.426   8.565 -0.4003 -1.0194  3.0605
   47CHL1    C3 3405   2.018   4.021   6.745 -0.8144  0.5931 -0.4355
   47CHL1    H3 3406   2.034   4.128   6.770 -1.1537  0.9993 -1.8673
   47CHL1    O3 3407   2.006   4.017   6.605  0.6773  0.1347  0.5514
   47CHL1   H3' 3408   2.059   4.093   6.580  1.4516 -0.2141  1.0858
   47CHL1    C4 3409   2.137   3.942   6.789 -0.9138 -0.5247 -0.0613
   47CHL1   H4A 3410   2.123   3.839   6.752 -1.0535 -0.9128  1.0278
   47CHL1   H4B 3411   2.224   3.984   6.734 -0.6475  0.8309  1.3111
   47CHL1    C5 3412   2.154   3.949   6.943 -0.0863 -0.3739 -0.1409
   47CHL1    C6 3413   2.265   4.004   7.004 -0.3141 -0.0699  0.9714
   47CHL1    H6 3414   2.349   4.048   6.948 -1.9259  0.0904 -1.4676
   47CHL1    C7 3415   2.281   4.013   7.156  0.1378  0.6851 -0.7267
   47CHL1   H7A 3416   2.379   3.976   7.194 -1.1121  0.4482  2.5116
   47CHL1   H7B 3417   2.279   4.119   7.189  0.7747  0.7396 -0.8470
   47CHL1    C8 3418   2.178   3.938   7.240 -0.4718  0.2153 -0.2137
   47CHL1    H8 3419   2.204   3.830   7.241 -0.1021  0.2546  2.5591
   47CHL1   C14 3420   2.165   3.993   7.380  0.0062  0.1756  0.5139
   47CHL1   H14 3421   2.118   4.092   7.365 -1.0034 -0.5265 -1.3774
   47CHL1   C15 3422   2.286   4.010   7.468 -0.4483  0.0734  0.1624
   47CHL1  H15A 3423   2.365   3.934   7.450  1.7968  2.0386  1.1633
   47CHL1  H15B 3424   2.348   4.101   7.447 -1.2478  0.8917  1.2505
   47CHL1   C16 3425   2.239   3.996   7.612  0.9086 -0.1938  0.1590
   47CHL1  H16A 3426   2.289   3.905   7.651  1.1905 -0.2876 -0.4109
   47CHL1  H16B 3427   2.262   4.084   7.675 -2.8035  1.4847 -0.5556
   47CHL1   C17 3428   2.087   3.985   7.605 -0.3383  0.3074  0.1853
   47CHL1   H17 3429   2.054   4.089   7.586  0.9885  0.6316 -0.5177
   47CHL1   C13 3430   2.066   3.919   7.469  0.3146  1.0474  0.3117
   47CHL1   C18 3431   2.103   3.766   7.488 -0.2363 -0.0885 -0.3647
   47CHL1  H18A 3432   2.208   3.753   7.522  0.7231  1.0292 -2.6829
   47CHL1  H18B 3433   2.031   3.730   7.564 -0.2995  1.1626  0.2054
   47CHL1  H18C 3434   2.104   3.699   7.400  4.7857  0.0090 -0.6817
   47CHL1   C12 3435   1.922   3.924   7.402 -0.3388 -0.2467  0.2739
   47CHL1  H12A 3436   1.843   3.870   7.457 -0.4334  0.4450  0.8282
   47CHL1  H12B 3437   1.903   4.033   7.405 -0.5912 -0.3066  0.8338
   47CHL1   C11 3438   1.934   3.871   7.255 -0.1081 -0.7380  0.1762
   47CHL1  H11A 3439   1.969   3.765   7.258  0.1498 -0.7420 -1.7371
   47CHL1  H11B 3440   1.833   3.875   7.209 -0.8681 -2.1787  1.6274
   47CHL1    C9 3441   2.043   3.946   7.169  0.0730  0.0195  0.3013
   47CHL1    H9 3442   2.012   4.053   7.166 -3.1596 -0.8260 -1.2313
   47CHL1   C10 3443   2.039   3.901   7.021  0.0324 -0.2323  0.0196
   47CHL1   C19 3444   2.054   3.741   7.016  0.3726 -0.5290 -0.3549
   47CHL1  H19A 3445   2.084   3.708   6.915  0.7930 -1.7281  0.1475
   47CHL1  H19B 3446   2.139   3.720   7.084  0.8538  1.8480 -0.1093
   47CHL1  H19C 3447   1.967   3.687   7.060  0.5837  0.4181  1.3161
   47CHL1    C1 3448   1.902   3.952   6.961 -0.2491 -0.4769 -0.3166
   47CHL1   H1A 3449   1.815   3.890   6.991 -0.8081  1.2147  1.8064
   47CHL1   H1B 3450   1.883   4.057   6.994  2.0801 -0.9257  2.8620
   47CHL1    C2 3451   1.889   3.958   6.802 -0.3588 -0.5458 -0.1820
   47CHL1   H2A 3452   1.797   4.013   6.774 -0.3517  0.8864  2.2662
   47CHL1   H2B 3453   1.880   3.855   6.763 -0.2249  0.6297 -3.7270
   47CHL1   C20 3454   2.029   3.930   7.742  0.2057 -0.1662  0.3361
   47CHL1   H20 3455   2.038   3.820   7.751  2.2623 -0.2320 -1.5300
   47CHL1   C21 3456   1.872   3.953   7.740  0.0208  0.4642  0.4818
   47CHL1  H21A 3457   1.824   3.870   7.684 -0.5511  0.4370  1.0079
   47CHL1  H21B 3458   1.852   4.056   7.702 -0.6708  0.9463  2.0792
   47CHL1  H21C 3459   1.830   3.965   7.842 -2.9045  0.4591 -0.6213
   47CHL1   C22 3460   2.094   3.989   7.869 -0.1461  0.6977 -0.0501
   47CHL1  H22A 3461   2.202   3.966   7.862 -0.2320  0.1404  0.3366
   47CHL1  H22B 3462   2.089   4.100   7.864  0.5601  0.7301 -0.0507
   47CHL1   C23 3463   2.046   3.928   8.010 -0.1949 -0.6245  0.2089
   47CHL1  H23A 3464   1.942   3.961   8.031 -0.3999 -0.7018 -0.6468
   47CHL1  H23B 3465   2.049   3.818   7.998  0.2158 -0.4635 -1.3297
   47CHL1   C24 3466   2.156   3.969   8.118  0.3849 -0.0010 -0.5245
   47CHL1  H24A 3467   2.253   3.932   8.078  0.9051  1.1511 -0.3685
   47CHL1  H24B 3468   2.179   4.078   8.110  1.3592 -0.2733 -1.7833
   47CHL1   C25 3469   2.136   3.916   8.264  0.1767 -0.5049 -0.0838
   47CHL1   H25 3470   2.036   3.953   8.297  0.0966 -0.1270 -0.7445
   47CHL1   C26 3471   2.142   3.766   8.260 -0.0939  0.0612  0.0949
   47CHL1  H26A 3472   2.087   3.727   8.348  0.0689  0.7955  0.5366
   47CHL1  H26B 3473   2.092   3.729   8.168 -2.0268  0.4748  0.9189
   47CHL1  H26C 3474   2.244   3.723   8.269 -0.4670 -1.1257 -1.0284
   47CHL1   C27 3475   2.244   3.971   8.356 -0.1826  0.5161  0.4896
   47CHL1  H27A 3476   2.220   3.929   8.456 -0.4113  1.1642  0.7166
   47CHL1  H27B 3477   2.349   3.943   8.334 -1.0184 -1.0289 -1.8463
   47CHL1  H27C 3478   2.241   4.082   8.364  0.9486  0.8557 -2.5564
   48CHL1    C3 3479   4.482   0.001   6.347 -0.0629 -0.1991  0.7580
   48CHL1    H3 3480   4.493   0.111   6.357  2.1689 -0.3275  0.0919
   48CHL1    O3 3481   4.478  -0.034   6.207 -0.2493 -0.2578 -0.0997
   48CHL1   H3' 3482   4.387  -0.014   6.183 -0.0459  0.6048 -0.1625
   48CHL1    C4 3483   4.617  -0.061   6.404  0.7945 -0.2799 -0.2080
   48CHL1   H4A 3484   4.617  -0.170   6.380  1.8944 -0.5533  0.9478
   48CHL1   H4B 3485   4.701  -0.020   6.345  0.4408 -2.4821 -2.4213
   48CHL1    C5 3486   4.628  -0.044   6.557  0.5355  1.0015 -0.1725
   48CHL1    C6 3487   4.740   0.011   6.609 -0.0419  0.2236 -0.3675
   48CHL1    H6 3488   4.821   0.048   6.544  0.3224  0.0290 -0.0245
   48CHL1    C7 3489   4.765   0.010   6.758 -0.4340  0.1174 -0.0904
   48CHL1   H7A 3490   4.869  -0.011   6.788 -1.6067 -4.3235  1.6820
   48CHL1   H7B 3491   4.751   0.116   6.785 -2.2570 -0.0780 -0.1148
   48CHL1    C8 3492   4.663  -0.078   6.843  0.3829 -0.2958  0.0112
   48CHL1    H8 3493   4.692  -0.185   6.830 -0.6556 -0.7683  1.2992
   48CHL1   C14 3494   4.670  -0.031   6.988 -0.4305 -0.7945 -0.0777
   48CHL1   H14 3495   4.643   0.075   6.971 -0.2758 -1.0140 -1.8930
   48CHL1   C15 3496   4.802  -0.024   7.063  0.5164  0.4625 -0.2412
   48CHL1  H15A 3497   4.855  -0.121   7.062  0.3740  0.3829 -0.9646
   48CHL1  H15B 3498   4.871   0.048   7.013  1.1653  1.4835  2.0146
   48CHL1   C16 3499   4.769   0.002   7.209 -0.7480 -0.5030 -0.5004
   48CHL1  H16A 3500   4.818  -0.074   7.273  2.3491 -0.3654 -2.5405
   48CHL1  H16B 3501   4.807   0.100   7.246  1.9656 -1.8417  0.4795
   48CHL1   C17 3502   4.617  -0.018   7.225  0.2432  0.4718  0.5809
   48CHL1   H17 3503   4.564   0.080   7.216  0.0977  0.2288 -1.5788
   48CHL1   C13 3504   4.571  -0.094   7.092 -0.1356 -0.3186 -0.3724
   48CHL1   C18 3505   4.607  -0.246   7.099  0.5874 -0.0211 -0.6730
   48CHL1  H18A 3506   4.704  -0.266   7.149  0.9957  0.6185 -1.1839
   48CHL1  H18B 3507   4.521  -0.297   7.148  0.3921 -0.3346 -1.3281
   48CHL1  H18C 3508   4.617  -0.288   6.997  0.9281  0.3663 -0.8033
   48CHL1   C12 3509   4.426  -0.061   7.034  0.1007  0.8636  0.1175
   48CHL1  H12A 3510   4.354  -0.115   7.099  1.4760 -0.2412  0.7784
   48CHL1  H12B 3511   4.398   0.046   7.025  0.2513  0.7318 -2.6654
   48CHL1   C11 3512   4.413  -0.117   6.889 -0.6787  0.4823  0.4930
   48CHL1  H11A 3513   4.426  -0.227   6.888  1.0988  0.6543  0.6679
   48CHL1  H11B 3514   4.312  -0.096   6.849 -0.8573 -0.1434  0.6090
   48CHL1    C9 3515   4.518  -0.057   6.795  0.0487  0.3265 -0.2564
   48CHL1    H9 3516   4.503   0.053   6.795  0.0927  0.3425 -1.1811
   48CHL1   C10 3517   4.506  -0.095   6.641  0.6080 -0.6549 -0.5311
   48CHL1   C19 3518   4.487  -0.245   6.631 -0.4959 -0.2222  0.3119
   48CHL1  H19A 3519   4.501  -0.270   6.523  0.7988  1.7796 -0.0545
   48CHL1  H19B 3520   4.559  -0.300   6.695 -0.4670  0.8324  1.2188
   48CHL1  H19C 3521   4.384  -0.277   6.657 -1.5119  1.1669 -1.7162
   48CHL1    C1 3522   4.379  -0.027   6.573 -0.2490 -0.6257 -0.4506
   48CHL1   H1A 3523   4.289  -0.057   6.629  0.3904 -0.5520  0.6455
   48CHL1   H1B 3524   4.381   0.083   6.591 -0.1167 -0.9217  1.5579
   48CHL1    C2 3525   4.361  -0.058   6.422  0.6556 -0.4726  0.0259
   48CHL1   H2A 3526   4.267  -0.008   6.390  1.5539  0.6050 -1.0254
   48CHL1   H2B 3527   4.351  -0.167   6.405  0.0686 -0.6236  1.2009
   48CHL1   C20 3528   4.580  -0.095   7.350 -0.1995 -0.1816 -0.1194
   48CHL1   H20 3529   4.631  -0.194   7.354 -0.3398 -0.2511 -0.0132
   48CHL1   C21 3530   4.424  -0.117   7.352 -0.2118  0.4882 -0.1997
   48CHL1  H21A 3531   4.369  -0.020   7.350 -0.1055  0.5766  0.7341
   48CHL1  H21B 3532   4.384  -0.167   7.443 -0.8996  1.6539  0.1622
   48CHL1  H21C 3533   4.406  -0.182   7.264  0.9516  0.8584 -0.7330
   48CHL1   C22 3534   4.630  -0.022   7.477 -0.5657  0.4979 -0.0255
   48CHL1  H22A 3535   4.733   0.016   7.466 -0.7816  1.2696  0.4956
   48CHL1  H22B 3536   4.574   0.073   7.491  2.0248  2.3903 -1.6934
   48CHL1   C23 3537   4.609  -0.102   7.608  0.4178 -0.2577  0.1424
   48CHL1  H23A 3538   4.507  -0.142   7.624 -0.5584  2.3510  0.9619
   48CHL1  H23B 3539   4.662  -0.200   7.615 -2.8277 -2.1807 -0.1823
   48CHL1   C24 3540   4.638  -0.014   7.721  0.1654  0.5308 -0.1788
   48CHL1  H24A 3541   4.735   0.035   7.702  0.7803  0.1698  1.7554
   48CHL1  H24B 3542   4.560   0.065   7.727 -0.3251  0.1798 -1.5750
   48CHL1   C25 3543   4.633  -0.094   7.848 -0.4272 -0.7867 -0.5800
   48CHL1   H25 3544   4.557  -0.174   7.834  1.0454 -2.0235 -1.8193
   48CHL1   C26 3545   4.768  -0.166   7.869 -0.1749  0.2613 -0.6120
   48CHL1  H26A 3546   4.844  -0.091   7.898  2.9669 -2.6912 -0.6560
   48CHL1  H26B 3547   4.757  -0.234   7.956  1.0176  0.4059 -0.3347
   48CHL1  H26C 3548   4.804  -0.235   7.791 -0.2153 -0.7478  0.2413
   48CHL1   C27 3549   4.582  -0.006   7.975  0.5455  0.3774  0.5234
   48CHL1  H27A 3550   4.649   0.082   7.982 -0.5765  2.0122 -4.9346
   48CHL1  H27B 3551   4.484   0.044   7.961  0.8982  1.0360  0.3667
   48CHL1  H27C 3552   4.572  -0.061   8.071  1.4988 -0.2463  0.2768
   49CHL1    C3 3553   4.393   0.511   6.728 -0.1743  0.5768 -0.0119
   49CHL1    H3 3554   4.479   0.582   6.730  0.3616 -0.0742  0.1416
   49CHL1    O3 3555   4.334   0.485   6.602 -0.3623 -0.8104  0.7995
   49CHL1   H3' 3556   4.269   0.417   6.622 -0.9113 -0.4650  0.2448
   49CHL1    C4 3557   4.453   0.375   6.784 -0.4671  0.3534  0.5444
   49CHL1   H4A 3558   4.387   0.287   6.773 -0.0808  0.0116  0.9786
   49CHL1   H4B 3559   4.532   0.353   6.709 -0.3529 -3.1407  1.5452
   49CHL1    C5 3560   4.511   0.383   6.923  0.4019 -0.3223  0.1824
   49CHL1    C6 3561   4.643   0.355   6.945  0.4212 -0.1345 -0.1537
   49CHL1    H6 3562   4.705   0.309   6.866  3.0284 -1.4121  2.4405
   49CHL1    C7 3563   4.703   0.363   7.085 -0.4588  0.4279 -0.6948
   49CHL1   H7A 3564   4.749   0.264   7.108 -1.5988  0.6467  3.2132
   49CHL1   H7B 3565   4.787   0.436   7.092  1.5510 -1.8899  2.2494
   49CHL1    C8 3566   4.610   0.390   7.202 -0.2367 -0.4557  0.5798
   49CHL1    H8 3567   4.563   0.292   7.225  2.6046 -2.1116 -0.1704
   49CHL1   C14 3568   4.681   0.448   7.323  0.4194 -1.2654 -0.4880
   49CHL1   H14 3569   4.724   0.543   7.285  2.5236 -2.2880 -0.7628
   49CHL1   C15 3570   4.802   0.382   7.383  0.2687  0.3791  0.7558
   49CHL1  H15A 3571   4.778   0.273   7.380 -0.0655  0.4704 -0.2938
   49CHL1  H15B 3572   4.893   0.395   7.322  1.1570  0.5380  2.0773
   49CHL1   C16 3573   4.823   0.460   7.515 -0.0630 -0.4443 -1.1986
   49CHL1  H16A 3574   4.852   0.376   7.582 -0.4685  1.4887  1.5769
   49CHL1  H16B 3575   4.901   0.538   7.505 -0.1099  0.5219  3.5047
   49CHL1   C17 3576   4.685   0.532   7.546  0.1048 -0.1595 -0.4186
   49CHL1   H17 3577   4.702   0.637   7.513 -0.4630 -0.3389 -1.3161
   49CHL1   C13 3578   4.590   0.475   7.440  0.0888  0.8513 -0.1080
   49CHL1   C18 3579   4.535   0.333   7.486  0.1857 -0.4736  0.1465
   49CHL1  H18A 3580   4.609   0.265   7.531  0.9799 -0.3701 -0.9583
   49CHL1  H18B 3581   4.458   0.349   7.564 -1.4889 -1.9028 -1.1366
   49CHL1  H18C 3582   4.476   0.276   7.411 -1.8340  0.2096  1.1575
   49CHL1   C12 3583   4.476   0.565   7.393 -0.0543 -0.2181 -0.2433
   49CHL1  H12A 3584   4.400   0.572   7.474 -0.1428  0.3056 -0.3682
   49CHL1  H12B 3585   4.518   0.665   7.366 -2.6316  0.7099 -1.1325
   49CHL1   C11 3586   4.396   0.504   7.280 -0.8211 -0.4840 -0.5941
   49CHL1  H11A 3587   4.359   0.409   7.324 -0.8637  0.3940  1.3932
   49CHL1  H11B 3588   4.319   0.581   7.255  0.0264  0.9551  0.9598
   49CHL1    C9 3589   4.493   0.484   7.162  0.6326 -0.1515 -0.1651
   49CHL1    H9 3590   4.538   0.584   7.145 -0.2277  0.4006  0.7075
   49CHL1   C10 3591   4.417   0.442   7.035 -0.3178  0.0233  0.0772
   49CHL1   C19 3592   4.315   0.329   7.068 -0.8244 -0.3517 -0.0296
   49CHL1  H19A 3593   4.359   0.246   7.128 -0.5539  0.7863  1.4096
   49CHL1  H19B 3594   4.239   0.379   7.132 -0.5777  0.1280 -0.1030
   49CHL1  H19C 3595   4.253   0.278   6.991 -1.8883 -2.9671  2.3888
   49CHL1    C1 3596   4.356   0.575   6.970  0.7568  0.8382 -0.0558
   49CHL1   H1A 3597   4.274   0.592   7.043  1.1856  1.2774  0.3287
   49CHL1   H1B 3598   4.431   0.656   6.977  2.2513 -0.5310  0.5947
   49CHL1    C2 3599   4.292   0.560   6.824 -0.2934 -0.1889  0.4824
   49CHL1   H2A 3600   4.240   0.655   6.798  0.8847  0.4367  0.3711
   49CHL1   H2B 3601   4.213   0.483   6.842 -1.0962  0.3899 -0.4665
   49CHL1   C20 3602   4.649   0.546   7.692 -0.3672 -0.2631  0.2432
   49CHL1   H20 3603   4.596   0.451   7.716  0.4215 -0.9549 -0.6704
   49CHL1   C21 3604   4.551   0.666   7.713 -0.4810 -0.3742  0.0419
   49CHL1  H21A 3605   4.599   0.762   7.687 -2.6466  1.2764  1.7584
   49CHL1  H21B 3606   4.510   0.682   7.815 -1.0453 -0.4519 -0.1665
   49CHL1  H21C 3607   4.458   0.660   7.652 -0.7137  2.3265  0.0346
   49CHL1   C22 3608   4.772   0.562   7.791 -0.5266 -0.6945 -0.2076
   49CHL1  H22A 3609   4.845   0.478   7.792 -0.8138 -1.0022  2.0536
   49CHL1  H22B 3610   4.820   0.659   7.766  0.0905 -0.5354  1.4677
   49CHL1   C23 3611   4.740   0.585   7.942  0.0215 -0.3272 -0.0021
   49CHL1  H23A 3612   4.834   0.594   8.002  0.2963  1.2348 -0.6094
   49CHL1  H23B 3613   4.685   0.681   7.952 -2.2786 -1.4487 -1.2224
   49CHL1   C24 3614   4.657   0.477   8.015  0.1724  0.0298 -0.2056
   49CHL1  H24A 3615   4.574   0.450   7.946  0.8247 -0.6406 -0.7507
   49CHL1  H24B 3616   4.733   0.397   8.022  1.6143  1.4248  1.0610
   49CHL1   C25 3617   4.602   0.499   8.158  0.3618  0.2005  0.1963
   49CHL1   H25 3618   4.533   0.586   8.152  1.1022  0.8041  0.2631
   49CHL1   C26 3619   4.536   0.375   8.217  0.0599 -0.1828 -0.0606
   49CHL1  H26A 3620   4.460   0.332   8.149  2.7681 -1.3686 -2.5389
   49CHL1  H26B 3621   4.615   0.298   8.233 -1.3870 -1.8663 -0.7241
   49CHL1  H26C 3622   4.485   0.399   8.313 -0.3002 -3.5219  0.7127
   49CHL1   C27 3623   4.719   0.540   8.252  0.1262  0.0675  0.6968
   49CHL1  H27A 3624   4.794   0.459   8.252 -0.0706 -0.2564 -2.4966
   49CHL1  H27B 3625   4.764   0.639   8.226  0.7302 -0.0908  1.1283
   49CHL1  H27C 3626   4.681   0.562   8.354 -1.9473 -1.0014  0.2073
   50CHL1    C3 3627   5.954   0.602   6.778 -0.2467  0.3685 -1.2196
   50CHL1    H3 3628   5.988   0.706   6.761  0.5687  0.3005 -0.0907
   50CHL1    O3 3629   5.901   0.541   6.660  0.3708 -0.0505 -0.0294
   50CHL1   H3' 3630   5.976   0.505   6.613  1.4525  0.6562  1.0919
   50CHL1    C4 3631   6.080   0.519   6.818  1.0745  0.2012 -0.5999
   50CHL1   H4A 3632   6.045   0.415   6.832 -1.8293  1.3624  1.8153
   50CHL1   H4B 3633   6.154   0.517   6.735 -0.2420  0.4982 -1.8059
   50CHL1    C5 3634   6.140   0.565   6.953  0.2287  0.3269 -0.3641
   50CHL1    C6 3635   6.263   0.613   6.962 -0.2343 -0.0848  0.5951
   50CHL1    H6 3636   6.329   0.606   6.874  1.0456 -0.7269  1.5692
   50CHL1    C7 3637   6.335   0.663   7.084  0.6286  0.4342 -0.3744
   50CHL1   H7A 3638   6.439   0.626   7.090 -0.6684 -3.4562  1.0238
   50CHL1   H7B 3639   6.338   0.775   7.085 -0.1197  0.4548  0.0607
   50CHL1    C8 3640   6.253   0.616   7.208  0.3863  0.1688 -0.1053
   50CHL1    H8 3641   6.281   0.511   7.230  1.2710  0.6348  1.1703
   50CHL1   C14 3642   6.294   0.695   7.331  0.5726 -1.0467 -0.2020
   50CHL1   H14 3643   6.266   0.799   7.302 -0.6280 -1.0650  0.7998
   50CHL1   C15 3644   6.450   0.702   7.362  0.0543 -0.0404  0.6934
   50CHL1  H15A 3645   6.471   0.594   7.345 -1.9023 -0.3224 -0.2059
   50CHL1  H15B 3646   6.490   0.764   7.279 -1.6789 -0.3061 -0.3991
   50CHL1   C16 3647   6.460   0.733   7.513  0.6096  0.7451 -0.1305
   50CHL1  H16A 3648   6.510   0.650   7.568  0.1523 -0.5947 -1.6762
   50CHL1  H16B 3649   6.521   0.826   7.517  1.8650  0.0557 -2.0643
   50CHL1   C17 3650   6.309   0.749   7.571 -0.0564  0.1168  0.6769
   50CHL1   H17 3651   6.284   0.854   7.543  0.6370  0.0956 -0.0880
   50CHL1   C13 3652   6.227   0.661   7.473  0.0550 -0.2090  0.6864
   50CHL1   C18 3653   6.250   0.512   7.504  0.4307 -0.0681  0.7636
   50CHL1  H18A 3654   6.207   0.482   7.602  0.0462  0.6978  0.8323
   50CHL1  H18B 3655   6.196   0.456   7.426 -0.7052 -0.4369  1.7929
   50CHL1  H18C 3656   6.360   0.497   7.499  0.5647  1.1849 -2.5791
   50CHL1   C12 3657   6.079   0.701   7.442 -0.5846  0.2372  0.3347
   50CHL1  H12A 3658   6.010   0.685   7.528 -1.1196  0.9313  0.0495
   50CHL1  H12B 3659   6.066   0.811   7.431 -0.2520  0.6481  3.2456
   50CHL1   C11 3660   6.015   0.622   7.323 -0.3959 -0.3702  0.7077
   50CHL1  H11A 3661   6.008   0.513   7.340  0.2399 -0.1582  2.6984
   50CHL1  H11B 3662   5.909   0.654   7.318 -0.1547  0.2342 -1.4825
   50CHL1    C9 3663   6.099   0.635   7.190  0.0554  0.6081  0.2060
   50CHL1    H9 3664   6.086   0.742   7.164 -2.1609  0.8767  2.1553
   50CHL1   C10 3665   6.040   0.563   7.063 -0.1012 -0.5812  0.3800
   50CHL1   C19 3666   6.027   0.417   7.103 -0.1660  0.5035 -0.0713
   50CHL1  H19A 3667   6.002   0.354   7.015  0.0557  0.3790 -0.0454
   50CHL1  H19B 3668   6.111   0.387   7.169 -0.7996 -1.5246 -0.1433
   50CHL1  H19C 3669   5.946   0.409   7.178 -0.4699 -1.3825 -0.5578
   50CHL1    C1 3670   5.900   0.637   7.027 -0.7125 -0.5611  0.7375
   50CHL1   H1A 3671   5.834   0.603   7.109 -0.2773 -3.5380 -0.0290
   50CHL1   H1B 3672   5.918   0.746   7.037 -1.2599 -0.5825  2.2499
   50CHL1    C2 3673   5.848   0.590   6.890  0.0703  0.6175 -0.2643
   50CHL1   H2A 3674   5.749   0.636   6.870 -0.3266  0.2971  0.9045
   50CHL1   H2B 3675   5.816   0.484   6.903 -0.8624  0.9730  0.3900
   50CHL1   C20 3676   6.312   0.727   7.714  0.7220  0.1740  0.4031
   50CHL1   H20 3677   6.329   0.619   7.734  1.0825  0.1899  0.1942
   50CHL1   C21 3678   6.166   0.754   7.765  0.0144  0.3357  0.4171
   50CHL1  H21A 3679   6.135   0.856   7.736 -3.5828 -0.7668 -0.0551
   50CHL1  H21B 3680   6.143   0.739   7.872  0.3812 -0.4885  0.3911
   50CHL1  H21C 3681   6.086   0.687   7.727  1.0178 -3.2032  3.8812
   50CHL1   C22 3682   6.411   0.820   7.796 -0.6173 -0.1721 -0.2269
   50CHL1  H22A 3683   6.516   0.818   7.758 -1.4446  2.2789 -3.0662
   50CHL1  H22B 3684   6.376   0.926   7.791  2.5089  1.0841  1.4237
   50CHL1   C23 3685   6.418   0.770   7.943 -0.3614  0.2676 -0.2358
   50CHL1  H23A 3686   6.329   0.824   7.981 -0.6365 -0.5067  0.2554
   50CHL1  H23B 3687   6.398   0.660   7.943 -0.1719  0.2324  0.2670
   50CHL1   C24 3688   6.542   0.774   8.022  0.0118  0.5669  0.6331
   50CHL1  H24A 3689   6.615   0.715   7.963  1.0369  0.8887  1.5455
   50CHL1  H24B 3690   6.576   0.880   8.025  0.8941  0.2612  2.1865
   50CHL1   C25 3691   6.543   0.715   8.166 -0.5270 -0.2202  0.4085
   50CHL1   H25 3692   6.487   0.620   8.150  2.0447 -1.7345 -0.0690
   50CHL1   C26 3693   6.690   0.698   8.199 -0.4707  0.0010  0.2777
   50CHL1  H26A 3694   6.726   0.612   8.140 -0.5808 -0.9275  1.5254
   50CHL1  H26B 3695   6.759   0.783   8.182 -1.6338  0.4845 -2.5811
   50CHL1  H26C 3696   6.697   0.669   8.306 -1.6402 -1.4708 -0.0095
   50CHL1   C27 3697   6.461   0.796   8.262 -0.1946 -0.4239  0.2398
   50CHL1  H27A 3698   6.369   0.813   8.202  1.4695  2.8025 -1.6918
   50CHL1  H27B 3699   6.426   0.741   8.351 -2.3020  0.5473  0.0583
   50CHL1  H27C 3700   6.502   0.897   8.284  1.4698 -0.9343 -0.3093
   51CHL1    C3 3701   4.774   1.367   6.961 -0.2406  0.7596  0.5358
   51CHL1    H3 3702   4.665   1.347   6.965 -0.0488 -0.4652  0.1483
   51CHL1    O3 3703   4.787   1.404   6.823 -0.8581  0.4500  0.4569
   51CHL1   H3' 3704   4.875   1.443   6.829 -0.3617 -0.7694  1.8422
   51CHL1    C4 3705   4.786   1.493   7.051  0.2928  0.0605  0.1812
   51CHL1   H4A 3706   4.887   1.537   7.037  0.2016  0.2608  0.1505
   51CHL1   H4B 3707   4.707   1.563   7.017 -0.1184  0.1150  1.2204
   51CHL1    C5 3708   4.771   1.454   7.200 -0.8312 -0.6213 -0.5062
   51CHL1    C6 3709   4.675   1.509   7.275 -0.3021  0.1603  0.5958
   51CHL1    H6 3710   4.602   1.585   7.240 -2.0907 -1.8749 -0.3279
   51CHL1    C7 3711   4.651   1.469   7.418 -1.2328  0.3201 -0.4336
   51CHL1   H7A 3712   4.638   1.563   7.475 -1.0622 -1.0230  1.9703
   51CHL1   H7B 3713   4.559   1.408   7.430 -0.8387 -0.2467 -0.2492
   51CHL1    C8 3714   4.786   1.408   7.481 -0.0806 -0.1296 -0.5022
   51CHL1    H8 3715   4.863   1.488   7.481 -1.4723  1.2508 -0.1697
   51CHL1   C14 3716   4.761   1.353   7.617  0.0938 -0.3887 -0.0000
   51CHL1   H14 3717   4.680   1.278   7.606 -1.4505  0.9878  1.5141
   51CHL1   C15 3718   4.696   1.451   7.707 -0.3786  0.4037 -1.1055
   51CHL1  H15A 3719   4.726   1.558   7.698 -0.4512  0.6665  1.1820
   51CHL1  H15B 3720   4.588   1.451   7.682 -0.1868  0.3541 -1.9633
   51CHL1   C16 3721   4.725   1.403   7.849 -0.0784 -0.2861  0.3221
   51CHL1  H16A 3722   4.778   1.486   7.901  0.5806 -0.7428  0.3952
   51CHL1  H16B 3723   4.629   1.386   7.901  0.3813 -0.2959  1.1922
   51CHL1   C17 3724   4.814   1.273   7.833 -0.0994 -0.1628 -0.0073
   51CHL1   H17 3725   4.748   1.185   7.819 -0.4908 -0.7327  4.1466
   51CHL1   C13 3726   4.871   1.287   7.692 -0.5142 -0.0692 -0.0365
   51CHL1   C18 3727   4.992   1.387   7.703 -0.0338  0.0390 -0.4121
   51CHL1  H18A 3728   4.968   1.480   7.758  1.7463 -0.4015  1.2652
   51CHL1  H18B 3729   5.079   1.345   7.759  0.2190  1.1051  0.0150
   51CHL1  H18C 3730   5.038   1.395   7.603  0.9425 -0.8202 -0.0532
   51CHL1   C12 3731   4.911   1.164   7.604  0.0920 -0.4990 -0.2650
   51CHL1  H12A 3732   5.001   1.118   7.649 -0.3791 -0.7920  0.3911
   51CHL1  H12B 3733   4.823   1.097   7.595 -1.2879  0.9156  1.7325
   51CHL1   C11 3734   4.939   1.200   7.460 -0.5831 -0.4470 -0.5562
   51CHL1  H11A 3735   5.036   1.254   7.459 -0.6431 -0.3432 -0.9169
   51CHL1  H11B 3736   4.968   1.111   7.399  1.4072  2.1109 -3.7195
   51CHL1    C9 3737   4.831   1.294   7.393  0.3459 -0.6863 -0.2382
   51CHL1    H9 3738   4.739   1.233   7.385 -0.3525  0.3612 -0.3268
   51CHL1   C10 3739   4.862   1.341   7.253  0.9564 -0.5306 -0.1230
   51CHL1   C19 3740   5.002   1.414   7.259  0.3077 -0.9376 -0.1797
   51CHL1  H19A 3741   5.081   1.340   7.285  0.6710 -0.4694  0.0583
   51CHL1  H19B 3742   5.023   1.447   7.154  0.4694  1.5681  0.5838
   51CHL1  H19C 3743   5.006   1.503   7.325  2.2532 -0.9296 -0.2394
   51CHL1    C1 3744   4.861   1.226   7.147  0.3146 -0.1191 -0.7453
   51CHL1   H1A 3745   4.949   1.163   7.171 -1.2515 -1.4924  1.9944
   51CHL1   H1B 3746   4.764   1.173   7.157  0.1115 -0.1355 -2.4736
   51CHL1    C2 3747   4.866   1.259   7.001 -0.2624  0.3038 -0.7901
   51CHL1   H2A 3748   4.866   1.167   6.938 -1.7439 -0.2862  0.0280
   51CHL1   H2B 3749   4.968   1.295   6.973  0.3514 -1.2574 -0.6710
   51CHL1   C20 3750   4.900   1.242   7.957  0.4474 -0.3705  0.1655
   51CHL1   H20 3751   4.977   1.323   7.961  0.1671  0.1177 -2.5433
   51CHL1   C21 3752   4.978   1.115   7.946 -0.3973  0.5565  1.4170
   51CHL1  H21A 3753   5.077   1.125   7.896 -0.7654  0.8104  0.7253
   51CHL1  H21B 3754   4.925   1.052   7.871  2.7897  1.6798 -2.1252
   51CHL1  H21C 3755   5.012   1.066   8.040 -1.4815 -1.8634  0.6223
   51CHL1   C22 3756   4.814   1.236   8.088 -0.9189  0.1363 -0.0842
   51CHL1  H22A 3757   4.882   1.243   8.175  0.8843 -2.6176 -1.1443
   51CHL1  H22B 3758   4.742   1.321   8.092  1.1063  1.8965  1.3022
   51CHL1   C23 3759   4.717   1.115   8.109 -0.0096 -0.1078  0.3291
   51CHL1  H23A 3760   4.665   1.103   8.011  0.4100  0.2466  0.0568
   51CHL1  H23B 3761   4.769   1.021   8.135 -0.8896 -0.1216  2.2103
   51CHL1   C24 3762   4.617   1.137   8.227 -0.7366  0.1330 -0.8559
   51CHL1  H24A 3763   4.679   1.147   8.318 -0.4627 -0.8743 -0.9238
   51CHL1  H24B 3764   4.553   1.226   8.207 -0.3295  0.7911  0.6691
   51CHL1   C25 3765   4.537   1.008   8.256 -0.4681  0.3816 -0.5448
   51CHL1   H25 3766   4.610   0.930   8.288 -0.4804  0.4490 -0.3473
   51CHL1   C26 3767   4.451   1.032   8.383  0.5052 -0.2052  1.0575
   51CHL1  H26A 3768   4.396   0.939   8.408 -0.8527  0.7003  1.5205
   51CHL1  H26B 3769   4.517   1.056   8.470 -1.1388 -0.5690  2.4590
   51CHL1  H26C 3770   4.373   1.104   8.353 -0.1650 -1.7664 -1.2153
   51CHL1   C27 3771   4.444   0.968   8.138  0.1604 -0.2497 -0.0191
   51CHL1  H27A 3772   4.359   0.907   8.176 -4.1673  3.1840 -3.0223
   51CHL1  H27B 3773   4.394   1.057   8.095 -0.8565 -0.7841  0.0142
   51CHL1  H27C 3774   4.498   0.912   8.058 -1.7676 -2.4017  0.0688
   52CHL1    C3 3775   0.069   1.962   6.724 -0.2239 -0.2340  0.4233
   52CHL1    H3 3776   0.179   1.978   6.726 -0.0493 -1.3291  1.2721
   52CHL1    O3 3777   0.014   1.948   6.592 -0.2210  0.3020 -0.5032
   52CHL1   H3' 3778  -0.054   2.016   6.594 -0.7545 -0.0543 -3.1597
   52CHL1    C4 3779   0.027   1.834   6.805 -0.1233 -0.3028  0.1941
   52CHL1   H4A 3780  -0.083   1.824   6.799 -0.5381  2.6744  1.1382
   52CHL1   H4B 3781   0.079   1.749   6.757 -0.5788  0.3326 -1.5046
   52CHL1    C5 3782   0.061   1.846   6.956 -0.2073  0.0159  0.4652
   52CHL1    C6 3783   0.132   1.753   7.019 -0.7711  0.0259  0.8888
   52CHL1    H6 3784   0.162   1.675   6.947 -3.2572  2.7890 -3.6019
   52CHL1    C7 3785   0.170   1.737   7.164  0.1498 -0.0688 -0.0369
   52CHL1   H7A 3786   0.144   1.639   7.209  3.1712 -1.8626 -1.8617
   52CHL1   H7B 3787   0.280   1.743   7.151 -0.1226  1.8318 -2.0191
   52CHL1    C8 3788   0.119   1.861   7.248 -0.1973  0.7135 -0.4690
   52CHL1    H8 3789   0.020   1.840   7.294  0.6092 -1.4979  0.4117
   52CHL1   C14 3790   0.217   1.880   7.361  0.4514 -0.6865  0.0035
   52CHL1   H14 3791   0.309   1.904   7.303 -0.5796 -0.7634 -1.7176
   52CHL1   C15 3792   0.259   1.765   7.447  0.1841 -0.0849 -0.4830
   52CHL1  H15A 3793   0.172   1.707   7.483 -2.2701  1.4620 -3.3998
   52CHL1  H15B 3794   0.329   1.702   7.390 -1.1514 -0.8326 -1.3566
   52CHL1   C16 3795   0.308   1.823   7.583  0.0232 -0.3816 -0.0592
   52CHL1  H16A 3796   0.243   1.788   7.666  1.2526  0.4653  1.2914
   52CHL1  H16B 3797   0.412   1.786   7.591  0.9121  1.7198 -1.0698
   52CHL1   C17 3798   0.299   1.978   7.572  0.3983  0.4560  1.0758
   52CHL1   H17 3799   0.390   2.005   7.515 -0.8503  1.2477 -0.6518
   52CHL1   C13 3800   0.183   1.994   7.462 -0.0536  0.3200  0.5250
   52CHL1   C18 3801   0.038   1.983   7.523 -0.7971 -0.5287 -0.6403
   52CHL1  H18A 3802   0.030   1.906   7.602  2.8635  0.4217  0.8947
   52CHL1  H18B 3803   0.012   2.079   7.573  0.1439 -0.7700  0.3654
   52CHL1  H18C 3804  -0.033   1.965   7.440  0.9250 -1.1290 -2.0620
   52CHL1   C12 3805   0.197   2.121   7.378  0.7724  0.1006  0.7995
   52CHL1  H12A 3806   0.166   2.217   7.425 -2.8501  0.0442 -1.1354
   52CHL1  H12B 3807   0.301   2.132   7.340  0.4279  0.1906 -0.1480
   52CHL1   C11 3808   0.100   2.113   7.256 -0.4583  0.1603 -0.4914
   52CHL1  H11A 3809  -0.006   2.109   7.289 -0.8166 -0.9363 -1.6716
   52CHL1  H11B 3810   0.110   2.199   7.187  1.1449 -1.2126 -2.0764
   52CHL1    C9 3811   0.119   1.987   7.165  0.9534 -0.1947 -0.9664
   52CHL1    H9 3812   0.224   1.996   7.131  2.2198 -3.2273  1.6432
   52CHL1   C10 3813   0.032   1.973   7.041  0.5061  0.7015 -0.4971
   52CHL1   C19 3814  -0.113   1.968   7.085 -0.1706  0.0042 -0.6359
   52CHL1  H19A 3815  -0.131   1.884   7.154  0.8527  0.8601  0.7349
   52CHL1  H19B 3816  -0.138   2.056   7.149 -1.1974 -0.7522  0.0259
   52CHL1  H19C 3817  -0.184   1.962   7.000 -0.0626  0.0271 -0.7269
   52CHL1    C1 3818   0.054   2.095   6.946  0.1699  0.2384 -0.8745
   52CHL1   H1A 3819  -0.010   2.174   6.990 -1.0595 -1.2434  0.1120
   52CHL1   H1B 3820   0.163   2.116   6.945  0.2766 -0.1613  0.6397
   52CHL1    C2 3821   0.002   2.079   6.798 -0.2749 -0.7129  0.7253
   52CHL1   H2A 3822   0.021   2.180   6.756 -2.9285  0.3105  1.7831
   52CHL1   H2B 3823  -0.108   2.063   6.794 -0.3882 -0.2644  1.7019
   52CHL1   C20 3824   0.295   2.045   7.704  0.7917  0.1905  0.4537
   52CHL1   H20 3825   0.210   2.002   7.760  2.9161 -2.6510  1.7519
   52CHL1   C21 3826   0.279   2.191   7.687  0.4262  0.0565 -0.5942
   52CHL1  H21A 3827   0.356   2.214   7.611  0.2899 -0.8760 -1.0263
   52CHL1  H21B 3828   0.303   2.235   7.786  2.5929  0.1092 -1.0951
   52CHL1  H21C 3829   0.172   2.214   7.664  0.1139 -0.6386  0.1063
   52CHL1   C22 3830   0.415   2.008   7.800 -0.0404 -0.0284 -1.3136
   52CHL1  H22A 3831   0.390   2.059   7.896  1.2250 -0.5980 -0.6626
   52CHL1  H22B 3832   0.424   1.901   7.827  1.1279  0.4151  0.1896
   52CHL1   C23 3833   0.546   2.050   7.745 -0.3285  0.3260  0.0059
   52CHL1  H23A 3834   0.580   1.968   7.679  0.7880 -1.0363  2.1518
   52CHL1  H23B 3835   0.540   2.150   7.696  1.4500  0.5171  0.1064
   52CHL1   C24 3836   0.658   2.056   7.853  0.6042 -0.6723  0.0068
   52CHL1  H24A 3837   0.626   2.135   7.924  1.3467  0.1532 -0.5472
   52CHL1  H24B 3838   0.665   1.962   7.911 -2.4397 -1.7999 -1.2403
   52CHL1   C25 3839   0.799   2.101   7.798  0.8491  0.5312  0.2212
   52CHL1   H25 3840   0.806   2.038   7.707  1.2709  0.7968  0.0634
   52CHL1   C26 3841   0.811   2.253   7.748  0.6329 -0.0880 -0.2791
   52CHL1  H26A 3842   0.754   2.271   7.654  1.3825  1.2844 -0.4942
   52CHL1  H26B 3843   0.781   2.328   7.825  1.2919 -0.0635 -0.0436
   52CHL1  H26C 3844   0.918   2.268   7.726  0.3347  0.6891 -1.2678
   52CHL1   C27 3845   0.905   2.066   7.893  0.3390  0.2976 -0.6678
   52CHL1  H27A 3846   0.900   2.141   7.975  1.0266  2.0229 -2.1277
   52CHL1  H27B 3847   0.903   1.963   7.934 -0.9891  0.4907 -0.2116
   52CHL1  H27C 3848   1.009   2.073   7.854  1.6994  0.8278  2.6306
   53CHL1    C3 3849   2.096   4.950   7.056 -0.7353  0.0187  0.7369
   53CHL1    H3 3850   2.186   5.014   7.048 -0.9004  0.2796  0.9888
   53CHL1    O3 3851   2.044   4.927   6.925 -0.0721 -0.1368  0.2056
   53CHL1   H3' 3852   2.090   4.855   6.883 -1.3234 -1.8478  1.6257
   53CHL1    C4 3853   2.126   4.812   7.120 -0.7480  0.6457  0.2795
   53CHL1   H4A 3854   2.029   4.763   7.098 -0.9720  0.9714  0.5245
   53CHL1   H4B 3855   2.204   4.761   7.061 -1.2745  0.8608 -0.6304
   53CHL1    C5 3856   2.150   4.814   7.270 -0.1823 -0.7967 -0.5950
   53CHL1    C6 3857   2.257   4.763   7.335 -0.4540 -0.3664 -0.5081
   53CHL1    H6 3858   2.336   4.719   7.272 -1.7529 -2.4496 -0.7711
   53CHL1    C7 3859   2.287   4.778   7.484 -0.3185 -0.7683 -0.0464
   53CHL1   H7A 3860   2.325   4.684   7.530 -0.9720 -0.8736  0.2807
   53CHL1   H7B 3861   2.366   4.856   7.489  1.1982 -2.2669  0.2202
   53CHL1    C8 3862   2.155   4.820   7.562  0.5010  0.8943 -0.1302
   53CHL1    H8 3863   2.087   4.732   7.556  0.5203  0.6808  1.9432
   53CHL1   C14 3864   2.184   4.859   7.707  0.8347 -0.5414  0.7819
   53CHL1   H14 3865   2.237   4.957   7.715  1.4162 -0.8220  0.4403
   53CHL1   C15 3866   2.255   4.761   7.799  0.0024  1.0340  0.5831
   53CHL1  H15A 3867   2.208   4.661   7.794 -0.0668  1.0686  0.5425
   53CHL1  H15B 3868   2.361   4.762   7.764 -0.3327  1.1565 -0.4781
   53CHL1   C16 3869   2.246   4.821   7.941  0.3556  0.0285  0.2709
   53CHL1  H16A 3870   2.240   4.746   8.022  1.6890  0.5336  0.8742
   53CHL1  H16B 3871   2.333   4.884   7.968 -1.0003  3.3246 -2.3334
   53CHL1   C17 3872   2.124   4.915   7.927  0.5172  0.5099 -0.1038
   53CHL1   H17 3873   2.181   5.010   7.925  0.3960  0.6862  2.0673
   53CHL1   C13 3874   2.055   4.889   7.787  0.1800 -0.0981 -0.0868
   53CHL1   C18 3875   1.952   4.768   7.792 -0.0180  0.4074  0.1902
   53CHL1  H18A 3876   1.996   4.688   7.855 -1.6079  0.5502  1.5466
   53CHL1  H18B 3877   1.861   4.797   7.848 -1.1026 -1.1262 -0.7009
   53CHL1  H18C 3878   1.916   4.739   7.691  1.8959 -0.5172 -0.2872
   53CHL1   C12 3879   1.985   5.015   7.734  0.3686  0.0065 -0.0722
   53CHL1  H12A 3880   1.882   5.028   7.775  0.9033  1.4728  0.8697
   53CHL1  H12B 3881   2.045   5.106   7.752  0.7550 -0.3446  0.4118
   53CHL1   C11 3882   1.978   5.003   7.580  0.2886 -0.3786  0.4114
   53CHL1  H11A 3883   1.890   4.935   7.569 -0.6749  0.3178  2.9342
   53CHL1  H11B 3884   1.944   5.095   7.528 -0.6843 -0.4185  0.9563
   53CHL1    C9 3885   2.092   4.937   7.495  0.1149 -0.3651 -0.6267
   53CHL1    H9 3886   2.162   5.023   7.500 -1.6411  1.0397  1.4277
   53CHL1   C10 3887   2.046   4.902   7.350  1.1728 -0.4873  0.0562
   53CHL1   C19 3888   1.905   4.825   7.347 -0.1835 -0.1487 -0.3008
   53CHL1  H19A 3889   1.916   4.751   7.429  2.5116  0.3983 -0.0509
   53CHL1  H19B 3890   1.821   4.896   7.361  0.5521  0.5586  0.6376
   53CHL1  H19C 3891   1.894   4.767   7.253 -0.2084 -0.6157 -0.0170
   53CHL1    C1 3892   2.019   5.036   7.281 -0.5479  0.6165 -0.9397
   53CHL1   H1A 3893   1.936   5.085   7.335 -0.4403 -1.8125  1.6450
   53CHL1   H1B 3894   2.111   5.097   7.299  0.1280 -0.4058 -0.8905
   53CHL1    C2 3895   1.987   5.017   7.132  0.2379 -1.3541  0.6056
   53CHL1   H2A 3896   1.976   5.116   7.083  0.7010 -1.7757 -0.4010
   53CHL1   H2B 3897   1.890   4.964   7.117 -0.4923 -0.3227  1.5642
   53CHL1   C20 3898   2.037   4.916   8.054  0.0075 -0.4137  0.8041
   53CHL1   H20 3899   1.986   4.818   8.061  0.2680 -0.4538  2.7572
   53CHL1   C21 3900   1.939   5.032   8.035  0.5494 -0.0542  0.8880
   53CHL1  H21A 3901   1.994   5.119   7.993  1.6865  0.2800  2.9565
   53CHL1  H21B 3902   1.878   5.069   8.121 -0.5746  1.1201 -0.3473
   53CHL1  H21C 3903   1.863   5.002   7.959  0.7518  0.2908  0.5469
   53CHL1   C22 3904   2.102   4.936   8.188 -0.3563  0.5596 -0.3966
   53CHL1  H22A 3905   2.193   4.873   8.197 -1.9704 -1.9869 -1.1749
   53CHL1  H22B 3906   2.141   5.040   8.186  1.6023 -0.0258 -4.9298
   53CHL1   C23 3907   2.016   4.902   8.310 -0.0217  0.2995  0.6338
   53CHL1  H23A 3908   2.062   4.952   8.397  0.4604 -1.4106  1.3842
   53CHL1  H23B 3909   1.916   4.946   8.289 -0.1801 -0.0919  0.5577
   53CHL1   C24 3910   1.988   4.757   8.330 -0.4596  0.3416  0.5153
   53CHL1  H24A 3911   1.912   4.734   8.252  0.7886 -2.8922  0.0667
   53CHL1  H24B 3912   2.072   4.687   8.311 -1.8258 -1.2407  0.0593
   53CHL1   C25 3913   1.910   4.759   8.469  0.2043  0.4005 -0.9921
   53CHL1   H25 3914   1.840   4.845   8.465  0.1498  0.3941 -0.3225
   53CHL1   C26 3915   1.820   4.635   8.493  0.2901 -0.4752 -0.0828
   53CHL1  H26A 3916   1.880   4.542   8.498 -0.8818 -1.2005  0.9857
   53CHL1  H26B 3917   1.757   4.660   8.581  1.6951 -0.5752  0.9845
   53CHL1  H26C 3918   1.751   4.610   8.410  0.4875 -1.2218 -0.0309
   53CHL1   C27 3919   2.006   4.764   8.584 -0.4360  0.4862 -0.2774
   53CHL1  H27A 3920   2.039   4.869   8.598 -1.1996  0.7006 -0.0557
   53CHL1  H27B 3921   1.955   4.726   8.675 -0.2045 -0.1607 -0.4149
   53CHL1  H27C 3922   2.088   4.691   8.565 -0.7450  0.1494 -0.3278
   54CHL1    C3 3923   2.614   6.391   6.946 -0.0398 -0.2829 -0.9054
   54CHL1    H3 3924   2.503   6.388   6.940 -0.3356 -0.5905  2.6387
   54CHL1    O3 3925   2.675   6.394   6.817  0.0404  0.1681  0.4777
   54CHL1   H3' 3926   2.658   6.477   6.772 -1.2461 -0.7632 -0.8538
   54CHL1    C4 3927   2.649   6.515   7.019 -0.0957 -0.0532 -0.5393
   54CHL1   H4A 3928   2.758   6.531   7.011 -0.0553 -0.6449 -1.2851
   54CHL1   H4B 3929   2.619   6.598   6.952 -0.9411  0.0289 -0.0680
   54CHL1    C5 3930   2.592   6.528   7.159  0.1255  0.2332  0.1134
   54CHL1    C6 3931   2.516   6.630   7.194  0.0097 -0.1453 -0.7561
   54CHL1    H6 3932   2.502   6.715   7.126  0.7946 -0.7376 -1.6790
   54CHL1    C7 3933   2.462   6.636   7.341 -0.3138 -0.2819  1.2901
   54CHL1   H7A 3934   2.463   6.745   7.364  0.0375 -0.3890  1.7949
   54CHL1   H7B 3935   2.357   6.599   7.342 -0.3883 -0.0984  0.5258
   54CHL1    C8 3936   2.553   6.552   7.438 -0.3616 -0.2992 -0.4802
   54CHL1    H8 3937   2.645   6.610   7.459 -2.3333  3.8133 -2.0563
   54CHL1   C14 3938   2.478   6.549   7.575  0.6656  0.0075 -0.0081
   54CHL1   H14 3939   2.379   6.501   7.561  0.1174  0.8086  0.9669
   54CHL1   C15 3940   2.449   6.685   7.639  0.4842 -0.0590  0.4636
   54CHL1  H15A 3941   2.538   6.750   7.623 -0.5769  1.1872 -0.5662
   54CHL1  H15B 3942   2.369   6.751   7.601  0.5168  0.3001  1.0062
   54CHL1   C16 3943   2.414   6.651   7.785  0.2316 -0.1745  0.9886
   54CHL1  H16A 3944   2.470   6.723   7.849 -0.9797  1.5856  0.1522
   54CHL1  H16B 3945   2.313   6.685   7.814  0.7537  2.0635  0.3237
   54CHL1   C17 3946   2.452   6.501   7.806  1.1283  0.4015  0.7858
   54CHL1   H17 3947   2.358   6.444   7.792  0.5499  1.8747 -1.9137
   54CHL1   C13 3948   2.542   6.464   7.683 -0.7190  0.0882  1.5346
   54CHL1   C18 3949   2.688   6.517   7.718  0.0176 -0.1462  0.3128
   54CHL1  H18A 3950   2.738   6.442   7.784  0.9850  0.0056 -0.2390
   54CHL1  H18B 3951   2.760   6.529   7.634 -0.1970 -0.9012  0.0117
   54CHL1  H18C 3952   2.682   6.611   7.776  0.9976 -0.2702  0.6383
   54CHL1   C12 3953   2.552   6.316   7.626 -0.4448  0.4834 -0.8926
   54CHL1  H12A 3954   2.604   6.244   7.693 -1.4022  1.0098  0.4717
   54CHL1  H12B 3955   2.449   6.276   7.618 -2.0084  4.0187 -0.4895
   54CHL1   C11 3956   2.632   6.307   7.490  0.0340 -0.3090 -0.5930
   54CHL1  H11A 3957   2.740   6.327   7.498  0.1452 -1.2005  0.3820
   54CHL1  H11B 3958   2.616   6.202   7.457  0.9820 -0.4428 -0.6527
   54CHL1    C9 3959   2.576   6.411   7.384 -0.2730  0.2555 -0.1736
   54CHL1    H9 3960   2.469   6.385   7.367 -0.2588  1.5293 -2.7042
   54CHL1   C10 3961   2.637   6.405   7.247  0.3756  0.1501 -0.1949
   54CHL1   C19 3962   2.793   6.421   7.266  0.6002  0.0828 -0.2561
   54CHL1  H19A 3963   2.808   6.505   7.337 -2.5880 -1.0786  1.9970
   54CHL1  H19B 3964   2.826   6.324   7.309 -0.7949  0.4101  1.7114
   54CHL1  H19C 3965   2.858   6.443   7.178  0.8637  0.6265  0.0692
   54CHL1    C1 3966   2.602   6.275   7.166  0.5620 -0.8374  0.5075
   54CHL1   H1A 3967   2.640   6.182   7.215 -0.2163 -3.0142 -2.6700
   54CHL1   H1B 3968   2.492   6.269   7.150  0.6025  0.5258 -0.4311
   54CHL1    C2 3969   2.668   6.271   7.024  0.3531  0.0931 -0.0335
   54CHL1   H2A 3970   2.642   6.185   6.959 -1.4018  1.0666 -0.6905
   54CHL1   H2B 3971   2.778   6.274   7.037  0.6856  1.2339 -2.5211
   54CHL1   C20 3972   2.503   6.474   7.952  0.9592  0.1713 -0.0138
   54CHL1   H20 3973   2.572   6.555   7.985  0.6724  0.1167  0.7284
   54CHL1   C21 3974   2.571   6.336   7.967  0.1184  0.6632 -0.1175
   54CHL1  H21A 3975   2.502   6.256   7.931  0.9803 -0.0414 -0.2362
   54CHL1  H21B 3976   2.599   6.308   8.071 -0.7786  0.3533  0.0513
   54CHL1  H21C 3977   2.667   6.335   7.911 -1.0812 -1.6006 -2.3751
   54CHL1   C22 3978   2.384   6.481   8.047  0.4592 -0.5488 -0.2480
   54CHL1  H22A 3979   2.318   6.567   8.023  0.4003 -0.5619 -0.1318
   54CHL1  H22B 3980   2.323   6.390   8.031 -0.2657 -0.2560  0.8168
   54CHL1   C23 3981   2.418   6.484   8.201 -0.6682  0.3147  1.1340
   54CHL1  H23A 3982   2.458   6.384   8.228  1.7943  0.0967 -2.5887
   54CHL1  H23B 3983   2.491   6.562   8.229  0.2443 -0.1900  0.2170
   54CHL1   C24 3984   2.287   6.503   8.274  0.0715  0.2367 -0.9081
   54CHL1  H24A 3985   2.237   6.590   8.227 -0.0602  1.3126  1.0923
   54CHL1  H24B 3986   2.218   6.416   8.265  2.2476 -1.6074 -0.8038
   54CHL1   C25 3987   2.305   6.536   8.421 -0.1757 -1.1526 -0.2827
   54CHL1   H25 3988   2.364   6.628   8.437 -3.3701  0.7394  1.9753
   54CHL1   C26 3989   2.165   6.573   8.485  0.3631 -0.6414  0.1266
   54CHL1  H26A 3990   2.164   6.597   8.593 -0.5668  2.7542 -0.5219
   54CHL1  H26B 3991   2.106   6.655   8.440 -0.1404  0.2824  2.3490
   54CHL1  H26C 3992   2.107   6.478   8.479  0.7435 -0.9157  0.6808
   54CHL1   C27 3993   2.364   6.426   8.506 -0.0151  0.0442  0.3566
   54CHL1  H27A 3994   2.376   6.464   8.610 -1.2912 -0.2186  0.6131
   54CHL1  H27B 3995   2.302   6.335   8.502 -1.0743  0.7972 -1.3615
   54CHL1  H27C 3996   2.465   6.398   8.468 -0.9119 -0.4512 -1.7520
   55CHL1    C3 3997   4.253   2.406   7.059  0.0057  0.7166 -0.6871
   55CHL1    H3 3998   4.363   2.418   7.044  0.4836 -1.7193  0.2997
   55CHL1    O3 3999   4.188   2.474   6.959  0.5969 -0.1806  0.7228
   55CHL1   H3' 4000   4.122   2.420   6.915 -0.6745  2.6653 -1.1908
   55CHL1    C4 4001   4.216   2.260   7.057 -0.3549 -0.0378 -0.9154
   55CHL1   H4A 4002   4.106   2.243   7.060 -0.2955 -0.7494 -2.0760
   55CHL1   H4B 4003   4.249   2.211   6.962 -0.0731 -0.0133 -0.8310
   55CHL1    C5 4004   4.283   2.188   7.171  0.6260 -0.2471  0.5716
   55CHL1    C6 4005   4.363   2.086   7.153  0.2612 -0.1355 -0.0343
   55CHL1    H6 4006   4.397   2.060   7.052 -0.2283 -0.8443 -0.0175
   55CHL1    C7 4007   4.428   1.997   7.259 -0.3676  0.2270  0.7632
   55CHL1   H7A 4008   4.409   1.888   7.243 -1.2688  0.4134  0.5088
   55CHL1   H7B 4009   4.536   2.020   7.249 -0.5400  0.1030 -2.7502
   55CHL1    C8 4010   4.368   2.027   7.400  0.2855 -0.7896 -0.1631
   55CHL1    H8 4011   4.270   1.975   7.403  0.9369 -2.0318  0.2638
   55CHL1   C14 4012   4.464   1.975   7.511  0.1300 -0.0248 -0.0324
   55CHL1   H14 4013   4.552   2.040   7.495 -2.0650  2.4536 -3.7254
   55CHL1   C15 4014   4.496   1.829   7.508  0.3779  0.4282  0.0739
   55CHL1  H15A 4015   4.396   1.779   7.509  0.7069 -0.2482 -0.0978
   55CHL1  H15B 4016   4.566   1.803   7.425  1.1960  2.8195 -0.0628
   55CHL1   C16 4017   4.576   1.805   7.640  0.4356 -0.0562  0.1865
   55CHL1  H16A 4018   4.552   1.706   7.684  1.4432  0.0995  1.1316
   55CHL1  H16B 4019   4.685   1.802   7.617  0.2829 -1.6935 -0.3971
   55CHL1   C17 4020   4.541   1.936   7.724  0.9986  0.0953  0.4953
   55CHL1   H17 4021   4.630   1.998   7.701  2.4386 -1.7253  0.9508
   55CHL1   C13 4022   4.422   2.009   7.648 -0.1122 -0.1656 -0.2833
   55CHL1   C18 4023   4.290   1.938   7.695 -0.1330  0.5395  0.3913
   55CHL1  H18A 4024   4.212   1.958   7.618  0.9809 -0.8594 -1.1536
   55CHL1  H18B 4025   4.281   1.828   7.709 -1.3564 -0.0182 -3.6457
   55CHL1  H18C 4026   4.247   1.990   7.783  1.6366 -0.1635  1.7163
   55CHL1   C12 4027   4.410   2.162   7.664 -0.5541  1.0566 -0.2470
   55CHL1  H12A 4028   4.355   2.181   7.759 -0.9967  1.3816 -0.5651
   55CHL1  H12B 4029   4.511   2.208   7.658 -0.2556  0.1969 -2.5733
   55CHL1   C11 4030   4.310   2.214   7.557  0.1985 -0.1770  0.2440
   55CHL1  H11A 4031   4.209   2.169   7.571 -0.3994  0.0755 -2.5738
   55CHL1  H11B 4032   4.300   2.325   7.563 -0.5840 -0.2758  1.1271
   55CHL1    C9 4033   4.351   2.178   7.413 -0.3658  0.5781 -0.3633
   55CHL1    H9 4034   4.453   2.222   7.405 -0.1500  0.4903  1.4002
   55CHL1   C10 4035   4.253   2.241   7.310 -0.1159 -0.1602 -0.1473
   55CHL1   C19 4036   4.103   2.219   7.350 -1.0268  0.4712  0.5578
   55CHL1  H19A 4037   4.082   2.307   7.415 -0.3022  1.4984 -0.5745
   55CHL1  H19B 4038   4.035   2.239   7.265 -0.7564  0.0684  0.2450
   55CHL1  H19C 4039   4.076   2.117   7.388 -2.9624  1.2263  1.3683
   55CHL1    C1 4040   4.289   2.394   7.308  0.1451 -0.4361 -0.3941
   55CHL1   H1A 4041   4.276   2.445   7.406 -1.1121  2.5678 -1.9821
   55CHL1   H1B 4042   4.397   2.407   7.285  0.9012  2.1851  3.6178
   55CHL1    C2 4043   4.211   2.470   7.192 -0.3654  0.7110 -1.1070
   55CHL1   H2A 4044   4.259   2.570   7.196  0.0911  0.4687 -0.3154
   55CHL1   H2B 4045   4.101   2.476   7.201 -0.1103  2.2696  2.2670
   55CHL1   C20 4046   4.539   1.918   7.877  0.6756  0.0463 -0.2563
   55CHL1   H20 4047   4.437   1.884   7.905  0.6340  0.6463  0.3697
   55CHL1   C21 4048   4.559   2.061   7.935  0.4200  0.1122 -0.1745
   55CHL1  H21A 4049   4.469   2.124   7.919 -0.2357 -1.1758 -1.8264
   55CHL1  H21B 4050   4.650   2.103   7.887  0.7117 -0.6339 -0.2762
   55CHL1  H21C 4051   4.574   2.055   8.045  0.1919  1.6392 -0.0358
   55CHL1   C22 4052   4.641   1.812   7.930  0.4439 -0.2080 -0.8453
   55CHL1  H22A 4053   4.644   1.721   7.867  1.3545  0.9904 -2.6067
   55CHL1  H22B 4054   4.743   1.855   7.931  0.0827  0.7125 -1.5731
   55CHL1   C23 4055   4.616   1.779   8.076  0.2082  0.3010 -0.2332
   55CHL1  H23A 4056   4.702   1.723   8.118  0.4642  0.8236 -0.0404
   55CHL1  H23B 4057   4.606   1.867   8.142 -0.2069 -0.7722  1.1687
   55CHL1   C24 4058   4.486   1.716   8.112  0.3995 -0.2398  0.4018
   55CHL1  H24A 4059   4.406   1.789   8.087 -0.6791 -0.9474  1.6818
   55CHL1  H24B 4060   4.465   1.639   8.035 -2.2871  1.1576 -0.3492
   55CHL1   C25 4061   4.484   1.653   8.258  0.3738 -0.1632 -0.2623
   55CHL1   H25 4062   4.516   1.737   8.322 -1.7576  2.6267 -2.5906
   55CHL1   C26 4063   4.337   1.634   8.308  0.0539  0.9337 -0.1794
   55CHL1  H26A 4064   4.283   1.731   8.297  0.9812  1.2695 -2.2422
   55CHL1  H26B 4065   4.289   1.556   8.245  2.1746 -1.5484  1.0852
   55CHL1  H26C 4066   4.340   1.606   8.415  3.0529 -1.1825 -0.7041
   55CHL1   C27 4067   4.565   1.523   8.281  0.1541  0.1522 -0.7083
   55CHL1  H27A 4068   4.674   1.526   8.259  0.5422 -1.3078  0.8266
   55CHL1  H27B 4069   4.557   1.489   8.386  2.5147  0.2188 -0.4556
   55CHL1  H27C 4070   4.530   1.437   8.220  0.7857  0.7241 -1.9185
   56CHL1    C3 4071   2.240   6.220   6.974 -0.1630  0.1563  0.5833
   56CHL1    H3 4072   2.341   6.204   7.017  0.1372  0.6836  0.0933
   56CHL1    O3 4073   2.243   6.176   6.833 -0.1857 -0.2406 -0.2371
   56CHL1   H3' 4074   2.276   6.254   6.789 -1.7340  0.5741 -0.0292
   56CHL1    C4 4075   2.141   6.136   7.049 -0.6344 -0.2202 -0.4736
   56CHL1   H4A 4076   2.046   6.126   6.992 -0.9200  0.8839 -0.2143
   56CHL1   H4B 4077   2.169   6.029   7.050 -0.8695 -0.2746  0.2451
   56CHL1    C5 4078   2.121   6.186   7.193 -0.3762  0.7227 -0.2307
   56CHL1    C6 4079   2.150   6.108   7.297  0.0598  0.2321  0.3913
   56CHL1    H6 4080   2.188   6.006   7.279  0.8872  0.6414 -0.2926
   56CHL1    C7 4081   2.124   6.151   7.444 -0.5135 -0.1356  0.3369
   56CHL1   H7A 4082   2.066   6.072   7.497 -1.8648 -0.7062 -1.8339
   56CHL1   H7B 4083   2.225   6.161   7.489  0.6519  0.1700 -2.1828
   56CHL1    C8 4084   2.037   6.287   7.451  0.4193  0.2147 -0.3321
   56CHL1    H8 4085   1.931   6.261   7.428  0.6843 -1.0484 -0.2200
   56CHL1   C14 4086   2.050   6.349   7.594 -0.0490  0.1376 -0.1128
   56CHL1   H14 4087   2.156   6.382   7.598 -0.5856  1.8129  1.8591
   56CHL1   C15 4088   2.031   6.257   7.713  0.0670  0.3371  0.1375
   56CHL1  H15A 4089   1.950   6.181   7.703  0.4641 -0.2825  1.4083
   56CHL1  H15B 4090   2.120   6.196   7.740 -0.4063 -0.5976 -0.3302
   56CHL1   C16 4091   1.986   6.350   7.831 -1.0541  0.1570  0.3187
   56CHL1  H16A 4092   1.895   6.300   7.869 -0.6012 -1.6743 -0.8829
   56CHL1  H16B 4093   2.071   6.354   7.903 -1.1084 -0.8678  0.4462
   56CHL1   C17 4094   1.973   6.496   7.775 -0.3344  0.5956  0.6365
   56CHL1   H17 4095   2.069   6.553   7.775  0.8484 -1.3284  1.1056
   56CHL1   C13 4096   1.954   6.468   7.613  0.2843 -0.6425  0.1906
   56CHL1   C18 4097   1.801   6.442   7.597 -0.3623  0.6933 -0.0364
   56CHL1  H18A 4098   1.741   6.535   7.602 -0.4664  0.7738 -2.1543
   56CHL1  H18B 4099   1.775   6.396   7.500 -0.1122 -1.3908  0.8279
   56CHL1  H18C 4100   1.755   6.369   7.667 -2.0831  1.5952 -0.1964
   56CHL1   C12 4101   2.004   6.571   7.516 -0.1785 -0.3791  0.0483
   56CHL1  H12A 4102   1.939   6.660   7.524 -1.8275 -1.5458  0.3720
   56CHL1  H12B 4103   2.106   6.610   7.537 -0.1510  0.4530 -1.4781
   56CHL1   C11 4104   2.000   6.524   7.371 -0.6187  0.0108  0.0701
   56CHL1  H11A 4105   1.897   6.521   7.331 -0.1416 -1.5814 -1.1519
   56CHL1  H11B 4106   2.050   6.596   7.302 -1.3097 -0.1240 -0.5791
   56CHL1    C9 4107   2.074   6.385   7.349 -0.6237 -0.6892 -0.8556
   56CHL1    H9 4108   2.178   6.407   7.380 -1.0078 -1.1839  0.8382
   56CHL1   C10 4109   2.078   6.334   7.201 -0.1768 -0.2555  0.4666
   56CHL1   C19 4110   1.935   6.347   7.152  0.5647 -0.6143  0.9638
   56CHL1  H19A 4111   1.873   6.292   7.226  0.2854 -0.7535  0.6274
   56CHL1  H19B 4112   1.890   6.447   7.138 -0.4753 -0.8132  2.6750
   56CHL1  H19C 4113   1.943   6.300   7.051 -2.9065  0.9010 -0.1643
   56CHL1    C1 4114   2.178   6.419   7.126  0.2834  0.1959 -0.0318
   56CHL1   H1A 4115   2.151   6.526   7.125 -1.7011 -0.2357  1.4058
   56CHL1   H1B 4116   2.278   6.407   7.174  1.1779  2.2428 -1.2557
   56CHL1    C2 4117   2.198   6.368   6.982  0.3300 -0.4109  0.5521
   56CHL1   H2A 4118   2.281   6.431   6.944  0.1697 -1.0990 -1.0136
   56CHL1   H2B 4119   2.107   6.382   6.922  1.2815  0.1949 -0.7947
   56CHL1   C20 4120   1.870   6.589   7.843  0.0303  0.0497  0.3567
   56CHL1   H20 4121   1.767   6.548   7.834  0.4219 -0.7834 -0.4946
   56CHL1   C21 4122   1.873   6.731   7.781  0.6369  0.0656 -0.6541
   56CHL1  H21A 4123   1.977   6.770   7.772  1.0247 -0.5300  0.8347
   56CHL1  H21B 4124   1.818   6.797   7.850  1.8444 -0.8012  1.2402
   56CHL1  H21C 4125   1.829   6.738   7.679 -0.6216  0.0897 -0.1206
   56CHL1   C22 4126   1.900   6.595   8.001  0.4624 -0.6759 -0.0784
   56CHL1  H22A 4127   1.922   6.493   8.040  0.0821 -0.5846  0.3737
   56CHL1  H22B 4128   1.982   6.666   8.024 -2.4959  2.6767  0.9520
   56CHL1   C23 4129   1.783   6.644   8.087 -0.0702 -0.6492  0.6916
   56CHL1  H23A 4130   1.747   6.738   8.042  1.1587 -0.5411 -0.1202
   56CHL1  H23B 4131   1.718   6.555   8.073  3.0682 -3.3325  1.7337
   56CHL1   C24 4132   1.816   6.662   8.234 -0.2924 -0.3278  0.4115
   56CHL1  H24A 4133   1.861   6.567   8.270 -1.0781 -0.7026  0.4200
   56CHL1  H24B 4134   1.883   6.749   8.255 -0.4533 -0.0675 -0.1343
   56CHL1   C25 4135   1.701   6.671   8.330 -0.2553  0.1725  0.0230
   56CHL1   H25 4136   1.624   6.593   8.314  0.1421 -1.0228  3.2607
   56CHL1   C26 4137   1.756   6.673   8.467  0.4360  0.9354 -0.2145
   56CHL1  H26A 4138   1.830   6.756   8.477  0.5923  0.9721 -1.5214
   56CHL1  H26B 4139   1.811   6.577   8.478 -0.4215 -0.0014 -3.2482
   56CHL1  H26C 4140   1.672   6.686   8.538 -0.7091 -0.3194 -1.2924
   56CHL1   C27 4141   1.628   6.807   8.307 -0.5093 -0.5049 -0.4304
   56CHL1  H27A 4142   1.536   6.816   8.369 -0.3444  1.6388 -0.4293
   56CHL1  H27B 4143   1.685   6.901   8.328 -1.4861 -0.0156  0.1147
   56CHL1  H27C 4144   1.591   6.822   8.204 -0.1737 -0.7399 -0.5877
   57SAPC     N 4145   1.047   3.998  11.051 -0.4398 -0.4327  0.3878
   57SAPC   C12 4146   0.999   3.966  10.907  0.3798 -0.1776  0.2910
   57SAPC  H12A 4147   0.997   4.055  10.846 -2.4317 -0.5388 -0.2707
   57SAPC  H12B 4148   0.892   3.950  10.913  0.0519  0.8100 -2.1096
   57SAPC   C13 4149   1.192   4.022  11.060  0.0900  0.3791  0.1075
   57SAPC  H13A 4150   1.223   4.115  11.015  0.0366 -0.7907 -2.5472
   57SAPC  H13B 4151   1.236   4.020  11.158 -3.3441 -2.4998  1.8141
   57SAPC  H13C 4152   1.243   3.936  11.017  1.1742  0.5859  0.9340
   57SAPC   C14 4153   0.974   4.122  11.101  0.5247  0.1975 -0.2474
   57SAPC  H14A 4154   1.008   4.212  11.053  2.1221 -0.4930 -0.4957
   57SAPC  H14B 4155   0.868   4.118  11.081  0.6548 -1.1502 -0.8122
   57SAPC  H14C 4156   0.981   4.127  11.209  1.5186  1.4774 -0.3469
   57SAPC   C15 4157   1.016   3.881  11.137 -0.0741 -0.8239  0.4122
   57SAPC  H15A 4158   1.049   3.911  11.235  1.4671  0.5721 -0.4881
   57SAPC  H15B 4159   0.910   3.860  11.145 -0.5568  1.0129 -0.6419
   57SAPC  H15C 4160   1.073   3.795  11.104  0.2741 -0.3760 -0.1683
   57SAPC   C11 4161   1.078   3.861  10.816 -0.0766 -0.0065 -0.5188
   57SAPC  H11A 4162   1.184   3.885  10.838  0.3520 -0.3797 -2.0482
   57SAPC  H11B 4163   1.055   3.894  10.712  0.4286 -2.4176 -1.4692
   57SAPC     P 4164   1.039   3.622  10.724 -0.1241  0.1836 -0.0392
   57SAPC   O13 4165   1.072   3.495  10.786  0.0393  0.1394  0.1452
   57SAPC   O14 4166   0.920   3.633  10.642  0.8959  0.2426  0.1391
   57SAPC   O12 4167   1.056   3.725  10.842  0.2673  0.3012  0.4444
   57SAPC   O11 4168   1.164   3.662  10.630  0.5497 -0.1724  0.3559
   57SAPC    C1 4169   1.153   3.748  10.520  0.0216  0.5044  0.2586
   57SAPC    HA 4170   1.054   3.799  10.519  0.0611  0.7650  2.5737
   57SAPC    HB 4171   1.235   3.822  10.515  0.8067 -0.4319 -1.9993
   57SAPC    C2 4172   1.147   3.673  10.384  0.9319 -0.2416  0.9902
   57SAPC    HS 4173   1.053   3.613  10.387 -1.4629  3.2417  1.4083
   57SAPC   O21 4174   1.265   3.588  10.365  0.0571 -0.4068  0.7873
   57SAPC   C21 4175   1.251   3.489  10.284  0.2223  0.7135 -0.5424
   57SAPC   O22 4176   1.142   3.446  10.234  0.0367  0.2392 -0.0010
   57SAPC   C22 4177   1.385   3.435  10.245  0.3443  0.2825 -0.0247
   57SAPC   H2R 4178   1.454   3.522  10.236  2.5591 -1.5457 -2.0719
   57SAPC   H2S 4179   1.425   3.378  10.331 -1.3033  2.7671  2.5815
   57SAPC    C3 4180   1.131   3.773  10.263 -0.2143 -0.8216  0.2508
   57SAPC    HX 4181   1.232   3.818  10.269 -0.1782 -0.6775 -1.1234
   57SAPC    HY 4182   1.067   3.862  10.279 -1.4753 -1.2745 -1.8222
   57SAPC   O31 4183   1.104   3.721  10.133 -0.0691  0.6234 -0.2300
   57SAPC   C31 4184   0.976   3.710  10.109 -0.6133  0.1406  0.4139
   57SAPC   O32 4185   0.888   3.769  10.174 -0.3480 -0.0939  0.5749
   57SAPC   C32 4186   0.960   3.623   9.990 -0.3747 -0.0705  0.3065
   57SAPC   H2X 4187   1.012   3.529  10.017 -1.6897 -0.5993  1.1182
   57SAPC   H2Y 4188   1.012   3.662   9.900 -0.1108 -0.1022  0.4465
   57SAPC   C23 4189   1.397   3.347  10.120  0.3785 -0.0147  0.3654
   57SAPC   H3R 4190   1.334   3.256  10.127 -3.0129  2.0926 -0.3259
   57SAPC   H3S 4191   1.503   3.314  10.116  0.7387  1.0239  0.9059
   57SAPC   C24 4192   1.363   3.435  10.001 -0.1493 -0.0350  0.0329
   57SAPC   H4R 4193   1.422   3.529  10.010  0.6616 -0.6281  1.1156
   57SAPC   H4S 4194   1.257   3.467  10.011  0.5624  2.4643  0.3848
   57SAPC   C25 4195   1.391   3.378   9.863  0.3098  0.0761 -0.4687
   57SAPC   H5R 4196   1.488   3.329   9.873  0.7289  1.0573  0.4466
   57SAPC   C26 4197   1.311   3.387   9.758 -0.1862  0.2690 -0.6587
   57SAPC   H6R 4198   1.350   3.335   9.669  1.2248  0.7056 -0.3219
   57SAPC   C27 4199   1.175   3.447   9.746 -0.1396 -0.4654  0.1743
   57SAPC   H7R 4200   1.188   3.554   9.720 -0.3647 -0.0156  1.8296
   57SAPC   H7S 4201   1.113   3.462   9.837  0.2096  2.1506  0.0623
   57SAPC   C28 4202   1.089   3.381   9.637 -0.0960 -0.1063  0.4502
   57SAPC   H8R 4203   1.105   3.275   9.613 -1.1205 -0.7182  2.2911
   57SAPC   C29 4204   0.981   3.435   9.567 -0.5920  0.2102 -0.1950
   57SAPC   H9R 4205   0.941   3.382   9.479  0.5616  1.5621 -1.6176
   57SAPC  C210 4206   0.945   3.586   9.584 -0.3485  0.8191 -0.1225
   57SAPC  H10R 4207   1.023   3.655   9.546  0.1094  1.7001  2.2217
   57SAPC  H10S 4208   0.937   3.606   9.693 -0.3252  0.7779 -0.1129
   57SAPC  C211 4209   0.817   3.615   9.505  0.5762 -0.2390  0.4248
   57SAPC  H11R 4210   0.725   3.563   9.533  1.6112 -3.7037 -1.9647
   57SAPC  C212 4211   0.795   3.713   9.411 -0.0235  0.2412 -0.0534
   57SAPC  H12R 4212   0.695   3.729   9.369  0.2180  0.9047 -0.3973
   57SAPC  C213 4213   0.887   3.822   9.367 -0.1067  0.3986  0.1387
   57SAPC  H13R 4214   0.995   3.800   9.383  0.0736  0.0754 -1.3775
   57SAPC  H13S 4215   0.866   3.914   9.427 -0.5458  0.5799 -0.2890
   57SAPC  C214 4216   0.858   3.843   9.216 -0.4771 -0.5061 -1.1024
   57SAPC  H14R 4217   0.873   3.755   9.151  1.5263 -1.9402  1.1223
   57SAPC  C215 4218   0.844   3.968   9.168  0.7374 -0.6048  0.4794
   57SAPC  H15R 4219   0.825   3.985   9.061  0.4776  1.0940  0.7614
   57SAPC  C216 4220   0.849   4.110   9.226  0.6316  0.3766  0.2423
   57SAPC  H16R 4221   0.881   4.175   9.143 -2.3126 -0.0015 -1.3105
   57SAPC  H16S 4222   0.922   4.104   9.310  1.2252 -3.7945 -0.3482
   57SAPC  C217 4223   0.716   4.178   9.262 -0.6215 -0.1849 -0.2408
   57SAPC  H17R 4224   0.641   4.138   9.191  0.5321 -2.5138 -0.2721
   57SAPC  H17S 4225   0.722   4.288   9.266 -3.0469  0.0079 -0.2218
   57SAPC  C218 4226   0.669   4.159   9.409  0.9055 -0.2290  0.8099
   57SAPC  H18R 4227   0.678   4.048   9.421 -0.1940 -0.5080 -0.6882
   57SAPC  H18S 4228   0.562   4.185   9.425  0.8761 -0.1312  0.4546
   57SAPC  C219 4229   0.754   4.227   9.523 -0.0379  0.2168 -0.7642
   57SAPC  H19R 4230   0.859   4.194   9.504 -0.0926  0.6573 -1.9163
   57SAPC  H19S 4231   0.733   4.182   9.622  1.6763 -0.4514 -0.6708
   57SAPC  C220 4232   0.747   4.380   9.523  0.3770 -0.5197  0.5389
   57SAPC  H20R 4233   0.808   4.418   9.608 -0.1658  1.7950 -0.0237
   57SAPC  H20S 4234   0.647   4.423   9.543 -0.9856 -3.7447  1.1861
   57SAPC  H20T 4235   0.798   4.416   9.431  2.6379 -0.5141  1.7282
   57SAPC   C33 4236   0.815   3.600   9.944 -0.1911 -0.5217 -0.0411
   57SAPC   H3X 4237   0.756   3.584  10.037 -0.3770  1.3382  0.2108
   57SAPC   H3Y 4238   0.795   3.510   9.882 -0.5608 -1.2074  1.0551
   57SAPC   C34 4239   0.761   3.729   9.878  0.0057  0.2394  0.1789
   57SAPC   H4X 4240   0.819   3.766   9.791  0.1716 -0.0719  0.1564
   57SAPC   H4Y 4241   0.766   3.824   9.937 -0.0350 -0.9153  2.1346
   57SAPC   C35 4242   0.621   3.721   9.818  0.1342 -0.3985  0.4623
   57SAPC   H5X 4243   0.557   3.662   9.887 -2.6709  1.1373 -0.6532
   57SAPC   H5Y 4244   0.634   3.661   9.726 -0.5597 -2.2209  1.4993
   57SAPC   C36 4245   0.563   3.862   9.783 -0.0369  0.2129 -0.7710
   57SAPC   H6X 4246   0.645   3.919   9.735  1.7047 -0.6352  1.0182
   57SAPC   H6Y 4247   0.527   3.907   9.878 -1.8158 -0.0650 -1.2838
   57SAPC   C37 4248   0.441   3.867   9.690 -1.0449 -0.0115  0.3947
   57SAPC   H7X 4249   0.356   3.802   9.723  0.0018 -1.5541  0.1925
   57SAPC   H7Y 4250   0.463   3.839   9.585 -0.5802 -1.1053  0.7656
   57SAPC   C38 4251   0.400   4.023   9.679  0.6628 -0.8180 -0.5717
   57SAPC   H8X 4252   0.481   4.090   9.641  1.4010 -1.1876  0.3082
   57SAPC   H8Y 4253   0.396   4.058   9.785 -2.0074  2.5053 -1.6005
   57SAPC   C39 4254   0.267   4.041   9.602 -0.4334 -0.4305 -0.0278
   57SAPC   H9X 4255   0.185   3.971   9.626 -0.0981 -2.0268 -3.0334
   57SAPC   H9Y 4256   0.278   4.012   9.495  0.0945 -1.0433  0.1900
   57SAPC  C310 4257   0.199   4.180   9.614 -0.7020  0.3920  0.3045
   57SAPC  H10X 4258   0.196   4.200   9.723  1.4034  3.2889 -0.0484
   57SAPC  H10Y 4259   0.096   4.193   9.576 -0.4348 -2.5139 -1.7703
   57SAPC  C311 4260   0.282   4.300   9.554 -0.1749 -0.2082 -0.2223
   57SAPC  H11X 4261   0.390   4.276   9.552  0.7074  3.1767 -0.3800
   57SAPC  H11Y 4262   0.274   4.394   9.613  3.5706 -0.7286  1.3934
   57SAPC  C312 4263   0.240   4.333   9.404  0.3629 -1.1927 -0.2477
   57SAPC  H12X 4264   0.137   4.376   9.404  0.9698  0.3619  0.7683
   57SAPC  H12Y 4265   0.244   4.235   9.352 -0.6584 -2.1061  1.3164
   57SAPC  C313 4266   0.348   4.430   9.340  0.2710  0.1697 -0.9395
   57SAPC  H13X 4267   0.442   4.372   9.355 -1.0824 -1.8237  0.3214
   57SAPC  H13Y 4268   0.351   4.526   9.396  2.9936 -1.0137  1.2103
   57SAPC  C314 4269   0.324   4.467   9.195  0.5064  0.7419 -0.0647
   57SAPC  H14X 4270   0.395   4.549   9.171 -0.3650  1.8219  0.9158
   57SAPC  H14Y 4271   0.220   4.505   9.189 -0.2010 -0.1789  3.5399
   57SAPC  C315 4272   0.321   4.351   9.102 -1.4163  0.0945 -0.2747
   57SAPC  H15X 4273   0.249   4.273   9.135  1.0599 -1.3229  2.1668
   57SAPC  H15Y 4274   0.425   4.311   9.109 -1.5909 -0.1343  1.3056
   57SAPC  C316 4275   0.281   4.382   8.954  0.5085 -0.4771 -0.7786
   57SAPC  H16X 4276   0.344   4.466   8.917  1.1728 -2.2183 -3.9135
   57SAPC  H16Y 4277   0.172   4.401   8.970  0.1425 -3.2879  0.5857
   57SAPC  C317 4278   0.312   4.260   8.874 -0.7403 -0.3906 -0.9361
   57SAPC  H17X 4279   0.260   4.172   8.917  3.1956 -0.7795  3.9898
   57SAPC  H17Y 4280   0.418   4.237   8.897 -1.1437 -0.6588  0.7857
   57SAPC  C318 4281   0.287   4.276   8.723  0.1603  0.1797  0.3341
   57SAPC  H18X 4282   0.246   4.176   8.695  0.8205 -0.6622  2.1891
   57SAPC  H18Y 4283   0.377   4.288   8.659 -0.4005 -0.3442 -0.5802
   57SAPC  H18Z 4284   0.210   4.352   8.701 -3.2476 -2.9952  0.3202
   58SAPC     N 4285   3.046   1.017  10.660  0.4268  0.2911  0.2406
   58SAPC   C12 4286   3.088   1.119  10.556 -0.2794  0.1109 -0.3970
   58SAPC  H12A 4287   3.008   1.189  10.536 -2.5611 -2.1963  0.0548
   58SAPC  H12B 4288   3.114   1.065  10.466  0.2103 -0.4038  0.0505
   58SAPC   C13 4289   3.017   1.077  10.799 -0.0345  0.7526 -0.5686
   58SAPC  H13A 4290   2.949   1.158  10.778 -1.2075 -0.1896 -0.4592
   58SAPC  H13B 4291   2.960   1.011  10.863  0.8731  0.1497 -0.3622
   58SAPC  H13C 4292   3.106   1.114  10.849 -0.3678  1.1674 -0.2684
   58SAPC   C14 4293   2.912   0.955  10.613  0.2456  0.0418  0.2637
   58SAPC  H14A 4294   2.844   1.030  10.574  0.8025  0.3162 -0.2080
   58SAPC  H14B 4295   2.927   0.873  10.544 -2.1143  0.1405 -0.4434
   58SAPC  H14C 4296   2.874   0.910  10.703  0.2766  2.1622  1.4090
   58SAPC   C15 4297   3.141   0.901  10.677  0.3505  0.0475 -0.1818
   58SAPC  H15A 4298   3.098   0.828  10.744 -2.1979  0.7723 -0.9102
   58SAPC  H15B 4299   3.168   0.868  10.578  1.7148  1.4109 -0.3005
   58SAPC  H15C 4300   3.231   0.941  10.721 -1.0368  0.5154  2.4669
   58SAPC   C11 4301   3.211   1.208  10.585  0.2302 -0.2306  0.2277
   58SAPC  H11A 4302   3.183   1.288  10.658  0.0407 -1.3964  1.4700
   58SAPC  H11B 4303   3.230   1.259  10.488 -1.2232  1.9540  1.0106
   58SAPC     P 4304   3.403   1.143  10.760  0.1509  0.3117  0.1130
   58SAPC   O13 4305   3.367   1.269  10.825  0.1943 -0.5441 -0.6178
   58SAPC   O14 4306   3.381   1.018  10.830 -0.5522 -0.1819  0.1329
   58SAPC   O12 4307   3.330   1.136  10.620  0.0571 -1.1706 -0.0941
   58SAPC   O11 4308   3.551   1.161  10.708  0.3711  0.6252 -0.5075
   58SAPC    C1 4309   3.594   1.269  10.627  0.3445  0.3535  0.4264
   58SAPC    HA 4310   3.555   1.370  10.650  0.1785  0.5029 -0.4695
   58SAPC    HB 4311   3.704   1.281  10.637  0.4540 -1.0472  1.2302
   58SAPC    C2 4312   3.564   1.234  10.478  0.3083  0.5851  0.5953
   58SAPC    HS 4313   3.478   1.164  10.472 -0.5746  1.5761  1.3083
   58SAPC   O21 4314   3.689   1.171  10.440 -0.1711 -0.7528 -0.2544
   58SAPC   C21 4315   3.692   1.041  10.420  0.5094  0.2963 -0.8383
   58SAPC   O22 4316   3.602   0.959  10.425  0.4081  0.4184 -0.3355
   58SAPC   C22 4317   3.833   0.998  10.387 -0.4780 -0.5122  0.6308
   58SAPC   H2R 4318   3.908   1.079  10.398 -1.7271  0.4525  2.7898
   58SAPC   H2S 4319   3.863   0.920  10.460  1.0326 -0.3634  0.1949
   58SAPC    C3 4320   3.525   1.351  10.384 -0.3096 -0.1697 -0.0030
   58SAPC    HX 4321   3.616   1.405  10.351 -1.1976  1.9573  0.8623
   58SAPC    HY 4322   3.467   1.423  10.447  1.5022 -0.2231  1.8411
   58SAPC   O31 4323   3.458   1.301  10.267 -0.3028  0.1924 -0.0450
   58SAPC   C31 4324   3.353   1.372  10.218  0.0529  0.0559  0.2273
   58SAPC   O32 4325   3.310   1.477  10.266 -0.6062  0.7614 -0.2844
   58SAPC   C32 4326   3.287   1.291  10.108  0.9560  0.0814 -0.5270
   58SAPC   H2X 4327   3.177   1.305  10.113  1.0502  0.4559  1.0132
   58SAPC   H2Y 4328   3.301   1.183  10.128 -0.6529  0.1122  1.0345
   58SAPC   C23 4329   3.847   0.941  10.246 -0.0699 -0.3516 -0.0381
   58SAPC   H3R 4330   3.785   0.849  10.236  0.5053 -0.9587  1.5243
   58SAPC   H3S 4331   3.954   0.916  10.235  0.0170  0.8547 -2.5280
   58SAPC   C24 4332   3.833   1.057  10.140 -0.7730  0.7359 -0.6161
   58SAPC   H4R 4333   3.871   1.026  10.041 -0.9050  0.8764 -0.7110
   58SAPC   H4S 4334   3.915   1.128  10.165  0.8756 -1.1356 -0.4379
   58SAPC   C25 4335   3.686   1.089  10.119 -1.0864 -0.2586 -0.0385
   58SAPC   H5R 4336   3.645   1.163  10.190  3.7003  1.9345  0.8095
   58SAPC   C26 4337   3.607   1.044  10.025 -0.0865  0.3829 -0.3190
   58SAPC   H6R 4338   3.499   1.067  10.026 -0.3571 -0.7536 -0.8351
   58SAPC   C27 4339   3.643   0.949   9.916  0.1313 -0.0992 -0.9353
   58SAPC   H7R 4340   3.553   0.889   9.890 -0.5243 -1.0439  2.9010
   58SAPC   H7S 4341   3.724   0.884   9.955  2.9731  3.5206 -0.2507
   58SAPC   C28 4342   3.699   1.011   9.795 -0.4698  0.1013  0.7117
   58SAPC   H8R 4343   3.791   1.061   9.828 -0.9821 -0.3583  2.9609
   58SAPC   C29 4344   3.663   0.991   9.663 -0.2220 -0.4746  0.5439
   58SAPC   H9R 4345   3.720   1.033   9.578  0.1552 -1.7068  0.1534
   58SAPC  C210 4346   3.546   0.903   9.628  0.7380 -0.4103 -0.5856
   58SAPC  H10R 4347   3.492   0.949   9.542 -2.0999 -0.8543  0.8252
   58SAPC  H10S 4348   3.467   0.904   9.707  1.3325 -2.5925  0.0926
   58SAPC  C211 4349   3.585   0.762   9.604  0.4892  1.3105 -0.0964
   58SAPC  H11R 4350   3.625   0.718   9.697  1.2950 -0.2008 -1.1108
   58SAPC  C212 4351   3.588   0.698   9.484  0.3406 -0.4209 -0.2692
   58SAPC  H12R 4352   3.639   0.601   9.474 -1.1440 -1.0907 -1.7092
   58SAPC  C213 4353   3.536   0.760   9.358 -0.9954  0.1736 -0.7560
   58SAPC  H13R 4354   3.609   0.834   9.319 -1.4291  0.3082 -1.3352
   58SAPC  H13S 4355   3.450   0.829   9.373 -0.3144  1.4168 -2.2589
   58SAPC  C214 4356   3.504   0.659   9.255  0.0603 -0.1186  0.1023
   58SAPC  H14R 4357   3.533   0.557   9.284 -0.3250  0.5417  3.1260
   58SAPC  C215 4358   3.441   0.675   9.138  0.2766 -0.1995 -0.5681
   58SAPC  H15R 4359   3.431   0.590   9.069 -0.1748 -1.2170  0.7189
   58SAPC  C216 4360   3.382   0.802   9.079  0.4200 -0.4595 -0.3414
   58SAPC  H16R 4361   3.305   0.842   9.148  2.1502  3.1726 -0.2432
   58SAPC  H16S 4362   3.328   0.776   8.985 -1.9470  0.3303  0.7211
   58SAPC  C217 4363   3.490   0.909   9.062 -0.2314  0.0484  0.4378
   58SAPC  H17R 4364   3.591   0.871   9.033  0.1232  1.7313 -0.6889
   58SAPC  H17S 4365   3.508   0.959   9.159  0.4319  0.4575  0.1140
   58SAPC  C218 4366   3.470   1.005   8.944 -0.9147  0.0719 -0.0009
   58SAPC  H18R 4367   3.390   1.080   8.962  0.1816  0.6159  3.3423
   58SAPC  H18S 4368   3.436   0.935   8.865 -0.0883 -3.2407  2.3367
   58SAPC  C219 4369   3.606   1.069   8.900  0.4454  0.3681  0.7914
   58SAPC  H19R 4370   3.691   0.999   8.886 -1.1457 -1.1503 -2.1356
   58SAPC  H19S 4371   3.647   1.136   8.979  0.9411  1.5569 -0.4461
   58SAPC  C220 4372   3.602   1.145   8.767 -0.6251  0.4619  0.1601
   58SAPC  H20R 4373   3.565   1.071   8.693 -0.1305 -0.0285  0.4046
   58SAPC  H20S 4374   3.701   1.182   8.733 -1.1614 -0.5364 -2.7904
   58SAPC  H20T 4375   3.535   1.233   8.776  1.2864  2.0397 -0.3264
   58SAPC   C33 4376   3.338   1.316   9.964 -0.0715 -0.0562  0.4642
   58SAPC   H3X 4377   3.449   1.322   9.968 -0.1031 -0.2034  1.8112
   58SAPC   H3Y 4378   3.308   1.405   9.903  2.8775  0.5371 -0.2813
   58SAPC   C34 4379   3.299   1.191   9.872  0.2630 -0.2503 -0.5528
   58SAPC   H4X 4380   3.189   1.184   9.864  0.4876 -2.4072 -2.3502
   58SAPC   H4Y 4381   3.329   1.092   9.912 -3.4841 -0.8508  1.1876
   58SAPC   C35 4382   3.335   1.195   9.726 -0.6944  0.0832  0.1585
   58SAPC   H5X 4383   3.439   1.160   9.710 -0.6143  0.0013  0.8225
   58SAPC   H5Y 4384   3.317   1.298   9.686  0.6281  0.4435  0.4391
   58SAPC   C36 4385   3.249   1.101   9.648 -0.0887 -0.3280 -0.3524
   58SAPC   H6X 4386   3.139   1.109   9.661 -0.2973 -1.7179 -1.0795
   58SAPC   H6Y 4387   3.279   1.001   9.684 -1.3285  1.0794  5.5809
   58SAPC   C37 4388   3.259   1.108   9.488 -0.0616 -0.1290 -0.3331
   58SAPC   H7X 4389   3.369   1.094   9.485 -0.1362 -1.3757  1.3288
   58SAPC   H7Y 4390   3.243   1.216   9.470 -0.8549 -0.1877 -0.0084
   58SAPC   C38 4391   3.171   1.003   9.410  0.2997 -0.2186  0.1617
   58SAPC   H8X 4392   3.072   0.994   9.459  0.4490  0.3075  0.5747
   58SAPC   H8Y 4393   3.226   0.907   9.407 -0.3251 -0.6778  2.0501
   58SAPC   C39 4394   3.148   1.050   9.264 -0.2762 -0.0147  0.1628
   58SAPC   H9X 4395   3.242   1.051   9.205 -1.7588  0.0459 -2.3551
   58SAPC   H9Y 4396   3.089   1.143   9.248  0.1387 -0.0027 -1.5225
   58SAPC  C310 4397   3.054   0.946   9.193 -0.1200 -0.2802  0.6459
   58SAPC  H10X 4398   2.970   0.926   9.263  0.5207 -0.9529  1.2394
   58SAPC  H10Y 4399   3.102   0.846   9.184  0.0347 -0.1591  0.0281
   58SAPC  C311 4400   3.005   0.995   9.051  0.2889  0.3794 -0.5685
   58SAPC  H11X 4401   3.093   1.020   8.989  0.0571  0.6675 -0.7880
   58SAPC  H11Y 4402   2.954   1.093   9.062  0.3528  0.2352  1.3970
   58SAPC  C312 4403   2.907   0.901   8.983  0.3884  0.0287 -0.4280
   58SAPC  H12X 4404   2.835   0.962   8.926 -1.2864 -0.2958  1.2590
   58SAPC  H12Y 4405   2.837   0.858   9.058 -2.4344 -0.4164 -3.1210
   58SAPC  C313 4406   2.976   0.794   8.898  0.4796 -1.5434  0.8115
   58SAPC  H13X 4407   2.903   0.716   8.869  0.3565 -0.7385 -1.2804
   58SAPC  H13Y 4408   3.058   0.749   8.958  2.6171  1.1823  0.2045
   58SAPC  C314 4409   3.032   0.863   8.771  0.0950 -0.3166 -0.0587
   58SAPC  H14X 4410   3.103   0.942   8.803  2.0798 -1.6129 -1.0240
   58SAPC  H14Y 4411   2.960   0.915   8.704 -1.1814 -1.4694  0.3635
   58SAPC  C315 4412   3.119   0.770   8.680  0.7984 -0.1928  0.0508
   58SAPC  H15X 4413   3.045   0.717   8.615  0.9597  1.8208 -1.9051
   58SAPC  H15Y 4414   3.172   0.706   8.753  1.4775  1.3355  0.9556
   58SAPC  C316 4415   3.202   0.857   8.591  1.0763  0.7295  0.5340
   58SAPC  H16X 4416   3.258   0.929   8.654  2.3593  0.3391 -0.1205
   58SAPC  H16Y 4417   3.124   0.898   8.522  0.6420 -1.3650 -0.2939
   58SAPC  C317 4418   3.318   0.797   8.503 -0.7130 -0.2336 -0.7866
   58SAPC  H17X 4419   3.274   0.709   8.452 -1.5507 -0.3368  0.1093
   58SAPC  H17Y 4420   3.399   0.761   8.570 -1.9172  0.6089  1.1728
   58SAPC  C318 4421   3.369   0.894   8.391  0.1943  0.0266 -0.2527
   58SAPC  H18X 4422   3.414   0.988   8.429  1.1430 -1.0958  1.4800
   58SAPC  H18Y 4423   3.286   0.913   8.319 -2.4756 -1.3010  2.2418
   58SAPC  H18Z 4424   3.449   0.838   8.339 -0.8979 -1.8869  0.0192
   59SAPC     N 4425   4.309   3.239  11.241  0.1654 -0.1315 -0.0899
   59SAPC   C12 4426   4.321   3.283  11.096  0.2769 -0.1085 -0.3144
   59SAPC  H12A 4427   4.424   3.310  11.080  0.3439 -0.5218 -0.5912
   59SAPC  H12B 4428   4.268   3.377  11.084  0.2002 -0.2284 -0.9354
   59SAPC   C13 4429   4.358   3.352  11.335  0.0802  0.1877 -0.3095
   59SAPC  H13A 4430   4.281   3.427  11.335 -1.2942 -1.1772 -0.1835
   59SAPC  H13B 4431   4.355   3.306  11.433 -0.3797 -0.5381 -0.6573
   59SAPC  H13C 4432   4.457   3.385  11.306  0.2863 -0.2267 -0.0869
   59SAPC   C14 4433   4.172   3.197  11.283 -0.4084  0.3561 -0.0421
   59SAPC  H14A 4434   4.126   3.126  11.216  1.7628 -1.3857  0.1917
   59SAPC  H14B 4435   4.173   3.143  11.377 -1.7782 -2.4148 -1.4797
   59SAPC  H14C 4436   4.108   3.284  11.290 -0.0221  0.6193  0.2686
   59SAPC   C15 4437   4.409   3.126  11.248 -0.1025  0.5403  0.0843
   59SAPC  H15A 4438   4.377   3.045  11.185  1.1503 -0.7968  1.1134
   59SAPC  H15B 4439   4.500   3.151  11.197 -0.2165  1.3076  0.2356
   59SAPC  H15C 4440   4.427   3.093  11.349  0.3953  0.4443 -0.0381
   59SAPC   C11 4441   4.272   3.190  10.990 -0.4256 -0.5548  0.4427
   59SAPC  H11A 4442   4.328   3.094  10.989 -1.5774 -1.2475 -1.0951
   59SAPC  H11B 4443   4.291   3.247  10.897 -2.4065 -0.1770  0.2272
   59SAPC     P 4444   4.075   3.019  10.989  0.4890  0.0876  0.0107
   59SAPC   O13 4445   4.148   2.926  11.080  0.6887 -0.3921 -0.5513
   59SAPC   O14 4446   3.926   3.020  10.996 -0.0842  0.1759 -0.2158
   59SAPC   O12 4447   4.134   3.161  11.002 -0.0103 -0.5880 -0.3390
   59SAPC   O11 4448   4.124   2.972  10.847  0.4160 -0.6723 -0.6696
   59SAPC    C1 4449   4.053   3.017  10.731 -0.2402 -0.0844 -0.1399
   59SAPC    HA 4450   3.985   3.102  10.756 -0.1360 -0.6633  2.2810
   59SAPC    HB 4451   4.128   3.054  10.658 -1.4645  2.2841 -0.3199
   59SAPC    C2 4452   3.985   2.896  10.670  0.6293  0.2896 -0.3156
   59SAPC    HS 4453   3.922   2.859  10.753 -2.3260 -0.1660 -2.6208
   59SAPC   O21 4454   4.092   2.818  10.615 -0.2464 -0.0900 -1.1058
   59SAPC   C21 4455   4.075   2.684  10.607 -0.3128  1.0162 -0.2014
   59SAPC   O22 4456   3.976   2.625  10.641 -0.1926  0.1385 -0.3174
   59SAPC   C22 4457   4.197   2.625  10.534  0.4691  0.0357 -0.1458
   59SAPC   H2R 4458   4.231   2.549  10.607 -0.2645  0.7571  0.9689
   59SAPC   H2S 4459   4.159   2.578  10.441 -1.7121  1.1097  0.1417
   59SAPC    C3 4460   3.879   2.916  10.551  0.5052 -0.1343  0.5212
   59SAPC    HX 4461   3.793   2.977  10.587  1.2176  0.3971  1.3644
   59SAPC    HY 4462   3.842   2.817  10.519 -0.2998 -0.2175  1.6686
   59SAPC   O31 4463   3.929   2.987  10.432 -0.2654 -0.0548 -0.1273
   59SAPC   C31 4464   3.988   2.922  10.338  0.2276  0.2442 -0.4262
   59SAPC   O32 4465   4.011   2.799  10.334 -0.5114  0.2895  0.1713
   59SAPC   C32 4466   4.045   3.014  10.232 -0.0387 -0.1911  0.2317
   59SAPC   H2X 4467   4.153   2.985  10.231 -0.5378 -2.1999  0.8476
   59SAPC   H2Y 4468   4.038   3.122  10.258 -0.4096  0.4105 -2.1408
   59SAPC   C23 4469   4.313   2.727  10.488 -0.4055  0.2541  0.8411
   59SAPC   H3R 4470   4.341   2.798  10.569  2.5967  1.0678 -0.7509
   59SAPC   H3S 4471   4.278   2.787  10.401  0.8277 -0.4602 -0.1949
   59SAPC   C24 4472   4.440   2.648  10.441 -0.3030 -0.2876  0.5364
   59SAPC   H4R 4473   4.404   2.564  10.376  1.0040 -1.2866  1.0528
   59SAPC   H4S 4474   4.491   2.600  10.527 -1.8345 -1.3967  0.8722
   59SAPC   C25 4475   4.535   2.739  10.375  0.3233 -0.2500 -0.1044
   59SAPC   H5R 4476   4.583   2.800  10.454 -1.4050 -1.1757  1.7646
   59SAPC   C26 4477   4.556   2.764  10.246 -0.2433 -1.2585  0.0984
   59SAPC   H6R 4478   4.618   2.850  10.214 -1.7507 -0.3686 -0.5498
   59SAPC   C27 4479   4.499   2.691  10.131 -0.8216 -0.2778  0.7565
   59SAPC   H7R 4480   4.452   2.595  10.163  1.6885 -2.4209 -1.4463
   59SAPC   H7S 4481   4.582   2.646  10.072 -0.1480  2.0001 -0.1574
   59SAPC   C28 4482   4.399   2.782  10.055 -0.5075  0.0036 -0.5202
   59SAPC   H8R 4483   4.317   2.807  10.123  1.5351  2.2545  1.2740
   59SAPC   C29 4484   4.396   2.809   9.926 -0.1942  0.0445 -0.4222
   59SAPC   H9R 4485   4.325   2.880   9.883  0.2111 -1.0331 -3.0866
   59SAPC  C210 4486   4.501   2.758   9.837 -0.0685 -0.0438  0.4550
   59SAPC  H10R 4487   4.491   2.648   9.826  0.2121  0.1910 -3.3249
   59SAPC  H10S 4488   4.603   2.784   9.871 -0.4969  3.8287 -0.7930
   59SAPC  C211 4489   4.490   2.818   9.696  0.4035  0.2116  0.1107
   59SAPC  H11R 4490   4.443   2.917   9.684  1.6161  0.6769 -1.0347
   59SAPC  C212 4491   4.535   2.749   9.587  0.5539 -0.2997 -0.4640
   59SAPC  H12R 4492   4.515   2.789   9.486  0.1259  0.8676  0.0604
   59SAPC  C213 4493   4.614   2.621   9.588 -1.2283  0.1833  0.5205
   59SAPC  H13R 4494   4.633   2.580   9.690 -1.8876 -2.0718 -0.1905
   59SAPC  H13S 4495   4.711   2.645   9.540 -1.6756  1.7922  0.3623
   59SAPC  C214 4496   4.540   2.508   9.514  0.3648  0.3247 -0.9059
   59SAPC  H14R 4497   4.453   2.478   9.575 -0.2493 -0.0890 -1.9576
   59SAPC  C215 4498   4.563   2.454   9.385 -0.3386  0.0773 -0.4932
   59SAPC  H15R 4499   4.499   2.377   9.341  0.9254 -0.3287 -1.6809
   59SAPC  C216 4500   4.683   2.492   9.306  0.3330  0.3185 -0.3139
   59SAPC  H16R 4501   4.731   2.400   9.266  0.0701 -0.0996  0.3078
   59SAPC  H16S 4502   4.758   2.543   9.370 -0.9196  1.7618  0.0578
   59SAPC  C217 4503   4.648   2.590   9.183 -0.2194 -0.1662  0.3576
   59SAPC  H17R 4504   4.585   2.677   9.212  0.4531  2.3743 -4.6593
   59SAPC  H17S 4505   4.585   2.543   9.104  0.8264  0.4256 -0.8720
   59SAPC  C218 4506   4.775   2.643   9.106 -0.1018 -0.1262  0.0981
   59SAPC  H18R 4507   4.817   2.551   9.059  1.9650  1.0612 -0.5113
   59SAPC  H18S 4508   4.854   2.690   9.169  0.2362  0.1015 -0.4838
   59SAPC  C219 4509   4.736   2.745   8.999  0.0626 -0.7587  0.5947
   59SAPC  H19R 4510   4.757   2.842   9.048 -0.4463 -0.2093 -0.2469
   59SAPC  H19S 4511   4.626   2.738   8.983 -0.1403 -0.3516  1.7005
   59SAPC  C220 4512   4.804   2.737   8.868 -0.3372 -0.3561 -0.0977
   59SAPC  H20R 4513   4.915   2.745   8.875 -0.3778 -0.6465  1.3135
   59SAPC  H20S 4514   4.782   2.818   8.796 -1.2202 -0.2004  0.3345
   59SAPC  H20T 4515   4.779   2.641   8.818  2.1621 -0.2237 -1.7511
   59SAPC   C33 4516   4.006   2.982  10.085  0.0720  0.3692  0.5107
   59SAPC   H3X 4517   3.898   3.002  10.073  0.3021  0.6021 -1.6066
   59SAPC   H3Y 4518   4.009   2.871  10.074 -3.8571  0.1273  0.5722
   59SAPC   C34 4519   4.089   3.058   9.987  0.0632 -0.8580  0.5608
   59SAPC   H4X 4520   4.195   3.046  10.017 -0.1572  1.1431  2.4264
   59SAPC   H4Y 4521   4.056   3.165   9.986 -1.5572 -1.3234  0.3026
   59SAPC   C35 4522   4.072   3.008   9.845  0.2986  0.7830  0.0251
   59SAPC   H5X 4523   3.963   2.999   9.826  0.9068 -0.8381 -3.7189
   59SAPC   H5Y 4524   4.107   2.902   9.845  0.2500  0.7656 -0.8243
   59SAPC   C36 4525   4.146   3.089   9.736  0.7577  0.6328  0.7071
   59SAPC   H6X 4526   4.251   3.108   9.769  1.3870 -0.0305 -0.7904
   59SAPC   H6Y 4527   4.097   3.187   9.721 -0.7708 -0.4031 -1.6159
   59SAPC   C37 4528   4.158   3.025   9.601 -0.5972  0.4324  0.1331
   59SAPC   H7X 4529   4.062   3.004   9.549  0.0221 -3.8010  0.3842
   59SAPC   H7Y 4530   4.207   2.926   9.609  0.7420  1.0912  0.3106
   59SAPC   C38 4531   4.240   3.124   9.510  0.0699  0.1723 -0.0465
   59SAPC   H8X 4532   4.349   3.109   9.529  0.0254  1.0521  0.9889
   59SAPC   H8Y 4533   4.202   3.228   9.520 -3.2486 -1.0424  1.2900
   59SAPC   C39 4534   4.223   3.089   9.363 -0.5382 -0.0523 -0.2439
   59SAPC   H9X 4535   4.293   3.148   9.300 -0.8337 -0.7743 -1.2768
   59SAPC   H9Y 4536   4.120   3.118   9.333 -1.2104 -0.5799  1.4494
   59SAPC  C310 4537   4.242   2.941   9.335  0.5882  0.0408 -0.2566
   59SAPC  H10X 4538   4.156   2.877   9.365  1.2858  0.0157  1.9145
   59SAPC  H10Y 4539   4.326   2.908   9.399 -2.3509 -2.6325  2.6239
   59SAPC  C311 4540   4.258   2.913   9.181 -0.0189 -0.6498 -0.8853
   59SAPC  H11X 4541   4.245   2.805   9.156  1.1102 -0.5000 -2.2314
   59SAPC  H11Y 4542   4.363   2.932   9.148  0.6938  2.1860  2.4626
   59SAPC  C312 4543   4.161   2.981   9.080 -0.6327 -0.1687  0.1040
   59SAPC  H12X 4544   4.168   2.931   8.981 -0.7669  0.1858 -0.0846
   59SAPC  H12Y 4545   4.190   3.087   9.071  0.5213 -0.2414  2.2509
   59SAPC  C313 4546   4.023   2.962   9.117  0.8336 -0.4424 -0.3283
   59SAPC  H13X 4547   4.009   3.035   9.199  1.7286 -1.0067  0.3476
   59SAPC  H13Y 4548   4.006   2.861   9.159  1.7905 -1.1795 -1.6308
   59SAPC  C314 4549   3.916   2.987   9.005  0.7764  0.1529  0.6050
   59SAPC  H14X 4550   3.922   2.906   8.930  0.5702  1.3536 -0.7477
   59SAPC  H14Y 4551   3.938   3.067   8.931 -0.0875  0.2830  0.4746
   59SAPC  C315 4552   3.767   3.017   9.059 -0.0235  0.6905  0.0364
   59SAPC  H15X 4553   3.763   3.099   9.134  0.7066  2.2531 -1.5546
   59SAPC  H15Y 4554   3.742   2.920   9.108 -1.1143  1.0836  0.2852
   59SAPC  C316 4555   3.669   3.049   8.940  0.1472 -0.4309 -0.3537
   59SAPC  H16X 4556   3.686   2.969   8.865 -0.5455  0.0672 -1.0564
   59SAPC  H16Y 4557   3.693   3.139   8.880  1.3253 -0.7242 -0.3576
   59SAPC  C317 4558   3.515   3.052   8.989 -0.7510 -0.5126  0.3462
   59SAPC  H17X 4559   3.489   2.964   9.053 -0.7278 -1.1504 -0.4971
   59SAPC  H17Y 4560   3.454   3.045   8.897  1.5943 -1.1556 -1.2586
   59SAPC  C318 4561   3.485   3.188   9.050  0.2661 -0.3402 -0.4011
   59SAPC  H18X 4562   3.384   3.211   9.011 -0.0172 -0.3708  0.2996
   59SAPC  H18Y 4563   3.552   3.273   9.024  2.2530 -1.7244 -0.0455
   59SAPC  H18Z 4564   3.475   3.188   9.161  1.6876 -0.4712 -0.2558
   60SAPC     N 4565   5.809   2.513  10.967 -1.1912 -0.0112  0.2838
   60SAPC   C12 4566   5.873   2.653  10.940 -0.3516 -0.0135 -0.4115
   60SAPC  H12A 4567   5.932   2.676  11.027 -2.2769  0.2620  0.8855
   60SAPC  H12B 4568   5.793   2.725  10.936  0.1807  0.5281 -1.7377
   60SAPC   C13 4569   5.748   2.443  10.851 -0.2643 -0.6514 -0.3196
   60SAPC  H13A 4570   5.677   2.508  10.802  0.9315  0.5979 -0.4451
   60SAPC  H13B 4571   5.824   2.412  10.782  1.2159  4.1703 -1.2193
   60SAPC  H13C 4572   5.698   2.358  10.896 -0.9992 -0.4643 -0.7625
   60SAPC   C14 4573   5.926   2.426  11.018 -0.9423 -0.4142  0.0268
   60SAPC  H14A 4574   5.895   2.323  11.016 -2.0128 -0.0983 -2.0098
   60SAPC  H14B 4575   6.003   2.436  10.942 -1.1879  0.9391 -0.0640
   60SAPC  H14C 4576   5.967   2.449  11.115  2.8148  0.3894 -1.5429
   60SAPC   C15 4577   5.706   2.516  11.080 -0.9973 -0.1877 -0.2234
   60SAPC  H15A 4578   5.630   2.587  11.049  0.1991  1.9859  1.5340
   60SAPC  H15B 4579   5.651   2.425  11.100 -0.4544  0.0927  3.1479
   60SAPC  H15C 4580   5.758   2.552  11.167 -1.1083 -0.4775 -0.0365
   60SAPC   C11 4581   5.959   2.665  10.809  0.2691 -0.0944  0.4062
   60SAPC  H11A 4582   6.006   2.766  10.813 -0.2538  0.1703 -0.0567
   60SAPC  H11B 4583   5.887   2.665  10.725  1.2187  0.5112 -0.4298
   60SAPC     P 4584   6.182   2.561  10.717 -0.2930  0.1194 -0.0878
   60SAPC   O13 4585   6.285   2.640  10.795  0.4507 -0.1019  0.8567
   60SAPC   O14 4586   6.228   2.434  10.660 -0.7342  0.0652  0.1042
   60SAPC   O12 4587   6.049   2.553  10.801 -0.3060  0.2919  0.2962
   60SAPC   O11 4588   6.133   2.645  10.595 -0.1878 -0.1005  0.6418
   60SAPC    C1 4589   6.212   2.760  10.551  0.4897 -0.1041  0.3365
   60SAPC    HA 4590   6.180   2.845  10.615 -0.3260 -0.6521  0.6841
   60SAPC    HB 4591   6.322   2.752  10.567  0.4349  0.8901  1.3556
   60SAPC    C2 4592   6.189   2.793  10.399 -0.0887  0.4185  0.0072
   60SAPC    HS 4593   6.242   2.889  10.382 -0.2763  0.6789  0.8799
   60SAPC   O21 4594   6.047   2.807  10.369 -0.7493  0.5960 -0.1263
   60SAPC   C21 4595   5.989   2.910  10.426  0.3246 -0.3049 -0.3668
   60SAPC   O22 4596   6.050   3.008  10.474  0.6885  0.6013 -0.3356
   60SAPC   C22 4597   5.838   2.897  10.407  0.3202  0.3530 -0.1994
   60SAPC   H2R 4598   5.822   2.874  10.299  0.0598  0.2671 -0.1414
   60SAPC   H2S 4599   5.798   2.808  10.461 -1.7342  0.9225 -0.7063
   60SAPC    C3 4600   6.259   2.680  10.310  0.0580 -0.1203  0.0283
   60SAPC    HX 4601   6.232   2.574  10.330 -0.4819 -0.4053 -1.9469
   60SAPC    HY 4602   6.366   2.684  10.338 -0.3374  0.7209  1.5023
   60SAPC   O31 4603   6.250   2.697  10.163  0.0532 -0.5035 -0.1660
   60SAPC   C31 4604   6.139   2.650  10.111  0.4175 -0.3231  0.1709
   60SAPC   O32 4605   6.054   2.590  10.173 -0.2540 -0.3710  0.6384
   60SAPC   C32 4606   6.123   2.682   9.965 -0.5671 -1.0894 -0.4220
   60SAPC   H2X 4607   6.191   2.767   9.943 -1.8264  0.3504  1.0310
   60SAPC   H2Y 4608   6.017   2.715   9.962 -0.2890 -0.0004  0.8550
   60SAPC   C23 4609   5.754   3.026  10.441 -0.0681  0.3540 -0.0712
   60SAPC   H3R 4610   5.798   3.110  10.384 -0.6235  0.2489 -0.6689
   60SAPC   H3S 4611   5.747   3.040  10.551  1.0419 -2.1923  0.4038
   60SAPC   C24 4612   5.601   3.025  10.404  0.0576  0.5408 -0.4451
   60SAPC   H4R 4613   5.542   3.098  10.464 -1.6791  1.4961 -3.1142
   60SAPC   H4S 4614   5.571   2.921  10.428 -0.4741  0.2404 -2.2206
   60SAPC   C25 4615   5.577   3.066  10.257  0.6151 -0.0826 -0.5057
   60SAPC   H5R 4616   5.582   3.175  10.249 -0.6590  0.1934  1.5162
   60SAPC   C26 4617   5.544   2.986  10.155  0.2193  0.8429 -0.1395
   60SAPC   H6R 4618   5.512   3.032  10.060 -2.2956 -0.4372  0.0047
   60SAPC   C27 4619   5.529   2.834  10.155 -0.0780  0.2311 -0.5657
   60SAPC   H7R 4620   5.447   2.812  10.227  0.7347 -1.4341 -0.0991
   60SAPC   H7S 4621   5.621   2.789  10.198  1.3216  1.7235 -1.8507
   60SAPC   C28 4622   5.486   2.762  10.026 -0.0473  0.6788 -0.3989
   60SAPC   H8R 4623   5.408   2.685  10.035  1.7090 -0.9473  2.3824
   60SAPC   C29 4624   5.557   2.759   9.917 -1.0290  0.4052  0.1301
   60SAPC   H9R 4625   5.528   2.694   9.833  0.4659 -0.1393  0.0200
   60SAPC  C210 4626   5.677   2.841   9.893 -0.3676 -0.2604 -0.3158
   60SAPC  H10R 4627   5.735   2.836   9.987 -0.4197  1.7737 -0.1268
   60SAPC  H10S 4628   5.649   2.948   9.887  0.8061 -0.0136 -2.1633
   60SAPC  C211 4629   5.760   2.809   9.773 -0.0894 -0.0334 -0.5126
   60SAPC  H11R 4630   5.854   2.771   9.815 -1.6510 -2.5076  1.0336
   60SAPC  C212 4631   5.743   2.815   9.641 -0.5028 -0.1249 -0.4449
   60SAPC  H12R 4632   5.828   2.773   9.584 -0.0774  0.1375 -0.0165
   60SAPC  C213 4633   5.626   2.863   9.563  0.0639  0.2309  0.2917
   60SAPC  H13R 4634   5.663   2.926   9.479  4.8920  0.4457  2.2818
   60SAPC  H13S 4635   5.553   2.916   9.627  0.6343 -0.3167  1.4290
   60SAPC  C214 4636   5.552   2.744   9.517 -0.3013  0.4214  0.1843
   60SAPC  H14R 4637   5.479   2.698   9.585  2.1390 -1.9028  1.4394
   60SAPC  C215 4638   5.545   2.690   9.391 -0.2541  0.4121 -0.0691
   60SAPC  H15R 4639   5.497   2.591   9.381 -1.4462  1.0581 -0.9764
   60SAPC  C216 4640   5.630   2.741   9.273 -0.1940  0.0262 -0.3090
   60SAPC  H16R 4641   5.663   2.661   9.203 -1.4288  1.2470 -2.3669
   60SAPC  H16S 4642   5.716   2.804   9.304 -1.2838  2.2054 -1.4946
   60SAPC  C217 4643   5.548   2.846   9.193  0.1636 -0.2242  0.4127
   60SAPC  H17R 4644   5.507   2.927   9.256  0.0631 -0.7318  1.0096
   60SAPC  H17S 4645   5.458   2.799   9.148 -1.7081  1.8968  1.7417
   60SAPC  C218 4646   5.638   2.901   9.074 -0.7646 -0.1683 -0.4644
   60SAPC  H18R 4647   5.682   2.818   9.015  1.7673  0.7847 -0.0157
   60SAPC  H18S 4648   5.718   2.958   9.126 -1.6741  1.1765 -0.4897
   60SAPC  C219 4649   5.577   3.002   8.979  0.5727 -0.2763  0.7307
   60SAPC  H19R 4650   5.498   3.043   9.047  2.5161 -1.5451  3.9851
   60SAPC  H19S 4651   5.527   2.960   8.889  1.6453  1.5825 -0.8070
   60SAPC  C220 4652   5.673   3.119   8.935  0.4815 -0.8989  0.2554
   60SAPC  H20R 4653   5.634   3.169   8.844  2.4257  1.5167  0.6461
   60SAPC  H20S 4654   5.778   3.085   8.922  1.0005  0.1281  1.5813
   60SAPC  H20T 4655   5.673   3.187   9.022 -0.3474  0.3264 -0.6803
   60SAPC   C33 4656   6.157   2.562   9.865  0.5157  0.3522  0.2784
   60SAPC   H3X 4657   6.122   2.466   9.908 -0.5497 -0.0584 -1.3989
   60SAPC   H3Y 4658   6.264   2.541   9.845  0.7962  1.3832  0.5986
   60SAPC   C34 4659   6.085   2.575   9.737  0.6407 -0.3154  1.0507
   60SAPC   H4X 4660   5.980   2.611   9.749  0.2783 -0.3504 -1.3508
   60SAPC   H4Y 4661   6.078   2.477   9.685  2.1743 -0.7915  1.7122
   60SAPC   C35 4662   6.152   2.664   9.633  0.0722  0.0199 -0.1237
   60SAPC   H5X 4663   6.262   2.648   9.632  0.0541 -0.1864  0.6364
   60SAPC   H5Y 4664   6.135   2.773   9.649  1.2897  0.5271 -1.9848
   60SAPC   C36 4665   6.108   2.647   9.490 -0.2552  0.3636  0.1468
   60SAPC   H6X 4666   5.997   2.654   9.492 -0.2913  0.1010  2.9025
   60SAPC   H6Y 4667   6.143   2.548   9.455  0.0342  0.0058  1.4002
   60SAPC   C37 4668   6.156   2.765   9.399  0.3615 -0.5031  0.1919
   60SAPC   H7X 4669   6.260   2.740   9.367  2.0204  2.5687  2.5346
   60SAPC   H7Y 4670   6.149   2.861   9.454 -0.5058 -0.4212 -0.0464
   60SAPC   C38 4671   6.072   2.783   9.265  0.0048  0.1426  0.0308
   60SAPC   H8X 4672   5.966   2.798   9.293 -0.4270 -0.4549 -1.2164
   60SAPC   H8Y 4673   6.062   2.687   9.210 -0.6461 -1.3986  2.6832
   60SAPC   C39 4674   6.140   2.901   9.189 -0.0636  0.1879  0.0117
   60SAPC   H9X 4675   6.245   2.880   9.158  0.3596  2.7198 -0.4672
   60SAPC   H9Y 4676   6.150   2.985   9.261  1.8963 -0.6942  0.8540
   60SAPC  C310 4677   6.059   2.944   9.075 -0.9130  0.0939  1.0387
   60SAPC  H10X 4678   6.099   3.037   9.030 -0.4914 -1.1203 -1.2622
   60SAPC  H10Y 4679   5.953   2.967   9.097 -1.5002 -1.3485 -0.0727
   60SAPC  C311 4680   6.046   2.826   8.971 -0.4542 -1.0103  0.2504
   60SAPC  H11X 4681   5.970   2.749   8.996 -1.1350 -0.1410  0.9183
   60SAPC  H11Y 4682   6.147   2.779   8.968 -0.5521 -1.3210  1.4112
   60SAPC  C312 4683   6.016   2.883   8.835 -0.6186  0.3404  0.2248
   60SAPC  H12X 4684   6.095   2.955   8.806  2.2659 -2.4007  0.7354
   60SAPC  H12Y 4685   5.918   2.936   8.845  0.0041  1.1530  2.9043
   60SAPC  C313 4686   6.027   2.779   8.720  0.2665  1.0250 -0.4185
   60SAPC  H13X 4687   5.938   2.712   8.725  0.5027  0.5556 -1.9366
   60SAPC  H13Y 4688   6.118   2.715   8.716 -0.4166  0.0567 -1.4366
   60SAPC  C314 4689   6.010   2.851   8.578 -0.2458  0.6203  0.2089
   60SAPC  H14X 4690   6.045   2.777   8.503  1.2934 -1.5101  2.8396
   60SAPC  H14Y 4691   6.082   2.936   8.584  0.2777  0.3061 -1.0729
   60SAPC  C315 4692   5.866   2.891   8.564 -0.1383 -0.1629  0.5512
   60SAPC  H15X 4693   5.868   2.966   8.482  4.5269 -0.0007  0.5772
   60SAPC  H15Y 4694   5.823   2.943   8.653  0.0854  0.1929  0.4519
   60SAPC  C316 4695   5.778   2.776   8.504  0.2693  0.9473  0.2439
   60SAPC  H16X 4696   5.773   2.683   8.564 -1.1783  0.3108 -0.8055
   60SAPC  H16Y 4697   5.833   2.746   8.412 -0.9062 -0.6325  0.0141
   60SAPC  C317 4698   5.639   2.821   8.474  0.3296 -0.1274 -0.9931
   60SAPC  H17X 4699   5.591   2.755   8.398 -0.6660 -1.5964  0.8072
   60SAPC  H17Y 4700   5.627   2.921   8.428  0.3895  0.3360 -0.0332
   60SAPC  C318 4701   5.541   2.817   8.596 -0.1157 -0.3618  0.1508
   60SAPC  H18X 4702   5.450   2.872   8.564  0.1651 -0.6171 -1.1097
   60SAPC  H18Y 4703   5.593   2.864   8.683 -2.2201 -1.1904  1.9691
   60SAPC  H18Z 4704   5.521   2.711   8.624  0.7769 -0.2026  1.4930
   61SAPC     N 4705   0.641   0.935  11.037  0.0169  0.4539  0.5359
   61SAPC   C12 4706   0.646   0.817  10.941  0.1150  0.0840  0.4788
   61SAPC  H12A 4707   0.546   0.792  10.909 -0.0170 -1.0180  1.6789
   61SAPC  H12B 4708   0.685   0.732  10.995 -0.7234 -0.0183  0.9274
   61SAPC   C13 4709   0.560   0.905  11.158  0.0314 -0.2769  0.4736
   61SAPC  H13A 4710   0.553   0.993  11.221 -0.5647 -2.2322  3.3121
   61SAPC  H13B 4711   0.460   0.869  11.136 -0.0248 -0.7456  1.4483
   61SAPC  H13C 4712   0.603   0.829  11.221 -1.0721  1.3685  3.3785
   61SAPC   C14 4713   0.781   0.971  11.075  0.4139  0.5582 -0.1747
   61SAPC  H14A 4714   0.838   1.012  10.992  0.7067 -2.2509 -1.4883
   61SAPC  H14B 4715   0.786   1.047  11.151 -1.0698  2.2108 -1.6282
   61SAPC  H14C 4716   0.831   0.882  11.110 -0.5520  0.2523  0.4466
   61SAPC   C15 4717   0.593   1.054  10.958  0.0860  0.1309  0.4568
   61SAPC  H15A 4718   0.574   1.140  11.022  0.2138 -0.3675  1.1804
   61SAPC  H15B 4719   0.669   1.075  10.885 -0.4562 -0.2035 -0.2104
   61SAPC  H15C 4720   0.505   1.030  10.901  0.2172 -0.9967  0.7080
   61SAPC   C11 4721   0.729   0.840  10.810 -0.4507 -0.9280  0.5518
   61SAPC  H11A 4722   0.705   0.931  10.751  2.2234 -0.1320  0.5672
   61SAPC  H11B 4723   0.699   0.753  10.747 -0.9758 -0.5019  0.2091
   61SAPC     P 4724   0.957   0.706  10.840  0.0756 -0.2965 -0.0988
   61SAPC   O13 4725   1.063   0.718  10.942  0.1519  0.0235  0.3056
   61SAPC   O14 4726   0.862   0.594  10.855  0.7323 -0.4280  0.2605
   61SAPC   O12 4727   0.874   0.840  10.834  0.1764  0.2918 -0.0081
   61SAPC   O11 4728   1.026   0.698  10.702  1.2489  0.6070  0.5942
   61SAPC    C1 4729   1.062   0.812  10.628  0.4657 -0.3560 -0.0350
   61SAPC    HA 4730   1.039   0.907  10.681  0.7520 -0.9468  1.1801
   61SAPC    HB 4731   1.170   0.807  10.604 -0.0866 -0.6394 -2.8910
   61SAPC    C2 4732   1.007   0.812  10.477 -0.6231 -0.2036 -0.8077
   61SAPC    HS 4733   1.057   0.900  10.431 -1.5969  0.6618 -0.2611
   61SAPC   O21 4734   0.865   0.826  10.470  0.6485 -0.6154  0.2424
   61SAPC   C21 4735   0.827   0.948  10.485  0.3094  0.4134  0.6408
   61SAPC   O22 4736   0.895   1.040  10.521 -0.4791  0.0567  0.3298
   61SAPC   C22 4737   0.682   0.965  10.431  0.1998 -0.3164 -0.6162
   61SAPC   H2R 4738   0.664   0.892  10.350  0.6500 -2.2630  0.9702
   61SAPC   H2S 4739   0.600   0.951  10.505  0.9218  0.6996  0.4098
   61SAPC    C3 4740   1.048   0.676  10.403 -0.5846  0.0604 -0.6979
   61SAPC    HX 4741   1.017   0.589  10.465 -1.2051  0.1207 -0.9169
   61SAPC    HY 4742   1.159   0.677  10.397 -0.5108  2.5621  0.1854
   61SAPC   O31 4743   0.991   0.666  10.272 -0.0896  0.2877 -0.3287
   61SAPC   C31 4744   1.050   0.741  10.182  0.1591 -0.7904 -0.2771
   61SAPC   O32 4745   1.144   0.813  10.206 -0.0516 -0.2796  0.1486
   61SAPC   C32 4746   0.981   0.733  10.044 -0.7698 -0.1481  0.3735
   61SAPC   H2X 4747   0.983   0.626  10.012 -0.8928  0.3311 -1.3126
   61SAPC   H2Y 4748   1.042   0.794   9.975  0.2447  0.0562  1.4171
   61SAPC   C23 4749   0.654   1.111  10.388  0.2198 -0.2508  0.2268
   61SAPC   H3R 4750   0.732   1.138  10.314  0.0475 -1.5150 -0.4320
   61SAPC   H3S 4751   0.662   1.176  10.479 -2.2836 -0.3254  0.5713
   61SAPC   C24 4752   0.516   1.144  10.329 -0.1690  0.1957  0.3182
   61SAPC   H4R 4753   0.508   1.255  10.320  2.3804  0.6309  2.1880
   61SAPC   H4S 4754   0.436   1.103  10.395 -0.5843  0.8814  0.2502
   61SAPC   C25 4755   0.487   1.070  10.200  0.2357  0.5478  0.6737
   61SAPC   H5R 4756   0.522   0.966  10.190 -1.9276 -0.0595 -1.9289
   61SAPC   C26 4757   0.407   1.111  10.098 -0.6782  0.8232 -0.1997
   61SAPC   H6R 4758   0.405   1.054  10.004 -0.9368 -0.1821  0.4054
   61SAPC   C27 4759   0.328   1.234  10.107  0.4433 -0.0807  0.2931
   61SAPC   H7R 4760   0.334   1.294  10.014 -0.7527  0.6178  0.6588
   61SAPC   H7S 4761   0.363   1.306  10.183  2.8695 -0.0745 -0.7239
   61SAPC   C28 4762   0.183   1.201  10.133 -0.1317 -0.5183 -0.4091
   61SAPC   H8R 4763   0.160   1.175  10.237  0.2636 -2.6662 -0.8048
   61SAPC   C29 4764   0.084   1.186  10.036 -0.0108 -0.2017  0.3954
   61SAPC   H9R 4765  -0.015   1.158  10.072 -0.5822  1.6350  0.3395
   61SAPC  C210 4766   0.115   1.217   9.891 -0.0817  0.7669 -0.2802
   61SAPC  H10R 4767   0.201   1.152   9.863  0.2348  0.8916  0.3824
   61SAPC  H10S 4768   0.152   1.321   9.877  2.8799  0.0723  1.4620
   61SAPC  C211 4769  -0.005   1.181   9.802 -0.5332  0.0526  0.6655
   61SAPC  H11R 4770  -0.070   1.098   9.834  0.8244 -1.1283  0.4683
   61SAPC  C212 4771  -0.037   1.254   9.693 -0.6993  0.0181  0.6457
   61SAPC  H12R 4772  -0.132   1.232   9.643 -0.0268 -0.3641 -0.5240
   61SAPC  C213 4773   0.027   1.375   9.633  0.0423 -0.2874  0.3601
   61SAPC  H13R 4774   0.138   1.368   9.628  0.2144  1.2568  1.2180
   61SAPC  H13S 4775   0.013   1.460   9.703 -0.7459 -0.1636  0.0654
   61SAPC  C214 4776  -0.037   1.412   9.501 -0.5633 -0.2676  0.0458
   61SAPC  H14R 4777  -0.097   1.504   9.497 -1.6473 -0.8941  1.3415
   61SAPC  C215 4778  -0.008   1.348   9.383 -0.0369 -0.4452 -0.4387
   61SAPC  H15R 4779  -0.061   1.389   9.295 -0.5957 -0.0930  0.0543
   61SAPC  C216 4780   0.069   1.223   9.364  0.0029  0.6209  0.4079
   61SAPC  H16R 4781   0.006   1.141   9.323 -1.5139  0.2733  3.2440
   61SAPC  H16S 4782   0.104   1.178   9.459  0.2030  0.5750  0.3146
   61SAPC  C217 4783   0.185   1.227   9.265 -0.3143 -0.5733 -0.1084
   61SAPC  H17R 4784   0.203   1.119   9.245 -2.1601 -0.8732 -0.3661
   61SAPC  H17S 4785   0.273   1.274   9.313 -1.3513  1.8000 -0.3838
   61SAPC  C218 4786   0.157   1.301   9.134  0.1723  0.5867 -0.1846
   61SAPC  H18R 4787   0.259   1.311   9.091  0.8138  2.6229  1.6203
   61SAPC  H18S 4788   0.129   1.407   9.151  1.8343  0.6574  2.9773
   61SAPC  C219 4789   0.058   1.226   9.049 -0.1262 -0.2181 -0.4656
   61SAPC  H19R 4790  -0.030   1.235   9.116 -0.0623  1.5372 -0.5572
   61SAPC  H19S 4791   0.098   1.127   9.019 -0.2241 -0.2452 -0.5072
   61SAPC  C220 4792   0.020   1.300   8.920 -0.2916  0.1048  0.3081
   61SAPC  H20R 4793   0.090   1.265   8.841 -0.9752 -0.6827  0.0321
   61SAPC  H20S 4794   0.012   1.410   8.912 -0.0747  0.1869  1.1353
   61SAPC  H20T 4795  -0.081   1.261   8.896 -0.5171  0.0996  1.2515
   61SAPC   C33 4796   0.839   0.804  10.057 -0.3702 -0.5503  0.0381
   61SAPC   H3X 4797   0.846   0.907  10.098  2.7867  0.1681 -1.9314
   61SAPC   H3Y 4798   0.775   0.750  10.130  0.6144 -0.6948  0.8158
   61SAPC   C34 4799   0.775   0.804   9.919 -0.1641  0.9570  0.1229
   61SAPC   H4X 4800   0.782   0.704   9.870  1.6560  2.1076 -2.2212
   61SAPC   H4Y 4801   0.829   0.868   9.845 -1.0208  0.1473 -1.2451
   61SAPC   C35 4802   0.624   0.842   9.919 -0.6628 -0.0397  0.3589
   61SAPC   H5X 4803   0.613   0.950   9.940 -0.0426  0.5266 -1.9551
   61SAPC   H5Y 4804   0.559   0.798   9.998 -0.0288  1.4659  1.7681
   61SAPC   C36 4805   0.552   0.828   9.776  0.0913  0.5626 -0.1193
   61SAPC   H6X 4806   0.455   0.881   9.789 -0.6957 -0.6412 -0.8675
   61SAPC   H6Y 4807   0.530   0.719   9.766  1.8458 -0.0764  2.1844
   61SAPC   C37 4808   0.632   0.887   9.660  1.2309  0.3942  0.0868
   61SAPC   H7X 4809   0.713   0.813   9.642 -0.5484 -1.5193 -0.4013
   61SAPC   H7Y 4810   0.676   0.980   9.703  0.7870  0.6659 -0.0413
   61SAPC   C38 4811   0.542   0.900   9.535  0.9702 -0.6457 -0.1256
   61SAPC   H8X 4812   0.601   0.963   9.466  0.8000 -2.4643 -2.0262
   61SAPC   H8Y 4813   0.453   0.955   9.572  1.1644 -0.4236  0.0115
   61SAPC   C39 4814   0.515   0.774   9.460 -0.4600  1.0366 -0.2668
   61SAPC   H9X 4815   0.453   0.699   9.514  2.7600 -1.2680  0.5007
   61SAPC   H9Y 4816   0.608   0.715   9.445 -0.9470  0.0087  0.6750
   61SAPC  C310 4817   0.455   0.792   9.318  0.4418  0.0341  0.9336
   61SAPC  H10X 4818   0.505   0.870   9.257  2.2676 -3.0790 -1.8621
   61SAPC  H10Y 4819   0.346   0.810   9.321  0.3636 -0.4140  0.7676
   61SAPC  C311 4820   0.466   0.669   9.231  0.0738 -0.6402  0.3093
   61SAPC  H11X 4821   0.400   0.583   9.256  0.0907 -0.5203  0.7737
   61SAPC  H11Y 4822   0.566   0.631   9.260 -0.1903 -0.4130  1.5538
   61SAPC  C312 4823   0.464   0.712   9.082  0.0631 -0.7496  0.2719
   61SAPC  H12X 4824   0.536   0.791   9.055 -0.7259 -0.8835 -2.5177
   61SAPC  H12Y 4825   0.362   0.752   9.066  0.9278  0.8328 -1.6481
   61SAPC  C313 4826   0.488   0.602   8.987 -0.3494 -0.3294 -0.1562
   61SAPC  H13X 4827   0.412   0.525   9.013  1.8407 -1.5010  3.5237
   61SAPC  H13Y 4828   0.589   0.562   9.010 -0.0771 -0.1144 -0.9488
   61SAPC  C314 4829   0.493   0.628   8.835 -0.4881 -0.5017  0.0799
   61SAPC  H14X 4830   0.565   0.711   8.816  0.3183 -1.6476 -2.2428
   61SAPC  H14Y 4831   0.395   0.663   8.795 -1.2132 -1.4209  1.0077
   61SAPC  C315 4832   0.541   0.507   8.762  0.3296 -0.1696 -0.9226
   61SAPC  H15X 4833   0.504   0.406   8.789 -2.0599  0.7452 -0.5381
   61SAPC  H15Y 4834   0.643   0.497   8.806 -0.3545  1.8435  1.3684
   61SAPC  C316 4835   0.548   0.515   8.608 -0.5155  0.8836 -0.1944
   61SAPC  H16X 4836   0.611   0.602   8.581  1.9853 -0.5530  0.6380
   61SAPC  H16Y 4837   0.450   0.529   8.558 -0.0686  0.1551 -1.3071
   61SAPC  C317 4838   0.617   0.385   8.559  0.4738  0.0497  0.6425
   61SAPC  H17X 4839   0.545   0.302   8.577 -0.9950  1.5862  2.2641
   61SAPC  H17Y 4840   0.710   0.371   8.617  0.1394 -0.8995  0.9560
   61SAPC  C318 4841   0.649   0.389   8.414 -0.0200 -0.1385 -0.4469
   61SAPC  H18X 4842   0.560   0.425   8.357  0.9835  4.9190  0.6653
   61SAPC  H18Y 4843   0.661   0.284   8.381 -0.8166 -1.4313  2.9562
   61SAPC  H18Z 4844   0.742   0.444   8.388 -0.5674  0.2761 -1.6193
   62SAPC     N 4845   6.239   0.838  11.112 -0.1950 -0.2208 -0.4217
   62SAPC   C12 4846   6.331   0.820  10.992 -0.2111  0.4163  0.2456
   62SAPC  H12A 4847   6.391   0.734  11.014  1.9198  1.6758 -0.3709
   62SAPC  H12B 4848   6.393   0.908  10.983  1.2716 -0.6382 -0.1068
   62SAPC   C13 4849   6.328   0.854  11.233  0.2110  0.2009 -0.2769
   62SAPC  H13A 4850   6.399   0.934  11.216  2.7368 -1.4985  1.6086
   62SAPC  H13B 4851   6.269   0.858  11.323 -2.7452  0.0252 -2.0637
   62SAPC  H13C 4852   6.381   0.761  11.248 -0.4407  0.1815  2.4767
   62SAPC   C14 4853   6.149   0.962  11.086  0.2594 -0.1849 -0.4708
   62SAPC  H14A 4854   6.212   1.047  11.069  1.0000 -0.5520  0.3491
   62SAPC  H14B 4855   6.079   0.955  11.004 -1.2244  0.5335  0.6867
   62SAPC  H14C 4856   6.089   0.979  11.175 -0.7686  0.0544 -1.1915
   62SAPC   C15 4857   6.158   0.715  11.139  0.8777  0.3249  0.2061
   62SAPC  H15A 4858   6.099   0.717  11.230 -0.2452 -0.8009 -0.4788
   62SAPC  H15B 4859   6.089   0.682  11.063 -1.1167 -2.6269  3.0578
   62SAPC  H15C 4860   6.226   0.633  11.154  0.4339  0.2494  2.0778
   62SAPC   C11 4861   6.280   0.814  10.850  0.0651 -1.6741  0.1463
   62SAPC  H11A 4862   6.360   0.802  10.774  0.4545  0.0331  0.2518
   62SAPC  H11B 4863   6.248   0.918  10.828 -2.5212 -2.7146 -1.4692
   62SAPC     P 4864   6.200   0.569  10.801  0.1150 -0.1700  0.7337
   62SAPC   O13 4865   6.330   0.535  10.860  0.1422 -0.4315 -0.0362
   62SAPC   O14 4866   6.084   0.486  10.835  0.0989 -0.1920 -0.2748
   62SAPC   O12 4867   6.169   0.722  10.827 -0.3397 -0.3789  0.3414
   62SAPC   O11 4868   6.219   0.565  10.645 -0.3373  0.6021  0.3095
   62SAPC    C1 4869   6.154   0.645  10.545 -0.6121  0.6031  0.8963
   62SAPC    HA 4870   6.134   0.748  10.582 -0.1709  0.6775  0.9315
   62SAPC    HB 4871   6.227   0.659  10.462 -0.2923  2.6572  1.4709
   62SAPC    C2 4872   6.018   0.582  10.500 -1.0561  0.5159  0.0690
   62SAPC    HS 4873   5.964   0.552  10.592  0.1856  3.8311  2.0748
   62SAPC   O21 4874   6.059   0.474  10.409 -0.5056  0.3499 -0.1447
   62SAPC   C21 4875   5.954   0.400  10.370 -0.2927 -0.3204 -0.0603
   62SAPC   O22 4876   5.836   0.408  10.397 -0.2818  0.0891 -0.1946
   62SAPC   C22 4877   6.022   0.288  10.291 -0.0343  0.0996  0.1437
   62SAPC   H2R 4878   6.113   0.327  10.242 -0.7555  1.8190  0.1073
   62SAPC   H2S 4879   6.049   0.205  10.360  1.4226  1.3878  1.1765
   62SAPC    C3 4880   5.928   0.693  10.432  0.3266  0.4243  0.0158
   62SAPC    HX 4881   5.926   0.773  10.508  1.7756 -1.3166  2.0101
   62SAPC    HY 4882   5.828   0.651  10.407  0.3862  0.0699  0.3589
   62SAPC   O31 4883   5.976   0.747  10.309 -0.8295  0.2874 -0.1561
   62SAPC   C31 4884   5.910   0.851  10.262  0.8286 -0.1912 -0.9023
   62SAPC   O32 4885   5.807   0.893  10.310 -1.2242  0.2054 -0.2262
   62SAPC   C32 4886   5.978   0.898  10.129 -0.5802 -0.0661 -0.5405
   62SAPC   H2X 4887   6.013   0.809  10.073 -2.0317 -2.5362  2.1714
   62SAPC   H2Y 4888   6.066   0.959  10.159  0.7148 -2.2706  0.3979
   62SAPC   C23 4889   5.929   0.218  10.196  1.1466 -0.3886  0.7685
   62SAPC   H3R 4890   5.832   0.192  10.242 -0.9196 -1.6177 -3.6735
   62SAPC   H3S 4891   5.961   0.124  10.146  1.5362 -0.2926  0.8278
   62SAPC   C24 4892   5.888   0.306  10.073  0.1232  0.0344 -0.1406
   62SAPC   H4R 4893   5.861   0.406  10.114  2.2636  0.3306  0.6808
   62SAPC   H4S 4894   5.810   0.250  10.017  1.3741 -2.3740  0.3851
   62SAPC   C25 4895   5.993   0.335   9.968 -0.2608 -0.0814 -0.0824
   62SAPC   H5R 4896   6.097   0.329  10.002  0.0600  1.4294 -0.7021
   62SAPC   C26 4897   5.979   0.363   9.839 -0.5575 -0.8686  0.9484
   62SAPC   H6R 4898   6.073   0.380   9.784 -0.5227 -0.5470  1.1046
   62SAPC   C27 4899   5.853   0.384   9.758 -0.6381 -0.8010  0.9907
   62SAPC   H7R 4900   5.802   0.481   9.771 -1.1120 -0.6757 -1.2815
   62SAPC   H7S 4901   5.778   0.308   9.788 -1.3520 -1.4257 -1.9804
   62SAPC   C28 4902   5.874   0.350   9.611  0.2053 -0.4802 -0.0226
   62SAPC   H8R 4903   5.885   0.242   9.592  2.4049 -0.1948 -0.6166
   62SAPC   C29 4904   5.882   0.430   9.500  0.9305 -0.5627  0.2849
   62SAPC   H9R 4905   5.905   0.379   9.405  1.0250  0.2188 -0.1178
   62SAPC  C210 4906   5.883   0.579   9.484 -0.7680 -0.3158  0.4018
   62SAPC  H10R 4907   5.990   0.601   9.464 -0.8847 -0.5557 -0.5161
   62SAPC  H10S 4908   5.872   0.631   9.582  0.0111 -0.0577  0.3665
   62SAPC  C211 4909   5.799   0.647   9.373 -0.2730  0.2894 -0.4346
   62SAPC  H11R 4910   5.714   0.711   9.403  0.6406  2.4011 -2.0761
   62SAPC  C212 4911   5.835   0.635   9.246  0.1506 -0.8350  0.2335
   62SAPC  H12R 4912   5.758   0.677   9.180 -0.2592 -1.0136  0.5932
   62SAPC  C213 4913   5.960   0.581   9.187 -0.3071 -0.3116  0.3927
   62SAPC  H13R 4914   5.962   0.471   9.197  0.0899 -0.2607  0.9061
   62SAPC  H13S 4915   6.047   0.625   9.240 -0.0639 -1.5133  1.0319
   62SAPC  C214 4916   5.971   0.616   9.041  0.2743 -0.1402 -0.6688
   62SAPC  H14R 4917   5.900   0.563   8.976  2.7492 -1.4965 -2.4324
   62SAPC  C215 4918   6.057   0.699   8.977 -0.1433 -0.3662  0.3753
   62SAPC  H15R 4919   6.053   0.725   8.871  2.0648 -0.0636  0.3218
   62SAPC  C216 4920   6.172   0.770   9.042 -0.7504 -0.6032  0.0263
   62SAPC  H16R 4921   6.242   0.686   9.061  1.9192  1.9074  2.2214
   62SAPC  H16S 4922   6.133   0.817   9.135 -1.4572  1.5017 -1.2483
   62SAPC  C217 4923   6.259   0.871   8.969 -0.2564 -0.2849  0.4605
   62SAPC  H17R 4924   6.354   0.894   9.021 -0.8495 -0.2176  1.5311
   62SAPC  H17S 4925   6.193   0.958   8.951  0.1252 -0.3704 -1.6198
   62SAPC  C218 4926   6.309   0.808   8.843 -0.1052 -0.1170  0.3696
   62SAPC  H18R 4927   6.225   0.772   8.780 -0.9523 -0.6085  1.7472
   62SAPC  H18S 4928   6.371   0.717   8.860 -3.0397 -2.2796  0.1566
   62SAPC  C219 4929   6.399   0.909   8.768  0.6143  0.9106 -0.1487
   62SAPC  H19R 4930   6.492   0.916   8.827  1.2628  0.2967 -1.0624
   62SAPC  H19S 4931   6.338   1.002   8.765 -2.4580 -0.9316  0.3918
   62SAPC  C220 4932   6.431   0.872   8.620  0.0867 -0.2612 -0.1900
   62SAPC  H20R 4933   6.479   0.772   8.625 -0.8829 -0.7346 -0.1541
   62SAPC  H20S 4934   6.491   0.949   8.567 -1.2880 -1.1361 -3.2110
   62SAPC  H20T 4935   6.343   0.860   8.554  0.6870  2.0541 -1.5417
   62SAPC   C33 4936   5.868   0.972  10.053  0.0213 -0.6672 -0.0298
   62SAPC   H3X 4937   5.831   1.065  10.102  0.3832 -0.9807  0.8690
   62SAPC   H3Y 4938   5.784   0.902  10.034  1.4712 -2.0535 -1.7118
   62SAPC   C34 4939   5.933   1.020   9.927  0.6394  0.2996  0.3856
   62SAPC   H4X 4940   5.992   0.945   9.870 -1.3077 -0.9227 -0.1068
   62SAPC   H4Y 4941   6.003   1.103   9.952 -2.3154  3.0632  0.1286
   62SAPC   C35 4942   5.839   1.090   9.830 -0.6554  0.8722 -0.2552
   62SAPC   H5X 4943   5.890   1.147   9.749 -0.2638  1.0229  0.0974
   62SAPC   H5Y 4944   5.776   1.165   9.883  1.5931  3.0494 -0.4849
   62SAPC   C36 4945   5.753   0.987   9.752  0.5680 -0.2521  0.3029
   62SAPC   H6X 4946   5.692   0.937   9.830  0.3044  0.2021  0.3920
   62SAPC   H6Y 4947   5.825   0.909   9.720  1.4579 -0.3100  2.3156
   62SAPC   C37 4948   5.668   1.038   9.633 -0.2883 -0.4796 -0.2786
   62SAPC   H7X 4949   5.618   1.135   9.652  1.5486  0.5729 -0.6301
   62SAPC   H7Y 4950   5.584   0.966   9.621  0.3093 -1.0672 -1.0928
   62SAPC   C38 4951   5.750   1.036   9.505 -0.2392 -0.4546  0.5017
   62SAPC   H8X 4952   5.797   0.936   9.497 -0.8926 -0.8154  1.0427
   62SAPC   H8Y 4953   5.821   1.122   9.512 -2.2496  1.3450  0.0836
   62SAPC   C39 4954   5.663   1.067   9.378 -0.7952  0.7155  0.3393
   62SAPC   H9X 4955   5.604   1.161   9.380 -0.9017  0.7716 -2.3345
   62SAPC   H9Y 4956   5.585   0.987   9.374  0.3954 -0.4211 -1.2899
   62SAPC  C310 4957   5.748   1.061   9.248  0.2469 -0.5350 -0.0422
   62SAPC  H10X 4958   5.787   0.957   9.252  0.0175 -0.5927  0.8886
   62SAPC  H10Y 4959   5.830   1.135   9.251 -1.2990  1.2371  0.2530
   62SAPC  C311 4960   5.666   1.090   9.119 -0.3469  0.1031 -0.4088
   62SAPC  H11X 4961   5.606   1.183   9.134 -3.0610 -1.5508 -0.3773
   62SAPC  H11Y 4962   5.603   1.000   9.103 -0.3926  0.3485 -1.7799
   62SAPC  C312 4963   5.747   1.107   8.990 -0.0990  0.3100 -0.1583
   62SAPC  H12X 4964   5.826   1.185   8.992 -0.5236  0.7249  0.4886
   62SAPC  H12Y 4965   5.666   1.126   8.917  0.7113  0.6220 -1.0014
   62SAPC  C313 4966   5.819   0.981   8.947  0.0730  0.4273  0.2482
   62SAPC  H13X 4967   5.742   0.910   8.910 -0.3045  1.3046 -0.7061
   62SAPC  H13Y 4968   5.868   0.928   9.031 -1.0693  0.8034  1.1725
   62SAPC  C314 4969   5.919   1.005   8.840 -0.0805 -0.2888 -0.2505
   62SAPC  H14X 4970   5.969   0.914   8.800  0.2390 -0.1224 -0.2337
   62SAPC  H14Y 4971   5.997   1.078   8.870 -0.1163  0.1655 -1.2065
   62SAPC  C315 4972   5.858   1.071   8.713  0.5017 -0.2929 -0.2853
   62SAPC  H15X 4973   5.843   1.178   8.737  0.8076 -0.5103  0.9279
   62SAPC  H15Y 4974   5.758   1.029   8.687  0.5081 -0.4475 -0.0651
   62SAPC  C316 4975   5.946   1.049   8.586  0.6247 -0.6562 -0.1281
   62SAPC  H16X 4976   5.904   1.103   8.498 -0.1989 -0.8254  0.1547
   62SAPC  H16Y 4977   5.930   0.941   8.565 -4.6993 -0.5232  1.7413
   62SAPC  C317 4978   6.092   1.087   8.597 -0.1850  0.3417  0.0204
   62SAPC  H17X 4979   6.162   1.016   8.645  1.4397  0.8162 -1.5092
   62SAPC  H17Y 4980   6.100   1.187   8.645  1.7342  0.6377 -0.8379
   62SAPC  C318 4981   6.162   1.104   8.463 -0.3552 -0.3209 -0.1324
   62SAPC  H18X 4982   6.161   1.015   8.397 -3.0106 -0.9173  0.5861
   62SAPC  H18Y 4983   6.267   1.139   8.470 -0.3975 -0.2960  0.4562
   62SAPC  H18Z 4984   6.110   1.177   8.398 -1.6782 -0.7184  0.4562
   63SAPC     N 4985   4.944   5.397   6.063  0.1124 -0.1427 -0.3836
   63SAPC   C12 4986   4.900   5.424   6.206 -0.7242 -0.2342  0.5606
   63SAPC  H12A 4987   4.842   5.515   6.208  0.2252  0.4055 -0.2997
   63SAPC  H12B 4988   4.980   5.430   6.278 -1.0178 -0.2957  0.8924
   63SAPC   C13 4989   4.826   5.396   5.974  0.2317  0.0065  0.0649
   63SAPC  H13A 4990   4.788   5.496   5.963  1.7092  0.8484  1.9384
   63SAPC  H13B 4991   4.839   5.336   5.886  1.0383 -1.1095  0.9120
   63SAPC  H13C 4992   4.746   5.344   6.024  0.8426 -0.1047  0.9525
   63SAPC   C14 4993   5.027   5.505   6.004 -0.4352  1.0390  0.1257
   63SAPC  H14A 4994   5.043   5.475   5.902  1.6160  0.9696  0.4235
   63SAPC  H14B 4995   4.978   5.601   5.995 -1.4390  0.5204 -0.0812
   63SAPC  H14C 4996   5.129   5.518   6.035 -0.4176  0.5420  0.2860
   63SAPC   C15 4997   5.012   5.270   6.049  0.7809  1.1427  0.1947
   63SAPC  H15A 4998   5.056   5.255   5.952 -1.7032 -1.0847 -0.7208
   63SAPC  H15B 4999   5.094   5.272   6.119  2.2428 -0.3672 -1.3853
   63SAPC  H15C 5000   4.952   5.183   6.070  2.2223 -0.0396 -0.4277
   63SAPC   C11 5001   4.811   5.319   6.273  0.0782 -0.2343 -0.1013
   63SAPC  H11A 5002   4.731   5.299   6.199 -1.8795 -1.8579  2.2919
   63SAPC  H11B 5003   4.757   5.360   6.362  0.5960  1.8074 -0.6618
   63SAPC     P 5004   4.957   5.165   6.430 -0.0313  0.1707 -0.1145
   63SAPC   O13 5005   4.861   5.169   6.541 -0.1107 -0.1479  0.4200
   63SAPC   O14 5006   5.036   5.041   6.413 -0.2991 -0.5899  0.9185
   63SAPC   O12 5007   4.881   5.197   6.298  0.0154 -0.4059  1.6170
   63SAPC   O11 5008   5.061   5.290   6.439  0.2216  0.0979 -0.7521
   63SAPC    C1 5009   5.203   5.262   6.434  0.4387  0.7573  1.1764
   63SAPC    HA 5010   5.221   5.183   6.357 -0.7475  0.6614  0.9740
   63SAPC    HB 5011   5.259   5.352   6.403 -0.1319  0.4492 -0.8944
   63SAPC    C2 5012   5.255   5.215   6.573 -0.1543  0.2733 -0.0703
   63SAPC    HS 5013   5.203   5.120   6.596 -1.5516  0.8629 -0.6799
   63SAPC   O21 5014   5.211   5.312   6.672  0.4807  0.2108 -0.0749
   63SAPC   C21 5015   5.118   5.284   6.763 -0.3281  1.1116 -0.1809
   63SAPC   O22 5016   5.062   5.174   6.782 -0.0330 -0.6508 -0.0418
   63SAPC   C22 5017   5.116   5.399   6.862  0.4561 -0.4167 -0.5027
   63SAPC   H2R 5018   5.218   5.443   6.870  0.2302  0.2736 -1.2532
   63SAPC   H2S 5019   5.074   5.481   6.800  1.3464  0.6276  0.2431
   63SAPC    C3 5020   5.411   5.201   6.576  0.1661  0.0086  0.2934
   63SAPC    HX 5021   5.451   5.305   6.572  1.5281 -0.5247 -1.1624
   63SAPC    HY 5022   5.443   5.131   6.496 -1.7285 -2.6553  1.7245
   63SAPC   O31 5023   5.452   5.141   6.700 -0.4228  0.4437 -0.3264
   63SAPC   C31 5024   5.493   5.223   6.805 -0.0155  0.0744  0.5362
   63SAPC   O32 5025   5.489   5.344   6.802  0.2904  0.0382  0.2582
   63SAPC   C32 5026   5.520   5.135   6.925  0.0785 -0.0170 -0.3428
   63SAPC   H2X 5027   5.617   5.085   6.904  0.2717  0.0796  0.3025
   63SAPC   H2Y 5028   5.445   5.053   6.924 -0.2529  0.2832 -0.6890
   63SAPC   C23 5029   5.029   5.376   6.989  0.0171 -0.6860 -0.7219
   63SAPC   H3R 5030   5.064   5.280   7.033 -0.1342 -0.4037  0.0348
   63SAPC   H3S 5031   4.923   5.366   6.957 -1.4047  1.8975  2.5821
   63SAPC   C24 5032   5.054   5.494   7.092  0.0982  0.4565 -0.0012
   63SAPC   H4R 5033   4.978   5.477   7.172  0.9813 -0.4240  0.6793
   63SAPC   H4S 5034   5.027   5.587   7.039 -0.0828 -0.2086 -1.1082
   63SAPC   C25 5035   5.192   5.485   7.155 -0.1888 -0.0824  0.4471
   63SAPC   H5R 5036   5.272   5.484   7.079  0.7403 -2.0898  1.3736
   63SAPC   C26 5037   5.220   5.481   7.282 -0.2381 -0.2071  0.1038
   63SAPC   H6R 5038   5.321   5.493   7.323  0.6650 -0.2893 -2.0008
   63SAPC   C27 5039   5.115   5.474   7.395  0.2138 -0.4118  0.5692
   63SAPC   H7R 5040   5.055   5.382   7.381 -0.7875  0.0834  1.4604
   63SAPC   H7S 5041   5.044   5.560   7.390  0.6641  0.0092  1.2042
   63SAPC   C28 5042   5.179   5.487   7.530  0.2896 -0.0870  0.6797
   63SAPC   H8R 5043   5.157   5.578   7.586  0.6082 -0.2082  1.0076
   63SAPC   C29 5044   5.248   5.386   7.591 -0.9708 -0.1622 -0.1581
   63SAPC   H9R 5045   5.273   5.398   7.697  0.1131 -2.1706 -0.1515
   63SAPC  C210 5046   5.281   5.242   7.555 -0.0243  0.2888  0.5421
   63SAPC  H10R 5047   5.251   5.217   7.451  2.0083  0.5988 -0.1573
   63SAPC  H10S 5048   5.220   5.171   7.616 -0.3496 -0.9864 -1.2036
   63SAPC  C211 5049   5.426   5.215   7.562  0.0517  0.7440 -0.2566
   63SAPC  H11R 5050   5.484   5.249   7.475  0.5665 -2.8230 -1.4811
   63SAPC  C212 5051   5.491   5.150   7.666  0.0946 -0.3603 -0.3204
   63SAPC  H12R 5052   5.597   5.130   7.647  0.2588 -0.8088  0.9749
   63SAPC  C213 5053   5.421   5.089   7.786 -0.3652 -0.1242  0.4728
   63SAPC  H13R 5054   5.389   4.985   7.761 -1.9024  0.6187 -0.7769
   63SAPC  H13S 5055   5.323   5.136   7.810 -0.8664 -1.7901  1.9928
   63SAPC  C214 5056   5.508   5.081   7.911  0.8704  1.3095  0.3870
   63SAPC  H14R 5057   5.594   5.018   7.884  0.1908  2.3577 -5.4896
   63SAPC  C215 5058   5.484   5.133   8.032 -0.1254 -0.0254 -0.8981
   63SAPC  H15R 5059   5.559   5.126   8.112 -0.4475 -1.0567 -0.6808
   63SAPC  C216 5060   5.361   5.209   8.074  0.3060 -1.0689  0.1810
   63SAPC  H16R 5061   5.357   5.220   8.185  4.6677  0.7075  0.3491
   63SAPC  H16S 5062   5.276   5.144   8.043  0.9300 -1.2754 -1.1717
   63SAPC  C217 5063   5.358   5.358   8.026 -0.4459 -0.7483 -0.0594
   63SAPC  H17R 5064   5.267   5.390   8.081 -2.4338 -1.1239 -2.9101
   63SAPC  H17S 5065   5.336   5.367   7.918 -1.4458 -1.0049  0.1147
   63SAPC  C218 5066   5.468   5.451   8.078 -0.3467  0.0169 -0.4993
   63SAPC  H18R 5067   5.561   5.419   8.026  1.3648  2.2966  0.9555
   63SAPC  H18S 5068   5.475   5.435   8.188 -1.4700 -0.6977 -0.5136
   63SAPC  C219 5069   5.431   5.596   8.060  1.1442 -0.8584 -0.0840
   63SAPC  H19R 5070   5.328   5.624   8.091  0.1169 -3.8163 -0.5609
   63SAPC  H19S 5071   5.411   5.617   7.952 -1.1748  2.6094  0.8478
   63SAPC  C220 5072   5.535   5.690   8.107  0.1836 -0.7387  0.2379
   63SAPC  H20R 5073   5.627   5.684   8.045 -0.5111 -0.6799 -0.8156
   63SAPC  H20S 5074   5.561   5.663   8.212 -2.0444  2.0372  1.6472
   63SAPC  H20T 5075   5.489   5.790   8.094 -2.0133 -1.7884 -0.4823
   63SAPC   C33 5076   5.525   5.216   7.058  0.2540  0.4521  0.1599
   63SAPC   H3X 5077   5.430   5.274   7.061  0.8733  1.5318  4.1464
   63SAPC   H3Y 5078   5.606   5.292   7.068 -1.5413  2.3212  1.1510
   63SAPC   C34 5079   5.522   5.134   7.181  0.0213  0.4048  0.3263
   63SAPC   H4X 5080   5.464   5.041   7.163  1.2251 -0.6033  1.4458
   63SAPC   H4Y 5081   5.468   5.193   7.257  1.0936  0.3286  1.1634
   63SAPC   C35 5082   5.654   5.087   7.235  0.1761  0.1109 -0.5867
   63SAPC   H5X 5083   5.704   5.178   7.277  1.5991 -1.0400  0.3239
   63SAPC   H5Y 5084   5.717   5.041   7.156  1.5544 -0.3351  0.7096
   63SAPC   C36 5085   5.630   4.983   7.347  0.2490 -0.1529  0.4028
   63SAPC   H6X 5086   5.590   4.887   7.306  0.1368  0.5028 -1.1148
   63SAPC   H6Y 5087   5.564   5.029   7.423 -0.5096 -0.3737 -0.1058
   63SAPC   C37 5088   5.761   4.952   7.419 -0.4245  0.3852  0.3974
   63SAPC   H7X 5089   5.795   5.051   7.455  0.8624  0.0028  0.2948
   63SAPC   H7Y 5090   5.834   4.918   7.342 -0.7286  0.8627 -0.1179
   63SAPC   C38 5091   5.749   4.849   7.527 -0.1392 -0.4290  0.3434
   63SAPC   H8X 5092   5.698   4.761   7.481 -2.6694  0.9195  0.3661
   63SAPC   H8Y 5093   5.672   4.887   7.598  1.9009  1.4192  1.6639
   63SAPC   C39 5094   5.857   4.807   7.630 -0.3063  0.7289  0.6654
   63SAPC   H9X 5095   5.927   4.730   7.589 -2.2279 -1.3184  1.0498
   63SAPC   H9Y 5096   5.809   4.748   7.710  0.2816  0.6122  0.9428
   63SAPC  C310 5097   5.930   4.928   7.688  0.6520 -0.7913 -0.0180
   63SAPC  H10X 5098   5.959   4.977   7.592 -0.8279  1.4981  0.6099
   63SAPC  H10Y 5099   6.027   4.898   7.733 -0.4037 -3.3279  0.7640
   63SAPC  C311 5100   5.857   5.018   7.774  0.4532  0.3297 -0.0227
   63SAPC  H11X 5101   5.787   4.963   7.841  1.3112  1.7088  2.0864
   63SAPC  H11Y 5102   5.788   5.094   7.730 -1.6938 -1.3764  0.2365
   63SAPC  C312 5103   5.952   5.084   7.871 -0.0645  0.6401 -0.0010
   63SAPC  H12X 5104   6.034   5.145   7.828  1.5431 -1.0150  0.5803
   63SAPC  H12Y 5105   6.013   5.000   7.911 -0.5164 -0.4731 -1.5466
   63SAPC  C313 5106   5.882   5.170   7.977  0.1498  0.3514  0.5379
   63SAPC  H13X 5107   5.821   5.108   8.046 -1.0070  1.5698  0.6497
   63SAPC  H13Y 5108   5.809   5.230   7.920  1.1789 -0.5295 -1.8311
   63SAPC  C314 5109   5.989   5.254   8.052 -0.0077 -0.6134  0.8211
   63SAPC  H14X 5110   6.050   5.313   7.980 -1.3822  0.4680  0.4917
   63SAPC  H14Y 5111   6.066   5.204   8.115  2.3966 -0.2637 -1.6275
   63SAPC  C315 5112   5.926   5.363   8.136 -0.2952 -0.3485  0.2829
   63SAPC  H15X 5113   5.845   5.321   8.200  0.3076  0.6740  1.7623
   63SAPC  H15Y 5114   5.875   5.436   8.070  0.0241 -0.3528  0.0320
   63SAPC  C316 5115   6.028   5.449   8.213 -0.1955 -0.4225  0.2764
   63SAPC  H16X 5116   6.104   5.485   8.140  0.7577 -1.5299  0.6799
   63SAPC  H16Y 5117   6.082   5.364   8.261  0.0362  0.0576  0.8897
   63SAPC  C317 5118   5.969   5.556   8.312 -0.2178  0.2668  0.0717
   63SAPC  H17X 5119   5.901   5.627   8.259 -1.6519  0.1518  1.6770
   63SAPC  H17Y 5120   6.050   5.605   8.370 -0.0392 -1.5278  1.3959
   63SAPC  C318 5121   5.888   5.486   8.419 -0.1687  0.4668 -0.2132
   63SAPC  H18X 5122   5.796   5.435   8.382 -0.7765  0.9877  0.5444
   63SAPC  H18Y 5123   5.857   5.559   8.497 -1.2743  1.0937 -1.2012
   63SAPC  H18Z 5124   5.947   5.406   8.468 -1.0568  0.0008  0.1280
   64SAPC     N 5125   0.404   4.262   6.219  0.1345  0.4267 -0.0382
   64SAPC   C12 5126   0.279   4.178   6.229 -0.3519  0.3974 -0.1103
   64SAPC  H12A 5127   0.295   4.120   6.319 -0.0927 -0.9589 -0.9990
   64SAPC  H12B 5128   0.265   4.116   6.142 -0.1578 -0.5846  0.5474
   64SAPC   C13 5129   0.513   4.174   6.173  0.6944  0.8459  0.0548
   64SAPC  H13A 5130   0.488   4.138   6.075  0.3578  2.3246 -0.4349
   64SAPC  H13B 5131   0.606   4.228   6.164  1.4422 -0.5631 -0.9807
   64SAPC  H13C 5132   0.523   4.086   6.235 -2.1788  0.0727 -0.4714
   64SAPC   C14 5133   0.398   4.366   6.116  0.5654 -0.2270  0.6932
   64SAPC  H14A 5134   0.482   4.434   6.120  1.6633 -1.2304 -2.5317
   64SAPC  H14B 5135   0.388   4.318   6.020 -2.4004  0.7400  0.4208
   64SAPC  H14C 5136   0.306   4.423   6.122 -0.4929 -1.9005  1.0989
   64SAPC   C15 5137   0.423   4.324   6.358 -0.0445  0.4568  0.0779
   64SAPC  H15A 5138   0.507   4.392   6.357  2.0197 -1.9233  0.7257
   64SAPC  H15B 5139   0.332   4.376   6.382 -0.9191 -1.4598  1.2048
   64SAPC  H15C 5140   0.438   4.259   6.443 -1.7932  0.7286  0.6285
   64SAPC   C11 5141   0.143   4.248   6.245  0.6503 -0.0915  0.3383
   64SAPC  H11A 5142   0.142   4.318   6.331 -1.1461  1.9195 -1.2284
   64SAPC  H11B 5143   0.069   4.167   6.268  2.0321 -1.6101 -0.3612
   64SAPC     P 5144   0.025   4.448   6.128  0.0249  0.4597  0.3965
   64SAPC   O13 5145   0.119   4.564   6.114  0.0212 -0.3020  0.5024
   64SAPC   O14 5146  -0.090   4.446   6.025 -0.3007  0.3504 -0.5299
   64SAPC   O12 5147   0.110   4.317   6.120  0.1447  0.3167 -0.2566
   64SAPC   O11 5148  -0.030   4.449   6.274  0.0098 -0.5053  0.1010
   64SAPC    C1 5149  -0.054   4.578   6.338  0.1148 -0.2241 -0.0598
   64SAPC    HA 5150  -0.048   4.660   6.264  1.0432  0.8115  1.1103
   64SAPC    HB 5151  -0.153   4.586   6.387  0.1045  0.0563 -0.1263
   64SAPC    C2 5152   0.049   4.611   6.451  0.3463 -0.5839  1.0507
   64SAPC    HS 5153   0.151   4.603   6.408  0.7381  1.4056  1.5498
   64SAPC   O21 5154   0.030   4.513   6.554  0.0759  0.3029  0.3637
   64SAPC   C21 5155   0.148   4.475   6.623 -0.2944  0.3071 -0.3244
   64SAPC   O22 5156   0.261   4.505   6.594  0.4586  0.1539 -0.3340
   64SAPC   C22 5157   0.099   4.389   6.744 -0.2853 -0.2308 -0.5927
   64SAPC   H2R 5158   0.059   4.292   6.708 -0.2688 -0.2283 -0.6172
   64SAPC   H2S 5159   0.189   4.359   6.802  0.4438  3.2140  0.3376
   64SAPC    C3 5160   0.033   4.753   6.508  0.5894 -0.8528 -0.0459
   64SAPC    HX 5161   0.039   4.828   6.426 -0.4970 -1.4594 -0.7047
   64SAPC    HY 5162   0.122   4.774   6.571 -0.0245  1.7441  0.0402
   64SAPC   O31 5163  -0.078   4.775   6.596  0.0067  0.1604 -0.0667
   64SAPC   C31 5164  -0.190   4.823   6.538  0.2914 -0.4305  0.1190
   64SAPC   O32 5165  -0.200   4.846   6.418  0.2984 -0.6657 -0.3133
   64SAPC   C32 5166  -0.301   4.828   6.639 -0.7406  0.3364 -0.0563
   64SAPC   H2X 5167  -0.366   4.743   6.609  1.6614 -1.7709  0.3300
   64SAPC   H2Y 5168  -0.360   4.922   6.639 -0.1857  0.6895  0.3913
   64SAPC   C23 5169  -0.023   4.446   6.825 -0.0804 -0.1417 -0.0466
   64SAPC   H3R 5170  -0.077   4.360   6.869 -0.1910 -0.5314 -0.9121
   64SAPC   H3S 5171  -0.090   4.506   6.759  0.6602  1.6133  0.7407
   64SAPC   C24 5172   0.016   4.543   6.939  0.2398 -0.0757 -0.3976
   64SAPC   H4R 5173  -0.080   4.593   6.963 -0.1927 -1.5983  1.2335
   64SAPC   H4S 5174   0.078   4.626   6.898  0.0232  0.2525 -0.0643
   64SAPC   C25 5175   0.080   4.471   7.052  0.1178 -0.0231 -0.7402
   64SAPC   H5R 5176   0.116   4.368   7.037  0.1057 -0.3492  1.3062
   64SAPC   C26 5177   0.078   4.508   7.181 -0.4287 -0.2224 -0.4989
   64SAPC   H6R 5178   0.126   4.446   7.258  2.1310  0.4721 -1.4463
   64SAPC   C27 5179   0.021   4.637   7.238  0.5603  0.1620 -0.1510
   64SAPC   H7R 5180  -0.016   4.709   7.162  0.4334  0.4699  0.2042
   64SAPC   H7S 5181   0.087   4.696   7.304  1.5816 -1.6037  0.4743
   64SAPC   C28 5182  -0.105   4.591   7.307  0.7225  0.3896  0.0569
   64SAPC   H8R 5183  -0.186   4.562   7.238 -0.0821  1.0242  0.7039
   64SAPC   C29 5184  -0.130   4.582   7.439  1.0551 -0.4351 -0.3642
   64SAPC   H9R 5185  -0.228   4.547   7.474  1.9307 -2.8201 -0.1644
   64SAPC  C210 5186  -0.040   4.617   7.553  0.1009  0.4267  0.1602
   64SAPC  H10R 5187  -0.093   4.667   7.637 -0.9155 -1.9509  1.0183
   64SAPC  H10S 5188   0.038   4.684   7.512  0.5176  0.7952  1.4992
   64SAPC  C211 5189   0.037   4.497   7.609  0.3717 -0.5613 -0.0577
   64SAPC  H11R 5190   0.083   4.443   7.525  1.7430  1.2541 -0.5450
   64SAPC  C212 5191   0.045   4.458   7.735 -0.6789  0.3198 -0.9934
   64SAPC  H12R 5192   0.110   4.373   7.760  1.6795  1.9989 -1.0507
   64SAPC  C213 5193  -0.011   4.530   7.857 -0.1341  0.1581  0.2825
   64SAPC  H13R 5194  -0.097   4.475   7.900  1.2383 -0.5825  2.2014
   64SAPC  H13S 5195  -0.059   4.624   7.823 -0.0487 -0.6283 -2.2206
   64SAPC  C214 5196   0.095   4.539   7.969  0.0654 -0.0357 -0.5021
   64SAPC  H14R 5197   0.181   4.601   7.941 -0.4938  1.3381  0.6801
   64SAPC  C215 5198   0.074   4.498   8.098 -0.5931  1.2111 -0.8279
   64SAPC  H15R 5199   0.160   4.508   8.166 -0.7653 -1.1428 -0.1769
   64SAPC  C216 5200  -0.053   4.426   8.146  0.0950 -0.1914 -0.2773
   64SAPC  H16R 5201  -0.062   4.336   8.081  3.4057 -1.4658  0.7782
   64SAPC  H16S 5202  -0.138   4.492   8.120  1.5307  2.0882  0.4317
   64SAPC  C217 5203  -0.037   4.392   8.302  0.2941  0.2898  0.0608
   64SAPC  H17R 5204  -0.134   4.356   8.340 -0.7160 -1.1017 -3.4692
   64SAPC  H17S 5205  -0.005   4.490   8.345  0.1644 -0.2563  1.4396
   64SAPC  C218 5206   0.055   4.273   8.342 -0.2683  0.0411 -0.2675
   64SAPC  H18R 5207   0.154   4.288   8.294 -0.2195 -0.3740 -0.3081
   64SAPC  H18S 5208  -0.002   4.186   8.302  0.0035 -0.7004  0.8993
   64SAPC  C219 5209   0.063   4.240   8.490  0.2968 -0.0577  0.4096
   64SAPC  H19R 5210   0.063   4.338   8.542 -0.9904 -1.3780  3.0984
   64SAPC  H19S 5211   0.159   4.187   8.502 -0.5520 -1.8753 -0.4377
   64SAPC  C220 5212  -0.055   4.162   8.548 -0.1829 -0.3727 -0.0409
   64SAPC  H20R 5213  -0.031   4.131   8.652  0.5818  0.2857 -0.0083
   64SAPC  H20S 5214  -0.079   4.066   8.499 -1.2516 -0.5427  0.7813
   64SAPC  H20T 5215  -0.152   4.216   8.537 -1.2561 -1.8882  1.5550
   64SAPC   C33 5216  -0.245   4.790   6.782 -0.0310 -1.0242 -0.4928
   64SAPC   H3X 5217  -0.149   4.835   6.813  0.3336 -2.5897  0.7458
   64SAPC   H3Y 5218  -0.237   4.680   6.788 -0.9302 -1.0388  0.5866
   64SAPC   C34 5219  -0.356   4.826   6.880  0.1220  0.9171 -0.2875
   64SAPC   H4X 5220  -0.437   4.764   6.836  1.7233 -1.5463  0.0325
   64SAPC   H4Y 5221  -0.390   4.931   6.873 -0.4504  0.7092 -0.6941
   64SAPC   C35 5222  -0.322   4.783   7.021 -0.2371  0.2586 -0.1424
   64SAPC   H5X 5223  -0.232   4.836   7.058  1.5244 -2.8822  0.4926
   64SAPC   H5Y 5224  -0.285   4.678   7.022 -0.2565  0.2302  1.9485
   64SAPC   C36 5225  -0.437   4.801   7.115  0.9167  0.0563  0.3934
   64SAPC   H6X 5226  -0.525   4.738   7.088 -0.9285  1.1613  3.3455
   64SAPC   H6Y 5227  -0.454   4.909   7.095 -1.1547 -0.4462 -0.8729
   64SAPC   C37 5228  -0.398   4.770   7.268 -0.3669 -0.2590  0.9206
   64SAPC   H7X 5229  -0.331   4.853   7.299 -0.4892  0.2623 -0.1600
   64SAPC   H7Y 5230  -0.351   4.670   7.258  4.2853  1.7958 -1.5031
   64SAPC   C38 5231  -0.523   4.780   7.353  0.1596  0.8059  0.1787
   64SAPC   H8X 5232  -0.588   4.709   7.299  2.4172 -0.3165 -1.2041
   64SAPC   H8Y 5233  -0.578   4.877   7.353 -0.9520  0.1927  0.6639
   64SAPC   C39 5234  -0.506   4.740   7.501 -1.0215 -0.0152 -0.4093
   64SAPC   H9X 5235  -0.447   4.647   7.509 -0.4141  0.4856  1.4722
   64SAPC   H9Y 5236  -0.604   4.721   7.550 -0.1678  0.8266  1.7659
   64SAPC  C310 5237  -0.438   4.857   7.571 -0.9233 -0.1220  0.3868
   64SAPC  H10X 5238  -0.476   4.954   7.532 -1.9502  0.2860  2.2368
   64SAPC  H10Y 5239  -0.329   4.853   7.550 -0.0150  2.3321  3.7767
   64SAPC  C311 5240  -0.463   4.844   7.727 -0.2050  1.1820  0.4543
   64SAPC  H11X 5241  -0.572   4.823   7.735 -0.0977  0.2927 -0.1884
   64SAPC  H11Y 5242  -0.447   4.941   7.779 -2.2104  1.0142  1.5128
   64SAPC  C312 5243  -0.395   4.725   7.793  0.4163  0.1927 -0.5587
   64SAPC  H12X 5244  -0.292   4.706   7.755 -1.1723 -2.8565 -3.9192
   64SAPC  H12Y 5245  -0.441   4.628   7.766 -0.1533  0.9198 -2.3527
   64SAPC  C313 5246  -0.410   4.760   7.945  0.4919 -0.5128  0.0957
   64SAPC  H13X 5247  -0.512   4.791   7.977 -0.2206 -2.9304  0.4302
   64SAPC  H13Y 5248  -0.335   4.833   7.982  0.8239 -0.6291 -0.3358
   64SAPC  C314 5249  -0.414   4.633   8.026 -0.2819  0.0870 -0.3424
   64SAPC  H14X 5250  -0.335   4.559   8.001  0.4346 -0.0326  2.0853
   64SAPC  H14Y 5251  -0.507   4.577   8.003  0.9848 -1.8708 -0.9010
   64SAPC  C315 5252  -0.423   4.664   8.177 -0.6664 -0.8214 -0.0019
   64SAPC  H15X 5253  -0.505   4.739   8.187 -0.3386 -0.2444 -1.3903
   64SAPC  H15Y 5254  -0.332   4.714   8.216 -0.5439 -1.2469  0.2565
   64SAPC  C316 5255  -0.429   4.541   8.268  0.2404 -0.2151 -0.2398
   64SAPC  H16X 5256  -0.328   4.495   8.271  0.8288  1.1068  1.9690
   64SAPC  H16Y 5257  -0.506   4.468   8.237 -0.1197  0.2118 -0.3563
   64SAPC  C317 5258  -0.456   4.564   8.418 -0.3828 -0.0475 -0.7018
   64SAPC  H17X 5259  -0.374   4.635   8.441 -2.2397  1.6320  1.1451
   64SAPC  H17Y 5260  -0.444   4.477   8.486  2.3139  2.4311  2.3435
   64SAPC  C318 5261  -0.593   4.630   8.446  0.7902 -0.1676 -0.0094
   64SAPC  H18X 5262  -0.593   4.732   8.402  3.5968  0.1277  0.4522
   64SAPC  H18Y 5263  -0.613   4.633   8.555 -2.9454  3.6880 -0.5154
   64SAPC  H18Z 5264  -0.676   4.579   8.393  0.5112  1.6619 -1.4688
   65SAPC     N 5265   1.230   6.045   5.628  0.2820 -0.3869 -0.2841
   65SAPC   C12 5266   1.100   6.122   5.608 -0.6565  0.4925  1.3941
   65SAPC  H12A 5267   1.029   6.059   5.557 -0.9561  2.0656 -0.2147
   65SAPC  H12B 5268   1.119   6.202   5.538 -2.4023 -0.8825 -0.7875
   65SAPC   C13 5269   1.214   5.926   5.723  0.4793  0.1855 -0.4645
   65SAPC  H13A 5270   1.127   5.869   5.695  0.4306  0.7672 -1.5505
   65SAPC  H13B 5271   1.298   5.858   5.726  0.2479 -0.1996 -1.8540
   65SAPC  H13C 5272   1.198   5.958   5.825  1.2798 -1.7361  0.3276
   65SAPC   C14 5273   1.275   5.982   5.499 -0.4183  0.5150  0.6699
   65SAPC  H14A 5274   1.324   6.055   5.436 -2.2225  0.0454 -1.4169
   65SAPC  H14B 5275   1.344   5.900   5.515 -1.7950 -0.6836  0.6586
   65SAPC  H14C 5276   1.200   5.946   5.430  2.3684  0.9614 -2.8738
   65SAPC   C15 5277   1.334   6.130   5.680 -0.1625  0.2016  0.1020
   65SAPC  H15A 5278   1.414   6.069   5.720 -0.6400 -0.8447 -0.4746
   65SAPC  H15B 5279   1.374   6.207   5.615  1.5308 -1.0032 -0.3583
   65SAPC  H15C 5280   1.299   6.181   5.768 -1.0996 -3.3532  1.9815
   65SAPC   C11 5281   1.028   6.188   5.726 -0.0404 -0.0925  0.0009
   65SAPC  H11A 5282   1.016   6.112   5.806 -0.0724  0.8979  0.9431
   65SAPC  H11B 5283   0.929   6.223   5.688  1.3762  3.3854 -0.8968
   65SAPC     P 5284   1.081   6.381   5.903 -0.1574  0.4410 -0.6974
   65SAPC   O13 5285   1.214   6.392   5.970  0.6837  0.6917 -0.1364
   65SAPC   O14 5286   1.002   6.501   5.874  0.1036 -0.1457  0.1311
   65SAPC   O12 5287   1.097   6.303   5.771 -0.5685 -0.2860  0.5449
   65SAPC   O11 5288   0.989   6.286   5.991  0.5532  0.1594 -0.2951
   65SAPC    C1 5289   0.848   6.293   5.999 -0.2906  0.1075  0.9040
   65SAPC    HA 5290   0.815   6.371   5.927  3.4626  1.3518  0.3239
   65SAPC    HB 5291   0.790   6.201   5.977 -1.0033  0.7173  0.1728
   65SAPC    C2 5292   0.827   6.351   6.139  0.2203  0.4079 -0.2155
   65SAPC    HS 5293   0.894   6.440   6.140 -0.8427  1.2378 -0.6907
   65SAPC   O21 5294   0.866   6.254   6.228  0.2996 -0.3133 -0.2259
   65SAPC   C21 5295   0.922   6.308   6.334  0.1229 -0.0736 -0.5510
   65SAPC   O22 5296   0.938   6.423   6.362  0.4084 -0.5552  0.3124
   65SAPC   C22 5297   0.958   6.194   6.435 -0.2668  0.2627  0.6995
   65SAPC   H2R 5298   0.919   6.098   6.395 -1.7785  1.0115  0.2805
   65SAPC   H2S 5299   1.068   6.202   6.433 -0.2737  0.2253 -0.6487
   65SAPC    C3 5300   0.678   6.403   6.162 -0.0443  0.1263  0.8204
   65SAPC    HX 5301   0.605   6.321   6.147 -1.0957  1.1648  0.0989
   65SAPC    HY 5302   0.657   6.475   6.080  0.5700  0.4759  0.9605
   65SAPC   O31 5303   0.659   6.467   6.288  0.6157  0.3117 -0.1400
   65SAPC   C31 5304   0.695   6.594   6.304  0.2068  0.3295  0.0946
   65SAPC   O32 5305   0.749   6.665   6.223 -0.0220 -0.2923 -0.0085
   65SAPC   C32 5306   0.649   6.630   6.442 -0.2414 -0.1601 -0.2378
   65SAPC   H2X 5307   0.661   6.539   6.504 -0.5375  0.5468  0.8879
   65SAPC   H2Y 5308   0.546   6.671   6.434  0.4553  1.5229 -1.0980
   65SAPC   C23 5309   0.905   6.222   6.573 -0.3183 -0.1087  0.4102
   65SAPC   H3R 5310   0.948   6.313   6.620  1.1095 -0.7752  0.4518
   65SAPC   H3S 5311   0.941   6.136   6.633  0.7040 -0.1372 -0.2109
   65SAPC   C24 5312   0.750   6.229   6.574 -0.3831  0.4825  0.3211
   65SAPC   H4R 5313   0.720   6.125   6.548  1.3969 -0.5575  2.2143
   65SAPC   H4S 5314   0.700   6.297   6.501 -2.0427 -0.2594  0.7183
   65SAPC   C25 5315   0.699   6.263   6.710  0.0627 -0.0313 -0.5463
   65SAPC   H5R 5316   0.743   6.352   6.756  0.2508 -1.2123  1.7029
   65SAPC   C26 5317   0.612   6.189   6.785  0.5085  0.4518  0.2405
   65SAPC   H6R 5318   0.577   6.218   6.886 -1.0067 -2.7598  0.7562
   65SAPC   C27 5319   0.553   6.056   6.741  0.0950 -0.2439 -0.2299
   65SAPC   H7R 5320   0.623   5.977   6.775  0.5957  0.0251 -0.6203
   65SAPC   H7S 5321   0.554   6.051   6.630 -1.9273  2.7619 -0.5133
   65SAPC   C28 5322   0.416   6.019   6.786  1.0580  0.4969 -0.1974
   65SAPC   H8R 5323   0.337   6.010   6.710  1.8018  1.1384 -1.0637
   65SAPC   C29 5324   0.387   6.008   6.918 -0.2058  0.1025  0.4533
   65SAPC   H9R 5325   0.283   5.987   6.946 -0.0276  0.5181  1.4752
   65SAPC  C210 5326   0.465   6.021   7.045  0.4435  0.6118  0.0044
   65SAPC  H10R 5327   0.574   6.022   7.026  0.7957  0.7520  1.7813
   65SAPC  H10S 5328   0.437   5.928   7.100  0.0896  2.0029  2.3239
   65SAPC  C211 5329   0.423   6.140   7.132  0.0814  1.3155  0.1945
   65SAPC  H11R 5330   0.371   6.218   7.074 -0.3703 -0.6589 -2.2481
   65SAPC  C212 5331   0.446   6.151   7.260  0.2092 -1.0239 -0.4767
   65SAPC  H12R 5332   0.408   6.240   7.312  0.8311 -0.0499 -1.6252
   65SAPC  C213 5333   0.507   6.038   7.344  0.2617 -0.3207 -0.0047
   65SAPC  H13R 5334   0.566   5.964   7.287  2.4111 -1.6201  3.5890
   65SAPC  H13S 5335   0.422   5.976   7.379  0.6646 -0.9617 -0.1544
   65SAPC  C214 5336   0.586   6.090   7.466  0.3302 -0.5994 -0.0168
   65SAPC  H14R 5337   0.659   6.162   7.429 -1.2956  0.3074 -1.6207
   65SAPC  C215 5338   0.559   6.071   7.603 -0.4351 -0.5018  0.0773
   65SAPC  H15R 5339   0.626   6.120   7.676 -1.0404  2.1444 -1.0224
   65SAPC  C216 5340   0.462   5.976   7.666 -0.5583 -0.1548  0.0122
   65SAPC  H16R 5341   0.482   5.870   7.639 -2.7439 -0.3719 -0.9458
   65SAPC  H16S 5342   0.365   6.003   7.621 -0.4474 -1.3248 -0.9798
   65SAPC  C217 5343   0.453   5.993   7.824  0.3974  0.0380 -0.4728
   65SAPC  H17R 5344   0.552   5.963   7.863 -0.2152  2.1168  3.0801
   65SAPC  H17S 5345   0.374   5.924   7.858  1.8612 -0.5309  1.9745
   65SAPC  C218 5346   0.402   6.133   7.865  0.1846  0.4235 -0.3310
   65SAPC  H18R 5347   0.303   6.149   7.817 -0.0721 -0.4362 -0.1209
   65SAPC  H18S 5348   0.471   6.213   7.830  1.1629 -0.8681 -1.4928
   65SAPC  C219 5349   0.387   6.150   8.018 -0.4853 -0.0986 -0.7446
   65SAPC  H19R 5350   0.480   6.152   8.079 -0.9845  2.2683  0.0407
   65SAPC  H19S 5351   0.321   6.067   8.052  0.7634 -0.4300  0.9970
   65SAPC  C220 5352   0.306   6.275   8.062  0.0065 -0.4204 -0.7416
   65SAPC  H20R 5353   0.215   6.281   7.998 -0.3175 -1.2565 -0.3830
   65SAPC  H20S 5354   0.367   6.367   8.063  0.0272 -0.3048  2.9112
   65SAPC  H20T 5355   0.287   6.261   8.171  2.4742 -0.4095 -0.2565
   65SAPC   C33 5356   0.739   6.726   6.515 -0.2669 -0.3636 -0.2165
   65SAPC   H3X 5357   0.688   6.805   6.574  5.1416  0.3774  4.3205
   65SAPC   H3Y 5358   0.802   6.787   6.447 -0.3390  1.1124  1.0020
   65SAPC   C34 5359   0.844   6.653   6.597 -0.7093 -0.1460  0.4226
   65SAPC   H4X 5360   0.891   6.567   6.545  1.4711  0.7999  0.6796
   65SAPC   H4Y 5361   0.794   6.617   6.690 -0.5470  0.6883  0.8460
   65SAPC   C35 5362   0.968   6.737   6.637 -0.2730  0.0284  0.4305
   65SAPC   H5X 5363   0.930   6.826   6.692 -1.0280 -0.7393  1.1617
   65SAPC   H5Y 5364   1.017   6.765   6.541  1.1787 -0.4568  1.0070
   65SAPC   C36 5365   1.074   6.665   6.729 -0.3517  0.3467  0.0964
   65SAPC   H6X 5366   1.075   6.559   6.695 -2.1895  0.1650  0.4820
   65SAPC   H6Y 5367   1.042   6.664   6.836 -0.8390  0.5716 -0.0405
   65SAPC   C37 5368   1.210   6.726   6.714 -0.0155 -0.9422  0.6631
   65SAPC   H7X 5369   1.209   6.837   6.724  1.6777 -0.7932 -0.3664
   65SAPC   H7Y 5370   1.246   6.697   6.613  2.3385 -0.7510  1.3782
   65SAPC   C38 5371   1.308   6.682   6.820  0.3700 -0.1340  0.9121
   65SAPC   H8X 5372   1.403   6.723   6.780 -0.7191  0.4879 -1.1967
   65SAPC   H8Y 5373   1.296   6.572   6.825  0.0811 -0.4188 -2.8610
   65SAPC   C39 5374   1.281   6.741   6.958 -0.2683 -0.4808 -0.1236
   65SAPC   H9X 5375   1.178   6.720   6.993  0.4136 -3.0023  0.6137
   65SAPC   H9Y 5376   1.301   6.850   6.951  1.0781 -0.7484 -0.8402
   65SAPC  C310 5377   1.384   6.690   7.063 -0.0772  0.0463 -0.9029
   65SAPC  H10X 5378   1.369   6.731   7.165 -1.2320 -3.9188  0.7097
   65SAPC  H10Y 5379   1.489   6.720   7.041 -0.1848 -0.2528 -1.9045
   65SAPC  C311 5380   1.396   6.534   7.096  0.2091  0.3724  0.2293
   65SAPC  H11X 5381   1.487   6.521   7.159  1.2188 -1.0040 -1.4103
   65SAPC  H11Y 5382   1.422   6.489   6.998 -0.6015  2.1914 -0.8821
   65SAPC  C312 5383   1.280   6.468   7.168 -0.2328 -0.6130 -0.4676
   65SAPC  H12X 5384   1.270   6.365   7.129  0.7582 -0.7205 -0.4541
   65SAPC  H12Y 5385   1.192   6.529   7.137  1.3228  2.7081  1.1145
   65SAPC  C313 5386   1.314   6.475   7.321 -0.3764 -0.1632  0.4138
   65SAPC  H13X 5387   1.336   6.583   7.338  0.1904 -0.1848 -0.1526
   65SAPC  H13Y 5388   1.400   6.412   7.350  0.7913  0.3713 -1.6920
   65SAPC  C314 5389   1.188   6.437   7.398  0.8299  0.2654 -0.7144
   65SAPC  H14X 5390   1.198   6.447   7.509 -0.3606  0.1648 -0.5868
   65SAPC  H14Y 5391   1.182   6.327   7.387  0.9579  0.1117  0.5166
   65SAPC  C315 5392   1.053   6.499   7.365 -0.2686  0.2925 -0.2124
   65SAPC  H15X 5393   1.020   6.464   7.264 -2.3417  0.1576  0.4551
   65SAPC  H15Y 5394   1.074   6.607   7.356 -0.7913  0.6342  2.0996
   65SAPC  C316 5395   0.943   6.466   7.466  0.0198 -0.4308 -0.2630
   65SAPC  H16X 5396   0.963   6.521   7.560 -0.4093 -3.5418  1.7884
   65SAPC  H16Y 5397   0.961   6.364   7.506 -1.3063 -1.2352 -1.6153
   65SAPC  C317 5398   0.800   6.492   7.433  0.0930  0.1192  0.7656
   65SAPC  H17X 5399   0.736   6.480   7.523 -2.1543 -2.5579 -1.0198
   65SAPC  H17Y 5400   0.756   6.414   7.367  1.7131  0.7395 -1.1651
   65SAPC  C318 5401   0.763   6.624   7.370  0.5888 -0.6399  0.4497
   65SAPC  H18X 5402   0.809   6.701   7.435  1.2630 -0.7782  0.1493
   65SAPC  H18Y 5403   0.653   6.641   7.372  0.3607 -1.8802 -0.4135
   65SAPC  H18Z 5404   0.804   6.641   7.267 -0.5168 -0.6690 -0.0073
   66SAPC     N 5405   3.907   4.985   5.990 -0.6582 -0.1570  0.1270
   66SAPC   C12 5406   3.916   5.125   6.063 -0.5710 -0.1491  0.3300
   66SAPC  H12A 5407   3.910   5.125   6.171 -0.6688  1.2349  0.3415
   66SAPC  H12B 5408   3.842   5.195   6.027 -1.2354  0.3530  2.5147
   66SAPC   C13 5409   3.983   4.997   5.859  0.4465  0.3239 -0.9675
   66SAPC  H13A 5410   3.974   4.902   5.809  1.4709 -0.8204  0.9349
   66SAPC  H13B 5411   3.938   5.076   5.800  0.3738 -0.1201 -1.5078
   66SAPC  H13C 5412   4.087   5.025   5.870  0.4005  0.5519 -1.0917
   66SAPC   C14 5413   3.971   4.882   6.072  0.4951  0.0380 -0.3041
   66SAPC  H14A 5414   3.914   4.852   6.158  0.9816  0.3323  0.1280
   66SAPC  H14B 5415   4.009   4.790   6.032  3.6593  0.8838  0.5032
   66SAPC  H14C 5416   4.059   4.927   6.114  0.8290 -1.3851  0.5558
   66SAPC   C15 5417   3.760   4.953   5.972 -0.5014  0.3292  0.9630
   66SAPC  H15A 5418   3.751   4.861   5.916  0.4913  0.9195 -0.2318
   66SAPC  H15B 5419   3.700   4.944   6.061 -0.2494 -2.0722  0.9741
   66SAPC  H15C 5420   3.711   5.026   5.909 -0.1916 -0.3095 -0.0459
   66SAPC   C11 5421   4.043   5.216   6.028 -0.6069  0.3127  0.2810
   66SAPC  H11A 5422   4.027   5.311   6.084 -0.2238  0.0145  0.8942
   66SAPC  H11B 5423   4.041   5.253   5.923  1.8057 -0.4786 -0.1002
   66SAPC     P 5424   4.228   5.162   6.203  0.5641  0.3332 -0.1976
   66SAPC   O13 5425   4.305   5.038   6.226  0.4044 -0.1354  0.6258
   66SAPC   O14 5426   4.308   5.281   6.211 -0.1589 -0.0858  0.3646
   66SAPC   O12 5427   4.165   5.146   6.052 -0.3850  0.3823 -0.7448
   66SAPC   O11 5428   4.091   5.159   6.296 -0.1533 -0.1700  0.4003
   66SAPC    C1 5429   4.040   5.277   6.355  0.1863  0.2087 -0.7404
   66SAPC    HA 5430   4.042   5.355   6.276 -0.7208 -2.4920 -3.6410
   66SAPC    HB 5431   3.934   5.264   6.383  0.7447  1.4472  2.3245
   66SAPC    C2 5432   4.104   5.311   6.498 -0.2528 -0.0156  0.2387
   66SAPC    HS 5433   4.212   5.333   6.485  0.0968 -1.3244  0.8094
   66SAPC   O21 5434   4.078   5.205   6.590  0.0906 -0.3945 -0.3929
   66SAPC   C21 5435   4.171   5.114   6.596  0.3518  0.5261 -0.9601
   66SAPC   O22 5436   4.274   5.116   6.537 -0.6656  0.2020  0.5573
   66SAPC   C22 5437   4.120   5.013   6.700 -0.1521  0.3382  0.0413
   66SAPC   H2R 5438   4.033   5.058   6.753  0.5544  1.2673  0.4238
   66SAPC   H2S 5439   4.085   4.921   6.648 -0.5942  1.3271 -1.4696
   66SAPC    C3 5440   4.043   5.443   6.554  0.4901 -0.0590 -0.2907
   66SAPC    HX 5441   3.936   5.418   6.569  0.8478 -1.8099 -0.4354
   66SAPC    HY 5442   4.045   5.522   6.475  1.5434  0.0512 -0.1696
   66SAPC   O31 5443   4.101   5.497   6.679 -0.3553  0.1876 -0.1324
   66SAPC   C31 5444   4.227   5.530   6.664 -0.6254 -0.5611 -0.4243
   66SAPC   O32 5445   4.290   5.556   6.561  0.1487  0.2987 -0.1308
   66SAPC   C32 5446   4.294   5.517   6.806  0.6662 -0.3311  0.4901
   66SAPC   H2X 5447   4.275   5.609   6.866  3.2064 -0.2108  1.2159
   66SAPC   H2Y 5448   4.403   5.518   6.786  0.2378  0.9671 -2.3198
   66SAPC   C23 5449   4.222   4.979   6.814  0.3888  0.2734  0.6796
   66SAPC   H3R 5450   4.320   5.031   6.810 -0.0891  1.4332  2.6182
   66SAPC   H3S 5451   4.244   4.872   6.795 -0.3035  0.4006 -0.9964
   66SAPC   C24 5452   4.171   5.000   6.964 -0.3187  0.1290  0.7135
   66SAPC   H4R 5453   4.138   5.105   6.971 -2.2849 -0.3746 -0.3098
   66SAPC   H4S 5454   4.262   4.994   7.029 -1.0824  0.5076  1.8448
   66SAPC   C25 5455   4.066   4.905   7.007 -0.1244  0.3071  0.3584
   66SAPC   H5R 5456   3.987   4.890   6.932  0.6833  1.3808 -0.7456
   66SAPC   C26 5457   4.059   4.855   7.128  0.7475  0.4943 -0.1291
   66SAPC   H6R 5458   3.986   4.773   7.138 -1.2938  2.3900  1.4551
   66SAPC   C27 5459   4.154   4.870   7.239 -0.1465  1.1056 -0.1432
   66SAPC   H7R 5460   4.126   4.964   7.291 -0.4269  1.1562 -0.3864
   66SAPC   H7S 5461   4.257   4.872   7.197 -0.3679 -1.4571 -1.0053
   66SAPC   C28 5462   4.172   4.750   7.326  0.3092  0.4726  0.1504
   66SAPC   H8R 5463   4.080   4.695   7.349  0.9041 -0.5040  0.2395
   66SAPC   C29 5464   4.288   4.698   7.368 -0.5101 -0.0514  0.2487
   66SAPC   H9R 5465   4.278   4.603   7.423  0.5843 -1.9434 -2.6050
   66SAPC  C210 5466   4.431   4.757   7.357  0.2916 -0.1447 -0.5876
   66SAPC  H10R 5467   4.421   4.867   7.344  0.0033 -0.2659 -1.4434
   66SAPC  H10S 5468   4.474   4.711   7.265 -0.8518 -2.9798  0.1890
   66SAPC  C211 5469   4.523   4.723   7.471 -1.4058  0.7339  0.0426
   66SAPC  H11R 5470   4.579   4.629   7.461  1.9978  2.7177 -1.2818
   66SAPC  C212 5471   4.543   4.787   7.585 -0.3200  0.4486  0.3303
   66SAPC  H12R 5472   4.618   4.765   7.662 -0.9931  0.9626  1.1548
   66SAPC  C213 5473   4.481   4.917   7.609 -0.0423 -0.8212 -0.3853
   66SAPC  H13R 5474   4.386   4.933   7.553  0.1130 -0.1388 -0.4630
   66SAPC  H13S 5475   4.546   5.002   7.576 -0.0007 -0.7600 -0.1441
   66SAPC  C214 5476   4.464   4.944   7.753 -0.0548 -0.5884  0.4108
   66SAPC  H14R 5477   4.540   5.006   7.803 -0.2584 -0.4422  0.5400
   66SAPC  C215 5478   4.364   4.897   7.824  0.3116  0.1758  0.2932
   66SAPC  H15R 5479   4.356   4.920   7.932  1.2651  1.0768  0.1874
   66SAPC  C216 5480   4.244   4.815   7.774 -0.5422 -0.4898  0.0315
   66SAPC  H16R 5481   4.274   4.769   7.678  1.5710 -1.5848  1.1347
   66SAPC  H16S 5482   4.151   4.875   7.770 -0.7254 -0.8476 -1.8976
   66SAPC  C217 5483   4.216   4.696   7.864 -0.8107  0.4227 -0.1463
   66SAPC  H17R 5484   4.308   4.636   7.849 -0.1872  1.6790 -1.6931
   66SAPC  H17S 5485   4.134   4.634   7.822 -2.9362  3.5764 -1.0479
   66SAPC  C218 5486   4.183   4.739   8.006  0.1419 -0.2554  0.8772
   66SAPC  H18R 5487   4.119   4.830   8.010  1.2522  0.6830 -1.2620
   66SAPC  H18S 5488   4.270   4.761   8.071  0.9111 -0.3083 -0.1040
   66SAPC  C219 5489   4.104   4.641   8.080  0.4363  0.2856 -0.2399
   66SAPC  H19R 5490   4.170   4.552   8.069  1.6891  1.1342  0.1946
   66SAPC  H19S 5491   4.012   4.622   8.020  0.6621 -0.6216 -0.3151
   66SAPC  C220 5492   4.065   4.677   8.224 -0.7169 -0.2732 -0.4949
   66SAPC  H20R 5493   4.024   4.597   8.288  0.8024  0.0731  0.9990
   66SAPC  H20S 5494   3.996   4.764   8.220 -0.4730 -0.1262 -1.8704
   66SAPC  H20T 5495   4.154   4.715   8.279 -0.9821  0.8587 -0.8238
   66SAPC   C33 5496   4.259   5.399   6.887 -0.8246  0.1354 -0.7032
   66SAPC   H3X 5497   4.268   5.298   6.842 -0.0581 -0.6866  1.1765
   66SAPC   H3Y 5498   4.152   5.409   6.913 -0.4014  1.8002  0.5655
   66SAPC   C34 5499   4.356   5.390   7.015  0.5123 -0.4803  0.2859
   66SAPC   H4X 5500   4.354   5.496   7.047 -2.1481 -0.8397  1.5915
   66SAPC   H4Y 5501   4.465   5.376   6.994  0.6752  2.2878 -1.1260
   66SAPC   C35 5502   4.303   5.307   7.134  0.0900 -0.4187 -0.0728
   66SAPC   H5X 5503   4.312   5.198   7.118  1.7057 -0.4178  0.5833
   66SAPC   H5Y 5504   4.197   5.326   7.161 -0.5838 -3.4571 -0.2380
   66SAPC   C36 5505   4.384   5.328   7.263  0.1795 -0.4431 -0.5016
   66SAPC   H6X 5506   4.355   5.423   7.313 -0.1552 -1.5317  1.5154
   66SAPC   H6Y 5507   4.485   5.349   7.224  0.3954 -1.7525 -0.7100
   66SAPC   C37 5508   4.395   5.214   7.370 -0.3169  0.7629  0.5434
   66SAPC   H7X 5509   4.462   5.128   7.348  1.2720  1.6638  1.6470
   66SAPC   H7Y 5510   4.292   5.173   7.377  0.3320 -1.0681 -0.0247
   66SAPC   C38 5511   4.426   5.268   7.512  0.2724  0.0808  0.1157
   66SAPC   H8X 5512   4.385   5.197   7.587 -0.2993 -0.4970 -0.7236
   66SAPC   H8Y 5513   4.367   5.362   7.523  0.4522  0.2210 -0.1049
   66SAPC   C39 5514   4.572   5.293   7.533 -0.5608  0.6283 -0.0230
   66SAPC   H9X 5515   4.589   5.384   7.472 -1.7060  0.7344 -0.1989
   66SAPC   H9Y 5516   4.629   5.212   7.481 -0.2440  0.3815  0.6897
   66SAPC  C310 5517   4.619   5.309   7.677 -0.0159  0.4247 -0.4920
   66SAPC  H10X 5518   4.730   5.308   7.683  0.0238  1.2249 -0.9201
   66SAPC  H10Y 5519   4.593   5.211   7.723 -1.8291 -0.3280 -2.9187
   66SAPC  C311 5520   4.563   5.432   7.753 -0.6002  0.4051  0.8050
   66SAPC  H11X 5521   4.452   5.434   7.764 -0.9091 -0.8193 -1.4994
   66SAPC  H11Y 5522   4.569   5.528   7.697 -1.9856 -0.3362 -0.7185
   66SAPC  C312 5523   4.632   5.444   7.891  0.3329  0.1327 -0.1028
   66SAPC  H12X 5524   4.738   5.457   7.861  0.0416 -0.9490 -1.7045
   66SAPC  H12Y 5525   4.616   5.353   7.953 -1.1706  0.6599  0.3368
   66SAPC  C313 5526   4.568   5.559   7.972  0.3326 -0.3206 -0.4452
   66SAPC  H13X 5527   4.475   5.522   8.019 -0.9099  0.2747 -2.3160
   66SAPC  H13Y 5528   4.555   5.646   7.904  2.1654  1.0292  0.8127
   66SAPC  C314 5529   4.661   5.611   8.086 -0.3587 -0.2538 -0.2929
   66SAPC  H14X 5530   4.750   5.658   8.039 -0.9713  1.5371  0.2484
   66SAPC  H14Y 5531   4.697   5.525   8.146  0.9225 -0.4432 -1.2781
   66SAPC  C315 5532   4.604   5.724   8.168  0.0855 -0.9648 -0.4937
   66SAPC  H15X 5533   4.512   5.689   8.221 -0.8116  1.1792 -0.5348
   66SAPC  H15Y 5534   4.571   5.804   8.098 -0.2885 -1.4771 -0.9263
   66SAPC  C316 5535   4.701   5.786   8.261  0.5545 -0.0656 -0.1045
   66SAPC  H16X 5536   4.794   5.801   8.201  0.3330 -0.0325 -0.4462
   66SAPC  H16Y 5537   4.724   5.714   8.342  3.7465  0.8426 -0.0484
   66SAPC  C317 5538   4.645   5.917   8.322 -0.4136  0.0242  0.7236
   66SAPC  H17X 5539   4.577   5.881   8.403  0.6285 -1.6602  0.9045
   66SAPC  H17Y 5540   4.587   5.976   8.248 -1.8393 -0.9378  1.0294
   66SAPC  C318 5541   4.741   6.014   8.402 -0.2194  0.2760 -0.4614
   66SAPC  H18X 5542   4.815   5.959   8.464 -0.4537  3.2002  2.6678
   66SAPC  H18Y 5543   4.690   6.090   8.465 -1.0855 -0.5343 -0.1610
   66SAPC  H18Z 5544   4.798   6.083   8.336  1.8180 -0.8055  0.0813
   67SAPC     N 5545   1.806   1.218   6.353 -0.3911  0.0635  0.5275
   67SAPC   C12 5546   1.781   1.162   6.497 -0.5593 -0.5672  0.2431
   67SAPC  H12A 5547   1.686   1.197   6.535 -0.9971 -1.8375  0.3793
   67SAPC  H12B 5548   1.859   1.199   6.562 -1.6061 -1.0244  1.8107
   67SAPC   C13 5549   1.795   1.372   6.348  0.3846  0.2905 -0.4304
   67SAPC  H13A 5550   1.800   1.408   6.246  1.1900 -1.7519 -1.1775
   67SAPC  H13B 5551   1.700   1.401   6.389  1.0704  2.0344 -0.0119
   67SAPC  H13C 5552   1.874   1.420   6.403  1.2233 -1.7337  0.2180
   67SAPC   C14 5553   1.935   1.166   6.293 -0.2534 -0.3881  1.1078
   67SAPC  H14A 5554   1.931   1.177   6.186 -2.1378  2.0897  1.3343
   67SAPC  H14B 5555   2.032   1.200   6.328  0.7631 -0.4231 -1.4362
   67SAPC  H14C 5556   1.936   1.060   6.313  1.6783 -1.0647 -1.9667
   67SAPC   C15 5557   1.699   1.165   6.260  0.2513 -0.8403  0.3669
   67SAPC  H15A 5558   1.607   1.222   6.265  0.0903 -0.8181 -1.9185
   67SAPC  H15B 5559   1.728   1.179   6.157  0.2391 -0.3898  0.4224
   67SAPC  H15C 5560   1.687   1.061   6.286  1.1909 -0.8005  0.9823
   67SAPC   C11 5561   1.785   1.016   6.518  0.5853 -0.5198 -0.6471
   67SAPC  H11A 5562   1.759   1.000   6.625 -0.4591 -0.2066 -0.8434
   67SAPC  H11B 5563   1.888   0.980   6.496 -0.2595 -1.6123 -3.0964
   67SAPC     P 5564   1.593   0.834   6.468  0.1727 -0.1767 -0.1681
   67SAPC   O13 5565   1.462   0.845   6.401 -0.1791 -0.4098  0.0857
   67SAPC   O14 5566   1.662   0.705   6.434 -0.1656 -0.0424 -0.2880
   67SAPC   O12 5567   1.684   0.958   6.440 -0.7443  0.0625 -0.1749
   67SAPC   O11 5568   1.574   0.843   6.626  0.4035 -0.2393 -0.7744
   67SAPC    C1 5569   1.482   0.942   6.662 -0.2822  0.6232 -0.5434
   67SAPC    HA 5570   1.536   1.039   6.657 -1.0345  1.1356  0.7237
   67SAPC    HB 5571   1.387   0.948   6.605 -0.0757 -0.5473 -1.0368
   67SAPC    C2 5572   1.438   0.919   6.812  0.7926 -0.2601  0.3605
   67SAPC    HS 5573   1.526   0.929   6.880  0.9610  0.1852  0.0840
   67SAPC   O21 5574   1.365   0.796   6.835  0.2136 -0.2368 -0.1072
   67SAPC   C21 5575   1.450   0.693   6.866  0.2055 -0.3793  0.6459
   67SAPC   O22 5576   1.571   0.690   6.856 -0.1193 -0.4408 -0.0430
   67SAPC   C22 5577   1.363   0.580   6.915 -0.2571  0.0572  0.4778
   67SAPC   H2R 5578   1.306   0.532   6.833  0.0517 -0.1055  0.3556
   67SAPC   H2S 5579   1.435   0.497   6.928 -1.2636 -1.2025 -1.5342
   67SAPC    C3 5580   1.343   1.043   6.840 -0.1401  0.1410  0.2906
   67SAPC    HX 5581   1.248   1.038   6.783  0.1788  1.7938 -0.4488
   67SAPC    HY 5582   1.394   1.136   6.806  0.2263  1.2900  3.5599
   67SAPC   O31 5583   1.301   1.047   6.974  0.1513 -0.4929 -0.2560
   67SAPC   C31 5584   1.373   1.108   7.059  0.5187  0.1155  0.8288
   67SAPC   O32 5585   1.468   1.181   7.031  0.7999 -0.4299 -0.2422
   67SAPC   C32 5586   1.342   1.071   7.202  0.0428 -0.7349  0.2011
   67SAPC   H2X 5587   1.310   0.965   7.209 -0.8757 -0.4874 -0.1140
   67SAPC   H2Y 5588   1.273   1.145   7.248 -0.1226  0.9604 -2.5229
   67SAPC   C23 5589   1.284   0.615   7.038 -0.2794  0.2587 -0.1951
   67SAPC   H3R 5590   1.222   0.527   7.067 -0.9946  0.4964 -0.9627
   67SAPC   H3S 5591   1.214   0.698   7.016 -0.6296 -0.5046 -2.1402
   67SAPC   C24 5592   1.374   0.649   7.152 -0.4128 -0.2971  0.0670
   67SAPC   H4R 5593   1.300   0.679   7.230 -0.6009  0.2152 -0.2968
   67SAPC   H4S 5594   1.431   0.745   7.148  1.1077 -0.9860  2.7234
   67SAPC   C25 5595   1.470   0.538   7.198  0.9772  0.0668 -0.4170
   67SAPC   H5R 5596   1.553   0.526   7.128  0.9523 -1.4262 -0.2190
   67SAPC   C26 5597   1.485   0.470   7.320  0.3800  0.2006 -0.0701
   67SAPC   H6R 5598   1.549   0.380   7.316  0.3388  0.2177 -2.0665
   67SAPC   C27 5599   1.411   0.492   7.454 -1.0796 -0.5583  0.0968
   67SAPC   H7R 5600   1.306   0.459   7.439 -1.3609  0.3122  0.0963
   67SAPC   H7S 5601   1.409   0.602   7.468  1.9806 -0.3312 -0.5563
   67SAPC   C28 5602   1.478   0.430   7.571  0.1087  0.3266  0.2862
   67SAPC   H8R 5603   1.580   0.460   7.598 -0.4835  0.3338  2.7784
   67SAPC   C29 5604   1.421   0.352   7.663 -0.3490 -0.0229  0.1165
   67SAPC   H9R 5605   1.476   0.301   7.743 -1.6910  0.4210  1.3637
   67SAPC  C210 5606   1.284   0.307   7.653  0.8491  0.7262 -0.6987
   67SAPC  H10R 5607   1.285   0.207   7.605 -1.3533  0.6969 -0.8141
   67SAPC  H10S 5608   1.214   0.370   7.593  0.4676  3.1456  2.0721
   67SAPC  C211 5609   1.225   0.303   7.788 -0.4829  0.3972  0.4398
   67SAPC  H11R 5610   1.270   0.368   7.865  1.1544 -0.8992  0.6364
   67SAPC  C212 5611   1.121   0.228   7.830  0.1547  0.4362  0.0567
   67SAPC  H12R 5612   1.092   0.243   7.935 -0.3097  0.8312 -0.1237
   67SAPC  C213 5613   1.042   0.129   7.749 -0.8622 -0.1724  0.6534
   67SAPC  H13R 5614   1.025   0.031   7.800  0.7814 -0.6622  0.3212
   67SAPC  H13S 5615   1.098   0.097   7.658  0.3585  1.3396  0.8510
   67SAPC  C214 5616   0.914   0.197   7.703 -0.0756  0.0632 -0.6886
   67SAPC  H14R 5617   0.915   0.307   7.697  0.6796  0.1202  0.2048
   67SAPC  C215 5618   0.794   0.140   7.692  0.3229 -0.1083 -0.6371
   67SAPC  H15R 5619   0.712   0.207   7.665 -0.5522 -1.8776 -2.6991
   67SAPC  C216 5620   0.755  -0.005   7.727  0.1896  0.2296  0.5499
   67SAPC  H16R 5621   0.820  -0.083   7.683  0.6957  1.4326 -0.9226
   67SAPC  H16S 5622   0.652  -0.031   7.692  0.1276  0.5436  0.4981
   67SAPC  C217 5623   0.743  -0.032   7.884 -0.4469  0.5029 -0.2000
   67SAPC  H17R 5624   0.820   0.031   7.934  1.1697 -1.7597  0.3158
   67SAPC  H17S 5625   0.763  -0.135   7.919 -1.5276  0.9155  1.7733
   67SAPC  C218 5626   0.603  -0.007   7.933 -0.6232  0.0018  0.2680
   67SAPC  H18R 5627   0.536  -0.069   7.869 -0.3052 -2.1058  1.8405
   67SAPC  H18S 5628   0.576   0.098   7.909  3.0254  0.6698 -1.5384
   67SAPC  C219 5629   0.560  -0.054   8.071 -0.8852 -0.4262 -0.9964
   67SAPC  H19R 5630   0.616  -0.146   8.097  1.4996  1.3519  0.5532
   67SAPC  H19S 5631   0.449  -0.062   8.082 -0.9243  0.3540 -0.7217
   67SAPC  C220 5632   0.592   0.059   8.177 -1.1645  0.7344  0.4090
   67SAPC  H20R 5633   0.537   0.154   8.161 -1.0739  1.8892  5.3100
   67SAPC  H20S 5634   0.702   0.076   8.180 -1.1389  0.4918  2.2581
   67SAPC  H20T 5635   0.576   0.032   8.284  1.7912  0.8469  0.9581
   67SAPC   C33 5636   1.479   1.076   7.277 -0.0260 -0.2285  0.7158
   67SAPC   H3X 5637   1.526   1.176   7.272  1.1189 -0.7073  1.5062
   67SAPC   H3Y 5638   1.556   1.014   7.225  0.7680  2.5161 -1.6411
   67SAPC   C34 5639   1.457   1.023   7.419  0.6418 -0.7447  0.1388
   67SAPC   H4X 5640   1.398   0.928   7.419  1.2778 -1.2109 -2.1046
   67SAPC   H4Y 5641   1.412   1.110   7.471  1.8838  2.2767 -3.3867
   67SAPC   C35 5642   1.586   0.996   7.494  0.2588  0.6994  0.3088
   67SAPC   H5X 5643   1.643   1.091   7.496 -1.0113  1.4798  0.8985
   67SAPC   H5Y 5644   1.644   0.920   7.438 -0.0263  0.4472  0.3556
   67SAPC   C36 5645   1.573   0.944   7.640  0.2843 -0.3273 -0.2875
   67SAPC   H6X 5646   1.510   0.853   7.644 -1.2777  0.7458  0.5596
   67SAPC   H6Y 5647   1.524   1.027   7.695 -0.7916 -0.5727 -0.8604
   67SAPC   C37 5648   1.715   0.921   7.699 -0.1716  0.4668  0.1084
   67SAPC   H7X 5649   1.777   1.012   7.714  1.3662 -0.4425 -0.4967
   67SAPC   H7Y 5650   1.775   0.864   7.625  0.8080 -2.1034  2.6589
   67SAPC   C38 5651   1.709   0.847   7.838 -0.5410 -0.2558  0.8340
   67SAPC   H8X 5652   1.667   0.913   7.916  1.1503  0.4685  1.1825
   67SAPC   H8Y 5653   1.813   0.827   7.873 -0.3290  1.9066  1.5981
   67SAPC   C39 5654   1.638   0.715   7.844  0.3240  0.5331  0.2346
   67SAPC   H9X 5655   1.691   0.642   7.778 -1.4435 -1.9604  1.4097
   67SAPC   H9Y 5656   1.535   0.724   7.804 -0.2054 -0.8822  1.1802
   67SAPC  C310 5657   1.621   0.656   7.982 -0.7528  0.5839 -0.3069
   67SAPC  H10X 5658   1.554   0.729   8.031 -1.5282 -0.4151  0.1511
   67SAPC  H10Y 5659   1.717   0.648   8.036 -1.4330 -2.1126  0.6561
   67SAPC  C311 5660   1.534   0.529   7.979  0.1481 -0.0776 -0.3488
   67SAPC  H11X 5661   1.591   0.444   7.936 -1.2417 -1.4504  0.4000
   67SAPC  H11Y 5662   1.448   0.547   7.911  0.1843 -2.1921 -1.0405
   67SAPC  C312 5663   1.485   0.496   8.122  0.4198 -0.6310 -0.1389
   67SAPC  H12X 5664   1.429   0.584   8.160  0.3334  0.4785 -2.6090
   67SAPC  H12Y 5665   1.574   0.507   8.187 -0.1352  0.4867  0.4765
   67SAPC  C313 5666   1.412   0.362   8.141  0.6941 -0.0668 -0.0459
   67SAPC  H13X 5667   1.451   0.275   8.083 -0.2795 -0.6225  0.1037
   67SAPC  H13Y 5668   1.311   0.384   8.100 -0.2266  0.1938  2.2284
   67SAPC  C314 5669   1.394   0.318   8.294 -0.9445 -0.1288  0.6513
   67SAPC  H14X 5670   1.371   0.403   8.362 -2.5730 -0.4045  0.4897
   67SAPC  H14Y 5671   1.502   0.298   8.314 -0.9329  1.0761  1.9710
   67SAPC  C315 5672   1.292   0.208   8.320  0.9849  0.5080  0.0603
   67SAPC  H15X 5673   1.280   0.190   8.429 -1.3311 -0.4952 -0.2985
   67SAPC  H15Y 5674   1.319   0.111   8.274  0.0677  0.1416  0.2655
   67SAPC  C316 5675   1.144   0.254   8.275 -0.5205  0.5184  0.7447
   67SAPC  H16X 5676   1.133   0.255   8.165 -0.9590  1.5420  0.7882
   67SAPC  H16Y 5677   1.134   0.361   8.303 -1.1383  0.6846 -0.0751
   67SAPC  C317 5678   1.034   0.185   8.353  0.2047  0.9518  0.3506
   67SAPC  H17X 5679   0.940   0.240   8.332  0.6002  1.1493 -0.9807
   67SAPC  H17Y 5680   1.062   0.189   8.460 -1.2416 -2.1454  0.9485
   67SAPC  C318 5681   1.010   0.038   8.300 -0.6503  0.2490 -0.2697
   67SAPC  H18X 5682   1.105  -0.019   8.291 -2.1459 -2.3064 -0.8187
   67SAPC  H18Y 5683   0.943   0.050   8.212 -0.9320  0.1819 -0.0643
   67SAPC  H18Z 5684   0.960  -0.023   8.378 -0.9269 -0.4491 -0.9767
   68SAPC     N 5685   4.436   0.406   5.776 -0.0825  1.2473  0.6812
   68SAPC   C12 5686   4.411   0.425   5.925 -0.2354  0.4010 -0.3641
   68SAPC  H12A 5687   4.492   0.411   5.995 -0.0669  0.2987 -0.5776
   68SAPC  H12B 5688   4.327   0.361   5.949 -1.4887  1.5321 -1.5420
   68SAPC   C13 5689   4.523   0.503   5.717 -0.1608 -0.3605  0.1451
   68SAPC  H13A 5690   4.479   0.600   5.730  0.7041  0.0253  0.2920
   68SAPC  H13B 5691   4.618   0.513   5.767  0.0672 -1.6497 -0.0074
   68SAPC  H13C 5692   4.531   0.490   5.610 -3.7051  1.1958 -0.4348
   68SAPC   C14 5693   4.500   0.274   5.758  0.1189  0.2791 -0.3011
   68SAPC  H14A 5694   4.451   0.190   5.806  2.3873 -2.0911 -1.8538
   68SAPC  H14B 5695   4.505   0.238   5.657 -1.6431 -0.4877 -0.1500
   68SAPC  H14C 5696   4.604   0.279   5.790 -0.2929 -0.5592  1.3065
   68SAPC   C15 5697   4.310   0.406   5.690 -0.5630  0.0169 -0.0054
   68SAPC  H15A 5698   4.271   0.506   5.690  3.6213  1.8505  0.8194
   68SAPC  H15B 5699   4.340   0.387   5.587  0.5137  2.4249 -0.2076
   68SAPC  H15C 5700   4.239   0.327   5.710  0.1420 -1.7950 -3.5929
   68SAPC   C11 5701   4.352   0.565   5.961  0.0558 -0.5653  0.4290
   68SAPC  H11A 5702   4.292   0.566   6.055 -0.0778  1.8102  0.3578
   68SAPC  H11B 5703   4.279   0.596   5.884  0.6605  2.3419  0.9158
   68SAPC     P 5704   4.549   0.688   6.086  0.0804 -0.0654 -0.5031
   68SAPC   O13 5705   4.662   0.596   6.060  0.0760 -0.0655  0.1163
   68SAPC   O14 5706   4.570   0.826   6.103 -0.9654 -0.0781 -0.1173
   68SAPC   O12 5707   4.450   0.666   5.966  0.2204  0.5824 -0.3684
   68SAPC   O11 5708   4.464   0.625   6.202  0.0325 -0.4610 -0.1061
   68SAPC    C1 5709   4.367   0.703   6.278  0.5159 -0.4873  0.6281
   68SAPC    HA 5710   4.326   0.782   6.210 -0.2656 -2.0347 -0.7882
   68SAPC    HB 5711   4.282   0.643   6.317 -1.0025 -0.6774 -2.6222
   68SAPC    C2 5712   4.427   0.775   6.405  0.3329  0.2176  0.8503
   68SAPC    HS 5713   4.479   0.863   6.361  0.9238 -0.3207  0.4645
   68SAPC   O21 5714   4.514   0.679   6.470 -0.6028 -0.4366  0.3068
   68SAPC   C21 5715   4.636   0.715   6.495 -0.0590 -0.1909  0.6246
   68SAPC   O22 5716   4.675   0.831   6.510 -0.3981  0.5710 -0.0320
   68SAPC   C22 5717   4.721   0.589   6.523  0.7335 -0.0611 -0.2834
   68SAPC   H2R 5718   4.704   0.575   6.632 -0.5014  0.7812 -0.3517
   68SAPC   H2S 5719   4.678   0.496   6.479 -1.1988  0.5768  0.1753
   68SAPC    C3 5720   4.318   0.833   6.502 -0.8249  0.2160  0.3231
   68SAPC    HX 5721   4.244   0.753   6.521  1.5192 -2.0764  0.3799
   68SAPC    HY 5722   4.256   0.916   6.461 -0.1133  0.0330 -1.2227
   68SAPC   O31 5723   4.377   0.868   6.632 -0.4314 -0.0318 -0.2183
   68SAPC   C31 5724   4.444   0.981   6.626 -1.2551 -0.1488 -0.4370
   68SAPC   O32 5725   4.455   1.046   6.526 -0.1180  0.4305 -1.1255
   68SAPC   C32 5726   4.508   1.014   6.765 -0.1320  0.4890  0.1508
   68SAPC   H2X 5727   4.523   1.124   6.769 -0.1155  0.4440  1.4958
   68SAPC   H2Y 5728   4.607   0.964   6.771  0.1114  0.6236 -1.8439
   68SAPC   C23 5729   4.869   0.585   6.474 -0.0936  0.4418 -0.3289
   68SAPC   H3R 5730   4.890   0.693   6.457 -2.5521  1.2507  1.1567
   68SAPC   H3S 5731   4.873   0.530   6.378  0.2102  0.8583 -0.5602
   68SAPC   C24 5732   4.958   0.521   6.580  0.6850  0.4898 -0.5726
   68SAPC   H4R 5733   4.944   0.580   6.674 -0.9434 -1.5004  0.5214
   68SAPC   H4S 5734   5.064   0.531   6.550  0.8754 -1.9129 -0.9088
   68SAPC   C25 5735   4.931   0.379   6.620  0.0087 -0.5792 -0.2308
   68SAPC   H5R 5736   4.831   0.344   6.590  0.8673 -0.4731 -3.6092
   68SAPC   C26 5737   5.017   0.300   6.689 -0.1099 -0.1447  0.4316
   68SAPC   H6R 5738   5.005   0.193   6.710 -1.3860  0.1058  1.0220
   68SAPC   C27 5739   5.150   0.352   6.720 -0.0261  0.3281  0.3606
   68SAPC   H7R 5740   5.167   0.334   6.829  2.8961 -0.2236 -0.0934
   68SAPC   H7S 5741   5.155   0.463   6.722 -3.1354  0.5481  0.5703
   68SAPC   C28 5742   5.255   0.281   6.648 -0.7173  0.3496 -0.7024
   68SAPC   H8R 5743   5.222   0.188   6.600 -1.6525 -0.5326  1.4912
   68SAPC   C29 5744   5.384   0.313   6.667  0.0436 -0.1171 -0.1011
   68SAPC   H9R 5745   5.466   0.251   6.630  0.9635  0.8195  0.3156
   68SAPC  C210 5746   5.444   0.427   6.756  0.3323  0.9941  0.0244
   68SAPC  H10R 5747   5.402   0.525   6.724  1.9055  1.6319 -0.1532
   68SAPC  H10S 5748   5.551   0.429   6.728  0.1704 -0.1282 -0.7869
   68SAPC  C211 5749   5.436   0.404   6.902  0.5320  0.0078 -0.0440
   68SAPC  H11R 5750   5.427   0.301   6.939 -0.4755  0.0136 -0.2298
   68SAPC  C212 5751   5.409   0.495   7.000 -0.8626 -0.5812  0.1089
   68SAPC  H12R 5752   5.406   0.460   7.104  0.9122  0.2683  0.4909
   68SAPC  C213 5753   5.389   0.642   6.977  0.1098  0.5225 -0.1520
   68SAPC  H13R 5754   5.292   0.662   7.028  0.3413  0.4245  0.3294
   68SAPC  H13S 5755   5.365   0.670   6.872 -1.4523 -2.6320 -0.7421
   68SAPC  C214 5756   5.499   0.727   7.028  0.6127 -0.1463 -0.1522
   68SAPC  H14R 5757   5.555   0.784   6.952 -0.5181 -0.4154 -1.2196
   68SAPC  C215 5758   5.538   0.748   7.153  0.2419  0.7634  0.2471
   68SAPC  H15R 5759   5.619   0.823   7.162  1.7794 -0.5381 -1.8540
   68SAPC  C216 5760   5.489   0.693   7.284  0.1761  0.3395 -0.7163
   68SAPC  H16R 5761   5.494   0.582   7.287 -0.9261  0.2792  2.3069
   68SAPC  H16S 5762   5.390   0.733   7.314 -1.2538 -3.0219 -0.4763
   68SAPC  C217 5763   5.587   0.733   7.392 -1.1534  0.9991  0.2245
   68SAPC  H17R 5764   5.596   0.844   7.389 -0.2138  0.9717  1.5605
   68SAPC  H17S 5765   5.690   0.702   7.366 -1.7368 -0.5606 -0.3980
   68SAPC  C218 5766   5.551   0.700   7.540  0.6942  0.2861  0.7157
   68SAPC  H18R 5767   5.537   0.590   7.552 -0.7113  0.4076  0.3337
   68SAPC  H18S 5768   5.452   0.740   7.569 -0.2766 -0.1393 -1.8230
   68SAPC  C219 5769   5.652   0.757   7.648  0.6143 -0.0988  0.1471
   68SAPC  H19R 5770   5.663   0.867   7.640 -0.0262 -0.1326 -1.4749
   68SAPC  H19S 5771   5.754   0.722   7.620  0.0411 -0.9389 -0.9784
   68SAPC  C220 5772   5.623   0.696   7.793 -0.6128  0.2650 -0.3892
   68SAPC  H20R 5773   5.622   0.586   7.783 -2.9156  0.2842 -0.8478
   68SAPC  H20S 5774   5.519   0.730   7.812 -0.6600  0.4033 -0.8788
   68SAPC  H20T 5775   5.701   0.725   7.866 -0.7599  0.6636 -0.3829
   68SAPC   C33 5776   4.416   0.963   6.874 -0.1148  0.7584 -0.3675
   68SAPC   H3X 5777   4.395   0.854   6.867  0.9042  0.4778  0.7096
   68SAPC   H3Y 5778   4.318   1.015   6.877 -0.7965 -0.5368  0.3950
   68SAPC   C34 5779   4.491   0.996   7.010 -0.0804 -0.4039  0.6735
   68SAPC   H4X 5780   4.509   1.106   7.020  0.8210 -0.1305 -2.7623
   68SAPC   H4Y 5781   4.587   0.941   7.002 -0.5429 -1.0266 -0.8242
   68SAPC   C35 5782   4.419   0.950   7.133  0.2548 -0.8623  0.0944
   68SAPC   H5X 5783   4.427   0.840   7.144  2.7888 -0.7031  0.5089
   68SAPC   H5Y 5784   4.314   0.987   7.130  0.4004 -0.4505 -0.0490
   68SAPC   C36 5785   4.489   1.011   7.261 -0.1840  0.0292  0.6654
   68SAPC   H6X 5786   4.544   1.104   7.236  2.9221 -1.9915 -0.6201
   68SAPC   H6Y 5787   4.588   0.963   7.275 -0.0181 -0.4717 -1.8632
   68SAPC   C37 5788   4.406   0.995   7.395  0.3000 -0.4161 -0.5263
   68SAPC   H7X 5789   4.364   0.892   7.391  2.5697 -1.3460 -1.5357
   68SAPC   H7Y 5790   4.316   1.061   7.389  1.1286  1.0507  1.9284
   68SAPC   C38 5791   4.474   1.027   7.531 -0.1970 -0.0817  0.1508
   68SAPC   H8X 5792   4.548   1.108   7.512 -0.4110 -0.5207 -3.1165
   68SAPC   H8Y 5793   4.536   0.940   7.561  0.3908  0.0355 -0.6938
   68SAPC   C39 5794   4.382   1.057   7.649 -0.2569 -0.1376 -0.4814
   68SAPC   H9X 5795   4.318   1.146   7.631 -3.3993 -2.7540 -3.7966
   68SAPC   H9Y 5796   4.442   1.082   7.739  1.4294 -1.9441 -1.0396
   68SAPC  C310 5797   4.286   0.934   7.682  0.4218 -0.2341  0.5854
   68SAPC  H10X 5798   4.329   0.839   7.719 -1.3330 -0.6371  1.7179
   68SAPC  H10Y 5799   4.235   0.910   7.586  1.0165 -4.0113  1.0707
   68SAPC  C311 5800   4.170   0.970   7.785 -1.0951 -0.2577 -0.2833
   68SAPC  H11X 5801   4.117   1.060   7.746 -0.3267 -1.0399 -3.3944
   68SAPC  H11Y 5802   4.228   0.995   7.876  1.1622 -0.3026 -1.6420
   68SAPC  C312 5803   4.061   0.867   7.818  0.2207  0.7038  1.1685
   68SAPC  H12X 5804   4.101   0.771   7.859 -2.2896 -1.7003 -1.5515
   68SAPC  H12Y 5805   4.017   0.840   7.720 -0.2408  0.7662  1.3583
   68SAPC  C313 5806   3.943   0.916   7.894 -0.2487  0.0140  0.0298
   68SAPC  H13X 5807   3.872   0.831   7.905  2.6529 -2.9891 -2.2887
   68SAPC  H13Y 5808   3.905   0.994   7.825 -1.9779  0.5105  1.4401
   68SAPC  C314 5809   3.977   0.989   8.026  0.2043 -0.1568 -0.4178
   68SAPC  H14X 5810   3.896   1.059   8.056  1.0570  1.5037 -1.7430
   68SAPC  H14Y 5811   4.060   1.061   8.003 -0.8544  0.9318 -0.9701
   68SAPC  C315 5812   4.012   0.899   8.143  0.2601  0.6879  0.1111
   68SAPC  H15X 5813   4.081   0.822   8.102 -0.1355  1.6290 -2.4490
   68SAPC  H15Y 5814   3.914   0.860   8.180  0.4971  0.5795  0.6331
   68SAPC  C316 5815   4.070   0.975   8.263 -0.5499 -0.5453  0.1056
   68SAPC  H16X 5816   3.993   1.038   8.314  1.0194  1.0607  0.5823
   68SAPC  H16Y 5817   4.151   1.043   8.228 -2.8770  2.2899 -0.1847
   68SAPC  C317 5818   4.124   0.877   8.367 -0.9013  0.4427 -0.2285
   68SAPC  H17X 5819   4.189   0.940   8.432 -1.1107 -0.2342  0.6596
   68SAPC  H17Y 5820   4.192   0.806   8.314 -0.4053  2.4368 -2.4103
   68SAPC  C318 5821   4.020   0.798   8.450  0.1254 -0.4367  0.6711
   68SAPC  H18X 5822   3.954   0.740   8.381  2.1511  0.8258 -2.5797
   68SAPC  H18Y 5823   3.957   0.861   8.516 -2.9729 -1.8234 -0.7354
   68SAPC  H18Z 5824   4.068   0.725   8.518 -0.1831  0.7625  2.2170
   69SLPC     N 5825   1.812   0.196  10.927  0.1003  0.1155 -0.0082
   69SLPC   C13 5826   1.907   0.214  10.816 -0.0332 -0.3087 -0.4285
   69SLPC  H13A 5827   1.845   0.265  10.742 -0.3656  0.6811  0.5011
   69SLPC  H13B 5828   1.995   0.275  10.830 -1.7930  2.5214 -0.7817
   69SLPC  H13C 5829   1.939   0.118  10.778  1.2091  0.2632 -0.8888
   69SLPC   C14 5830   1.730   0.316  10.949  0.4174 -0.4206 -0.5057
   69SLPC  H14A 5831   1.661   0.346  10.871 -0.7910 -2.5441 -0.3412
   69SLPC  H14B 5832   1.675   0.307  11.041 -1.0936 -1.8339 -1.4709
   69SLPC  H14C 5833   1.796   0.399  10.968  0.2202 -0.4798  0.4833
   69SLPC   C15 5834   1.887   0.162  11.053  0.6044  0.0536  0.3029
   69SLPC  H15A 5835   1.942   0.069  11.052  0.0570 -0.2826  0.9486
   69SLPC  H15B 5836   1.965   0.236  11.068  0.9120  0.4686 -2.6915
   69SLPC  H15C 5837   1.819   0.163  11.137 -0.1149  0.0076 -0.2653
   69SLPC   C12 5838   1.728   0.070  10.898 -0.8561 -0.6732  0.2463
   69SLPC  H12A 5839   1.688   0.033  10.991  2.0744 -0.7579  1.5796
   69SLPC  H12B 5840   1.801  -0.008  10.879  0.8289  1.2769 -1.7738
   69SLPC   C11 5841   1.630   0.085  10.785  1.0480 -0.2546  0.0962
   69SLPC  H11A 5842   1.606  -0.018  10.751  0.5005  0.0937 -0.5965
   69SLPC  H11B 5843   1.677   0.133  10.696 -2.1519  0.8121 -1.1748
   69SLPC     P 5844   1.399   0.087  10.910  0.5259 -0.0107 -0.2098
   69SLPC   O13 5845   1.470   0.040  11.028 -0.1241  0.5383 -0.0048
   69SLPC   O14 5846   1.285   0.180  10.931 -0.2110  0.3081 -0.7023
   69SLPC   O12 5847   1.508   0.158  10.822  0.1073 -0.1562  0.2587
   69SLPC   O11 5848   1.352  -0.033  10.816 -0.2226 -0.1145  0.0067
   69SLPC    C1 5849   1.294  -0.032  10.694  0.5283 -0.6862  0.8080
   69SLPC    HA 5850   1.184  -0.025  10.710  0.8683  0.3201  3.1646
   69SLPC    HB 5851   1.308   0.058  10.630 -1.7993  1.1312  2.6350
   69SLPC    C2 5852   1.321  -0.157  10.604 -0.2866 -0.4575  0.1924
   69SLPC    HS 5853   1.424  -0.147  10.566 -1.2124 -0.8078 -2.6283
   69SLPC   O21 5854   1.222  -0.166  10.499 -0.2087  0.1543 -0.5243
   69SLPC   C21 5855   1.246  -0.088  10.392 -0.6106  0.4607 -0.0708
   69SLPC   O22 5856   1.338  -0.012  10.382 -0.5631  0.1208  0.0353
   69SLPC   C22 5857   1.146  -0.127  10.282 -0.7925 -0.0944 -0.2146
   69SLPC   H2R 5858   1.132  -0.237  10.287  2.6902 -0.6290  0.8802
   69SLPC   H2S 5859   1.051  -0.086  10.321 -0.4040 -0.5214  1.2233
   69SLPC    C3 5860   1.323  -0.283  10.689 -0.2203 -0.2961 -0.2523
   69SLPC    HX 5861   1.215  -0.309  10.703 -0.2480  0.2033  0.4926
   69SLPC    HY 5862   1.363  -0.262  10.791 -0.1451 -0.0556 -0.3317
   69SLPC   O31 5863   1.378  -0.399  10.620 -0.3686 -0.7139  0.2095
   69SLPC   C31 5864   1.515  -0.411  10.637 -0.0816 -0.1888 -0.3986
   69SLPC   O32 5865   1.587  -0.331  10.694 -0.0508 -0.1383  0.0550
   69SLPC   C32 5866   1.572  -0.533  10.557  0.3327 -0.3063  0.2651
   69SLPC   H2X 5867   1.503  -0.618  10.578  1.4684 -1.0673  1.0530
   69SLPC   H2Y 5868   1.672  -0.559  10.598  0.3065  1.0479  1.2820
   69SLPC   C23 5869   1.197  -0.081  10.138 -0.1529  0.0180  0.3180
   69SLPC   H3R 5870   1.273  -0.156  10.106  0.3955 -0.4798  2.5871
   69SLPC   H3S 5871   1.247   0.017  10.149  2.3909 -0.8550 -2.2100
   69SLPC   C24 5872   1.080  -0.070  10.040 -0.6536 -0.2483  0.0036
   69SLPC   H4R 5873   0.987  -0.026  10.082 -0.5991 -0.6474  0.5599
   69SLPC   H4S 5874   1.047  -0.174  10.018  0.2092 -0.5315  0.0265
   69SLPC   C25 5875   1.127  -0.001   9.920  0.2333 -0.6154  0.1565
   69SLPC   H5R 5876   1.146   0.105   9.949  0.9514 -0.5201 -0.6076
   69SLPC   H5S 5877   1.048   0.010   9.843  2.5892  0.3578 -2.2915
   69SLPC   C26 5878   1.245  -0.068   9.848  0.0889  0.4144 -0.2930
   69SLPC   H6R 5879   1.248  -0.177   9.872  0.1317  0.3463 -0.6111
   69SLPC   H6S 5880   1.342  -0.031   9.889 -0.3454  0.9902  0.2250
   69SLPC   C27 5881   1.249  -0.041   9.702  0.3416 -0.6817 -0.1946
   69SLPC   H7R 5882   1.351  -0.046   9.659  0.1967 -0.3761 -0.5854
   69SLPC   H7S 5883   1.226   0.068   9.700  1.6371 -0.3593  0.7901
   69SLPC   C28 5884   1.155  -0.106   9.600 -0.1835  0.0059 -0.0865
   69SLPC   H8R 5885   1.127  -0.031   9.524 -1.2289 -0.4406 -0.1570
   69SLPC   H8S 5886   1.056  -0.136   9.641 -1.7402  2.2477 -2.0060
   69SLPC   C29 5887   1.214  -0.233   9.541 -0.7274 -0.2193  0.5453
   69SLPC   H9R 5888   1.264  -0.307   9.604  2.0085  0.9631 -0.0682
   69SLPC  C210 5889   1.228  -0.264   9.411 -0.5812  0.7190  0.4886
   69SLPC  H10R 5890   1.283  -0.356   9.387  0.3410  1.7981 -1.9395
   69SLPC  C211 5891   1.196  -0.169   9.293 -0.3054  0.1834 -0.5623
   69SLPC  H11R 5892   1.276  -0.187   9.218 -1.5438 -3.3383 -1.2447
   69SLPC  H11S 5893   1.207  -0.066   9.334 -0.4782  0.9070 -2.2823
   69SLPC  C212 5894   1.065  -0.184   9.225  0.1921 -0.4071  0.0048
   69SLPC  H12R 5895   0.984  -0.221   9.289 -0.1441 -0.6766 -0.5701
   69SLPC  C213 5896   1.034  -0.175   9.099 -0.0256  0.1897 -0.1170
   69SLPC  H13R 5897   0.933  -0.199   9.063  0.6507  0.5183 -2.3961
   69SLPC  C214 5898   1.123  -0.135   8.984  0.0500 -0.3581  0.1021
   69SLPC  H14R 5899   1.229  -0.123   9.014  0.6982 -0.8889 -1.8203
   69SLPC  H14S 5900   1.084  -0.038   8.948 -1.6056 -0.6456  0.9982
   69SLPC  C215 5901   1.110  -0.231   8.866 -0.7986 -0.1824 -0.4776
   69SLPC  H15R 5902   1.004  -0.242   8.834 -0.3003 -0.4669 -2.1132
   69SLPC  H15S 5903   1.132  -0.332   8.906 -0.4417  0.3203  0.6259
   69SLPC  C216 5904   1.203  -0.202   8.751 -0.1257 -0.2517 -0.2081
   69SLPC  H16R 5905   1.156  -0.127   8.684 -0.7035  0.0505  0.5288
   69SLPC  H16S 5906   1.217  -0.291   8.685  1.2271  0.6945 -1.2742
   69SLPC  C217 5907   1.345  -0.171   8.793  0.2532 -0.4167  0.2253
   69SLPC  H17R 5908   1.404  -0.256   8.832 -1.7749 -0.5309  3.4178
   69SLPC  H17S 5909   1.350  -0.094   8.872  0.5157 -2.3078  2.1189
   69SLPC  C218 5910   1.427  -0.105   8.674  0.2556 -0.0294 -0.3089
   69SLPC  H18R 5911   1.522  -0.067   8.719 -0.1424  0.0836  0.4633
   69SLPC  H18S 5912   1.378  -0.016   8.630  0.2931 -0.6700 -1.6902
   69SLPC  H18T 5913   1.441  -0.182   8.595 -0.2449 -3.1985  2.4746
   69SLPC   C33 5914   1.579  -0.487  10.404 -0.1353  0.8473  0.2192
   69SLPC   H3X 5915   1.475  -0.498  10.367 -0.4731  1.3031  1.0174
   69SLPC   H3Y 5916   1.653  -0.564  10.372 -0.8876 -0.1320  0.7918
   69SLPC   C34 5917   1.637  -0.351  10.386 -0.6852  0.4502 -0.1452
   69SLPC   H4X 5918   1.718  -0.342  10.461 -0.7844  0.4351 -0.0355
   69SLPC   H4Y 5919   1.565  -0.269  10.409  0.5926  1.8091 -0.8122
   69SLPC   C35 5920   1.695  -0.328  10.250 -0.6430 -0.2831 -0.7793
   69SLPC   H5X 5921   1.776  -0.401  10.230  0.1591 -0.3121  2.0728
   69SLPC   H5Y 5922   1.764  -0.241  10.248  1.5591 -1.7540  2.4323
   69SLPC   C36 5923   1.597  -0.337  10.136 -1.0189  0.1197  0.2244
   69SLPC   H6X 5924   1.518  -0.261  10.158 -1.0971  0.4499 -1.1149
   69SLPC   H6Y 5925   1.551  -0.438  10.131 -2.1548  0.6696 -3.7327
   69SLPC   C37 5926   1.658  -0.311  10.001 -0.4158 -0.2860  0.4212
   69SLPC   H7X 5927   1.741  -0.384  10.006  0.5557  0.8585  2.7698
   69SLPC   H7Y 5928   1.704  -0.210   9.997 -0.9537  0.0181  1.4170
   69SLPC   C38 5929   1.570  -0.329   9.879 -0.4592 -0.4903 -0.2262
   69SLPC   H8X 5930   1.486  -0.261   9.904  1.1411  1.2924  0.5750
   69SLPC   H8Y 5931   1.533  -0.433   9.875  1.0090 -1.0170 -0.9084
   69SLPC   C39 5932   1.649  -0.302   9.751 -0.7262  0.1925 -0.3848
   69SLPC   H9X 5933   1.738  -0.368   9.746  1.2170  2.7129 -3.0943
   69SLPC   H9Y 5934   1.688  -0.198   9.743 -0.7583  0.1689 -0.8914
   69SLPC  C310 5935   1.575  -0.325   9.622 -0.7757 -0.5656  0.8530
   69SLPC  H10X 5936   1.493  -0.250   9.620 -1.6141 -1.4756 -1.2394
   69SLPC  H10Y 5937   1.530  -0.427   9.622 -1.5176 -0.2612 -0.6327
   69SLPC  C311 5938   1.660  -0.304   9.496  0.2801  0.5076 -0.4205
   69SLPC  H11X 5939   1.745  -0.376   9.504  0.6005  1.0599  1.5389
   69SLPC  H11Y 5940   1.702  -0.202   9.481  0.3725  0.2118 -2.4656
   69SLPC  C312 5941   1.573  -0.340   9.375 -0.4934  0.3265 -0.5000
   69SLPC  H12X 5942   1.498  -0.258   9.369 -0.9539  0.0774  1.1798
   69SLPC  H12Y 5943   1.521  -0.436   9.395  1.4514 -0.3454  1.7701
   69SLPC  C313 5944   1.654  -0.350   9.244 -1.8891 -0.7706 -0.4509
   69SLPC  H13X 5945   1.750  -0.404   9.261 -1.0251  0.0824 -2.3038
   69SLPC  H13Y 5946   1.682  -0.246   9.215 -1.2167 -1.1884 -1.3323
   69SLPC  C314 5947   1.582  -0.424   9.137 -0.1359  0.2716  0.6534
   69SLPC  H14X 5948   1.494  -0.365   9.104  2.3243  2.8500 -1.8687
   69SLPC  H14Y 5949   1.556  -0.522   9.183  2.0596 -0.5361  0.3191
   69SLPC  C315 5950   1.664  -0.445   9.008  0.0617  0.4873 -0.4264
   69SLPC  H15X 5951   1.604  -0.508   8.940  0.5667 -1.7389  1.0699
   69SLPC  H15Y 5952   1.761  -0.499   9.022 -0.2517  0.3341  1.4892
   69SLPC  C316 5953   1.698  -0.311   8.940 -0.9317 -0.5576 -0.1437
   69SLPC  H16X 5954   1.766  -0.260   9.011  2.3650 -4.0306 -0.5002
   69SLPC  H16Y 5955   1.596  -0.270   8.921 -0.5278  0.3733 -0.3766
   69SLPC  C317 5956   1.758  -0.323   8.799  0.0214  0.0260 -0.2893
   69SLPC  H17X 5957   1.862  -0.360   8.794 -0.1484 -0.3233 -1.7957
   69SLPC  H17Y 5958   1.762  -0.216   8.767 -1.9995  0.3681  0.4597
   69SLPC  C318 5959   1.683  -0.411   8.700  0.4255 -0.1060 -0.3969
   69SLPC  H18X 5960   1.674  -0.516   8.735 -0.9847 -0.8177 -2.6555
   69SLPC  H18Y 5961   1.736  -0.422   8.603 -0.8379 -3.4062 -0.8617
   69SLPC  H18Z 5962   1.578  -0.380   8.683  0.3957 -1.0131 -2.0739
   70SLPC     N 5963   1.810   4.551  10.979  0.8728 -0.7729 -0.0712
   70SLPC   C13 5964   1.775   4.693  10.958  0.6144 -0.1839  0.1232
   70SLPC  H13A 5965   1.837   4.745  11.029  1.2464 -1.0072  0.1981
   70SLPC  H13B 5966   1.797   4.736  10.861 -1.7791  0.0335 -0.3741
   70SLPC  H13C 5967   1.669   4.706  10.975  0.6950  2.0741 -0.8113
   70SLPC   C14 5968   1.744   4.512  11.109  0.3764  0.1690  0.1006
   70SLPC  H14A 5969   1.778   4.563  11.197 -0.6615 -1.9573  1.8146
   70SLPC  H14B 5970   1.638   4.526  11.094 -0.1251 -0.6755  2.4921
   70SLPC  H14C 5971   1.755   4.409  11.139 -0.8236  0.2642  0.9374
   70SLPC   C15 5972   1.959   4.544  11.004 -0.1364 -0.2122 -0.3459
   70SLPC  H15A 5973   1.998   4.617  11.074  0.2290 -0.2476 -0.5092
   70SLPC  H15B 5974   1.980   4.447  11.046 -1.2717  0.5572  2.1799
   70SLPC  H15C 5975   2.006   4.552  10.907 -0.7452 -0.8521 -0.7030
   70SLPC   C12 5976   1.754   4.457  10.868 -0.5082  0.6612  0.5825
   70SLPC  H12A 5977   1.661   4.503  10.841 -1.6136 -1.5218  0.4225
   70SLPC  H12B 5978   1.743   4.353  10.898 -2.3345  0.3027 -1.1525
   70SLPC   C11 5979   1.842   4.449  10.744 -0.3098 -0.0253 -0.1364
   70SLPC  H11A 5980   1.859   4.550  10.701  0.4372 -0.1424 -0.1439
   70SLPC  H11B 5981   1.796   4.392  10.660 -0.4995 -0.9755  0.5949
   70SLPC     P 5982   2.006   4.252  10.773 -0.3095  0.1448  0.2118
   70SLPC   O13 5983   2.149   4.243  10.794 -0.7196  0.6229  0.1979
   70SLPC   O14 5984   1.927   4.166  10.860  0.0430 -0.5400 -0.2101
   70SLPC   O12 5985   1.972   4.399  10.783 -0.8538 -0.8526 -0.4341
   70SLPC   O11 5986   1.996   4.202  10.624 -0.5278  0.0132  0.1204
   70SLPC    C1 5987   2.043   4.285  10.519 -0.5664 -0.2591 -0.0350
   70SLPC    HA 5988   1.959   4.333  10.464 -0.4532  0.2017  0.1872
   70SLPC    HB 5989   2.109   4.371  10.545  0.0959 -0.3366 -1.3951
   70SLPC    C2 5990   2.128   4.223  10.403  0.1616  0.2688  0.4431
   70SLPC    HS 5991   2.118   4.300  10.323 -1.9701 -0.2259  0.1731
   70SLPC   O21 5992   2.093   4.093  10.361 -0.7425 -0.6207 -0.3328
   70SLPC   C21 5993   1.985   4.071  10.300  0.8119 -0.1497 -0.1920
   70SLPC   O22 5994   1.894   4.150  10.298  0.4626 -0.3619 -0.0221
   70SLPC   C22 5995   1.978   3.927  10.243  0.7280 -0.7061 -0.2644
   70SLPC   H2R 5996   2.022   3.861  10.320 -0.1128 -0.2636  0.6235
   70SLPC   H2S 5997   1.872   3.900  10.225  0.5177  0.9347 -1.8853
   70SLPC    C3 5998   2.283   4.231  10.437  0.7627  0.1033  0.0796
   70SLPC    HX 5999   2.307   4.174  10.529 -2.6280 -0.2530  0.8737
   70SLPC    HY 6000   2.289   4.338  10.467 -1.7010  0.1126  0.7098
   70SLPC   O31 6001   2.377   4.214  10.326 -0.3127  0.4237  0.3625
   70SLPC   C31 6002   2.419   4.088  10.314  0.6681  0.2246  0.2667
   70SLPC   O32 6003   2.387   3.994  10.386  0.0753  0.2126 -0.0081
   70SLPC   C32 6004   2.495   4.094  10.181  0.7659  0.2355 -0.7759
   70SLPC   H2X 6005   2.568   4.178  10.184  0.8823  0.1181  1.0392
   70SLPC   H2Y 6006   2.411   4.124  10.115  1.2080 -1.4776 -2.1807
   70SLPC   C23 6007   2.062   3.915  10.115  0.1448  0.3108  0.3815
   70SLPC   H3R 6008   2.080   3.806  10.103 -2.0025  0.0825 -1.4122
   70SLPC   H3S 6009   2.163   3.960  10.122  0.6402 -0.7562  0.2105
   70SLPC   C24 6010   1.998   3.981   9.999 -0.5080 -1.2901  0.1692
   70SLPC   H4R 6011   1.995   4.091  10.015  1.3846 -1.1650 -0.0637
   70SLPC   H4S 6012   1.896   3.938   9.992 -0.7952 -0.7097  0.6899
   70SLPC   C25 6013   2.066   3.959   9.864  0.6197 -0.3252 -0.5096
   70SLPC   H5R 6014   2.074   3.848   9.853  0.0866 -0.6422  1.7468
   70SLPC   H5S 6015   2.167   4.005   9.858  1.7116 -2.4995 -0.0243
   70SLPC   C26 6016   1.984   4.019   9.749 -0.6385 -0.0687  0.2437
   70SLPC   H6R 6017   1.966   4.128   9.762 -0.5246 -0.1875  1.4596
   70SLPC   H6S 6018   1.887   3.966   9.735 -0.8469  0.3350  0.1287
   70SLPC   C27 6019   2.062   4.009   9.613  0.5321 -0.5555 -0.4341
   70SLPC   H7R 6020   2.074   3.900   9.593 -0.2662 -0.7165 -0.0357
   70SLPC   H7S 6021   2.161   4.061   9.616  1.3786 -2.0879 -0.5806
   70SLPC   C28 6022   1.981   4.089   9.507  0.2782 -0.3514 -0.0562
   70SLPC   H8R 6023   1.966   4.193   9.543 -0.6392  0.1721 -1.8091
   70SLPC   H8S 6024   1.882   4.044   9.482  1.6617 -3.2039 -0.7331
   70SLPC   C29 6025   2.046   4.087   9.377 -0.3359 -0.3220  0.1540
   70SLPC   H9R 6026   2.034   3.988   9.330 -1.5286 -0.5692  0.9221
   70SLPC  C210 6027   2.101   4.196   9.313  0.8685  0.0703  0.2079
   70SLPC  H10R 6028   2.164   4.177   9.225 -0.4846 -0.0395 -0.7762
   70SLPC  C211 6029   2.098   4.336   9.357 -0.0813 -0.1631  0.1619
   70SLPC  H11R 6030   2.027   4.355   9.439  0.8802 -1.0041  1.2335
   70SLPC  H11S 6031   2.048   4.401   9.283  1.6723  2.5793  1.2569
   70SLPC  C212 6032   2.237   4.405   9.379  0.1358  0.6329 -0.5502
   70SLPC  H12R 6033   2.282   4.454   9.291  0.5268 -1.1881 -1.4062
   70SLPC  C213 6034   2.301   4.414   9.496 -0.0224  0.1971  0.4677
   70SLPC  H13R 6035   2.399   4.464   9.493 -1.1407  2.5583 -2.5002
   70SLPC  C214 6036   2.246   4.367   9.630  0.0815 -0.7219 -0.6326
   70SLPC  H14R 6037   2.261   4.257   9.639 -2.3706 -0.9873  1.3495
   70SLPC  H14S 6038   2.135   4.371   9.626  0.1072  0.2478 -0.7236
   70SLPC  C215 6039   2.308   4.431   9.759  0.6869 -0.3311  0.6090
   70SLPC  H15R 6040   2.284   4.540   9.765  0.9017 -0.2486  0.0699
   70SLPC  H15S 6041   2.419   4.438   9.760  0.6014  1.8512  0.7859
   70SLPC  C216 6042   2.251   4.366   9.890 -0.2073 -0.0727  0.5365
   70SLPC  H16R 6043   2.283   4.260   9.891 -1.6866 -0.5453  0.6559
   70SLPC  H16S 6044   2.140   4.367   9.890 -0.2423  0.6769 -1.3786
   70SLPC  C217 6045   2.281   4.431  10.028  1.1658  0.3732  0.8860
   70SLPC  H17R 6046   2.236   4.366  10.106  0.8617 -0.7771 -0.2237
   70SLPC  H17S 6047   2.219   4.524  10.025  0.0520 -0.3247 -2.6209
   70SLPC  C218 6048   2.420   4.452  10.061  0.1434  0.2319 -0.5637
   70SLPC  H18R 6049   2.473   4.354  10.060  0.8917  0.6268 -0.5909
   70SLPC  H18S 6050   2.454   4.488  10.161  0.1864  1.3736 -0.9734
   70SLPC  H18T 6051   2.470   4.517   9.987  0.5575  0.8834  0.2656
   70SLPC   C33 6052   2.559   3.959  10.131  0.1006 -1.1773  0.1627
   70SLPC   H3X 6053   2.483   3.880  10.146 -0.3870 -0.5692  0.9552
   70SLPC   H3Y 6054   2.641   3.935  10.202  1.3569 -1.4047 -1.3031
   70SLPC   C34 6055   2.624   3.966   9.993 -0.6338  0.4872  0.2630
   70SLPC   H4X 6056   2.685   3.874   9.983 -0.0800  0.3847  3.3886
   70SLPC   H4Y 6057   2.704   4.042  10.004  3.2178 -3.2826  0.8352
   70SLPC   C35 6058   2.522   3.987   9.883  0.0414 -0.2612 -0.6839
   70SLPC   H5X 6059   2.527   4.098   9.873 -1.2444 -0.0972  0.1891
   70SLPC   H5Y 6060   2.421   3.953   9.915  0.1521 -0.2740 -0.3463
   70SLPC   C36 6061   2.559   3.923   9.749  0.3646  0.5508  0.1158
   70SLPC   H6X 6062   2.574   3.814   9.764 -2.8708  0.2227  1.7757
   70SLPC   H6Y 6063   2.655   3.969   9.717 -0.6516  2.7885  0.0395
   70SLPC   C37 6064   2.451   3.952   9.646  0.0719  0.2599  0.0388
   70SLPC   H7X 6065   2.438   4.062   9.636 -1.3393  0.1018 -0.1079
   70SLPC   H7Y 6066   2.352   3.913   9.677  0.9471 -0.7374  1.7230
   70SLPC   C38 6067   2.486   3.882   9.520  0.4528 -0.3080 -0.7385
   70SLPC   H8X 6068   2.492   3.774   9.543  2.0078  0.1669  1.4737
   70SLPC   H8Y 6069   2.592   3.904   9.493  1.4528 -4.4497 -0.8395
   70SLPC   C39 6070   2.399   3.923   9.404  0.5125 -0.3144  0.1576
   70SLPC   H9X 6071   2.379   4.032   9.392  0.6411 -0.3946 -0.8275
   70SLPC   H9Y 6072   2.303   3.871   9.423  0.5120 -1.1558 -1.9732
   70SLPC  C310 6073   2.459   3.858   9.280 -0.6863  0.0884 -0.1545
   70SLPC  H10X 6074   2.490   3.752   9.295  1.3021  0.1688 -2.9402
   70SLPC  H10Y 6075   2.558   3.907   9.270  0.4113 -2.1196 -0.8660
   70SLPC  C311 6076   2.382   3.888   9.152  0.3162 -0.5866  0.1644
   70SLPC  H11X 6077   2.403   3.992   9.119 -1.2149  0.0856  1.2279
   70SLPC  H11Y 6078   2.272   3.886   9.165  0.3543 -1.7242  0.4309
   70SLPC  C312 6079   2.422   3.800   9.029  0.4998 -0.2386 -0.6411
   70SLPC  H12X 6080   2.391   3.701   9.068 -1.0489  0.7630  0.8107
   70SLPC  H12Y 6081   2.531   3.806   9.010  1.0749  0.1898  2.3623
   70SLPC  C313 6082   2.338   3.829   8.902  0.2152  0.0751  0.5600
   70SLPC  H13X 6083   2.370   3.926   8.858  0.7886  0.5875  2.0055
   70SLPC  H13Y 6084   2.229   3.833   8.923 -0.2109 -1.1903 -1.2564
   70SLPC  C314 6085   2.378   3.723   8.793 -0.0798  0.2437 -0.9804
   70SLPC  H14X 6086   2.340   3.627   8.836 -0.6447  0.8563 -0.0784
   70SLPC  H14Y 6087   2.489   3.725   8.786  0.0225 -0.0504  0.2655
   70SLPC  C315 6088   2.314   3.755   8.665  0.3272  0.7422 -0.5542
   70SLPC  H15X 6089   2.372   3.837   8.616  2.1054  0.0748  0.3276
   70SLPC  H15Y 6090   2.207   3.780   8.675 -0.1713 -0.8710 -1.5055
   70SLPC  C316 6091   2.338   3.639   8.567  0.6227  0.1785  0.0343
   70SLPC  H16X 6092   2.280   3.670   8.477 -1.7711  0.7019  1.6477
   70SLPC  H16Y 6093   2.296   3.544   8.606  1.7582 -1.1233 -1.7527
   70SLPC  C317 6094   2.487   3.624   8.535  0.0274  0.0517 -0.1095
   70SLPC  H17X 6095   2.542   3.595   8.627 -1.4361 -1.6055  0.2956
   70SLPC  H17Y 6096   2.525   3.725   8.507  0.4958 -0.0789  0.0457
   70SLPC  C318 6097   2.489   3.514   8.425  0.1028  0.0210 -0.6638
   70SLPC  H18X 6098   2.571   3.504   8.351  0.3510 -0.5793 -0.3190
   70SLPC  H18Y 6099   2.395   3.508   8.365 -0.0413  0.8361 -0.5249
   70SLPC  H18Z 6100   2.471   3.423   8.486 -1.4279  1.4136  1.0750
   71SLPC     N 6101   2.453   2.020  10.905 -0.2934 -0.0211  0.7130
   71SLPC   C13 6102   2.568   1.930  10.907  0.1046 -0.0627  1.0781
   71SLPC  H13A 6103   2.558   1.825  10.930  1.4905 -0.5090 -0.1874
   71SLPC  H13B 6104   2.626   1.934  10.816 -1.7202 -1.0347 -0.1730
   71SLPC  H13C 6105   2.633   1.961  10.988  1.9570 -0.2325 -0.2804
   71SLPC   C14 6106   2.501   2.160  10.870  0.8148  0.2094  0.2847
   71SLPC  H14A 6107   2.414   2.218  10.843  1.0941  0.0691 -0.9650
   71SLPC  H14B 6108   2.550   2.215  10.949 -2.6877  0.7339  2.3528
   71SLPC  H14C 6109   2.547   2.152  10.773  0.4591  0.4173  0.0943
   71SLPC   C15 6110   2.397   2.012  11.040  0.4167 -0.3992  0.8911
   71SLPC  H15A 6111   2.375   1.907  11.055 -2.2914 -0.2971 -1.4668
   71SLPC  H15B 6112   2.468   2.041  11.116 -0.3967  0.5569  1.3082
   71SLPC  H15C 6113   2.303   2.062  11.052 -0.8092 -1.3958 -3.0269
   71SLPC   C12 6114   2.355   1.967  10.800  1.0269  0.2407  0.4706
   71SLPC  H12A 6115   2.410   1.954  10.707 -0.0419  0.3411 -0.1924
   71SLPC  H12B 6116   2.282   2.046  10.787  0.2085 -0.3850  1.1874
   71SLPC   C11 6117   2.268   1.837  10.815 -0.4196  0.1837  0.1405
   71SLPC  H11A 6118   2.190   1.838  10.736  1.1154  0.3166 -1.4318
   71SLPC  H11B 6119   2.219   1.836  10.914  0.7220 -1.7559  0.7310
   71SLPC     P 6120   2.446   1.687  10.686  0.1955 -0.1177  0.6995
   71SLPC   O13 6121   2.587   1.694  10.730  0.3818 -1.1154 -0.8139
   71SLPC   O14 6122   2.409   1.552  10.630  0.0302 -0.1022  0.9805
   71SLPC   O12 6123   2.347   1.719  10.809  0.2545 -0.8954  0.3171
   71SLPC   O11 6124   2.415   1.803  10.578  0.0709  0.3832 -0.5310
   71SLPC    C1 6125   2.322   1.780  10.473 -0.3669 -0.3680 -1.3803
   71SLPC    HA 6126   2.250   1.696  10.487  2.3595 -2.7827 -0.9192
   71SLPC    HB 6127   2.267   1.875  10.456 -1.7514 -0.6144  1.2042
   71SLPC    C2 6128   2.392   1.738  10.344  0.3330  0.1524 -0.2701
   71SLPC    HS 6129   2.445   1.641  10.358 -0.6690 -0.6598 -1.8867
   71SLPC   O21 6130   2.491   1.830  10.309  0.1475 -0.1934  0.3097
   71SLPC   C21 6131   2.581   1.802  10.219 -0.8592  0.0345  0.0587
   71SLPC   O22 6132   2.576   1.703  10.144 -0.0233  0.1147 -0.5225
   71SLPC   C22 6133   2.701   1.893  10.231  0.1640  0.1297  0.7647
   71SLPC   H2R 6134   2.666   1.998  10.239 -1.1178 -0.1732 -0.4592
   71SLPC   H2S 6135   2.757   1.876  10.325  0.0558  0.1086  0.8259
   71SLPC    C3 6136   2.293   1.717  10.230 -0.3298 -0.0094  0.5073
   71SLPC    HX 6137   2.229   1.630  10.257 -3.8760  1.2855 -2.8195
   71SLPC    HY 6138   2.343   1.693  10.134 -1.5009  1.2961 -0.4665
   71SLPC   O31 6139   2.193   1.819  10.210 -0.0200 -0.7802 -0.1928
   71SLPC   C31 6140   2.227   1.914  10.126 -0.4183  0.1621  0.8046
   71SLPC   O32 6141   2.338   1.923  10.071 -0.1459 -0.3490  0.2123
   71SLPC   C32 6142   2.106   1.998  10.089  0.6861  0.7195 -0.5114
   71SLPC   H2X 6143   2.141   2.103  10.094  2.6133  0.0551  1.1924
   71SLPC   H2Y 6144   2.033   1.984  10.172  1.2301  0.1280 -0.1225
   71SLPC   C23 6145   2.809   1.886  10.116 -0.5566  0.0548 -1.0424
   71SLPC   H3R 6146   2.846   1.783  10.099  1.3691  0.4364  0.3951
   71SLPC   H3S 6147   2.896   1.936  10.165 -1.1225  0.1868 -0.1425
   71SLPC   C24 6148   2.763   1.946   9.981 -0.7059  0.7327  0.2223
   71SLPC   H4R 6149   2.672   1.889   9.952  0.2349 -1.0051  0.6015
   71SLPC   H4S 6150   2.837   1.924   9.902  0.9589 -1.1632  2.2116
   71SLPC   C25 6151   2.724   2.091   9.977 -0.5902  0.0722 -0.3968
   71SLPC   H5R 6152   2.761   2.143  10.068  2.2731  0.2990 -1.5806
   71SLPC   H5S 6153   2.613   2.103   9.971 -0.6433 -0.8154 -1.8038
   71SLPC   C26 6154   2.800   2.161   9.860  0.2847 -0.3740 -0.1569
   71SLPC   H6R 6155   2.898   2.117   9.835  3.1235  5.7277 -1.7210
   71SLPC   H6S 6156   2.817   2.267   9.889 -1.1283  0.4797 -2.2210
   71SLPC   C27 6157   2.732   2.143   9.723  0.7301  0.2679 -0.0051
   71SLPC   H7R 6158   2.622   2.154   9.738  0.1378 -0.9882 -2.8154
   71SLPC   H7S 6159   2.748   2.034   9.709 -2.1984 -0.5876  2.1543
   71SLPC   C28 6160   2.798   2.231   9.616  0.2500  0.4474 -0.9652
   71SLPC   H8R 6161   2.903   2.197   9.611  0.4929  1.2330 -1.3246
   71SLPC   H8S 6162   2.808   2.333   9.659  0.8912 -0.7016  1.7734
   71SLPC   C29 6163   2.738   2.216   9.481  0.0241  0.3342  0.0457
   71SLPC   H9R 6164   2.639   2.258   9.462 -0.5862  0.5054  3.1928
   71SLPC  C210 6165   2.798   2.148   9.377  1.3175 -1.1636 -0.6186
   71SLPC  H10R 6166   2.739   2.151   9.284  0.4566 -2.0518 -0.1120
   71SLPC  C211 6167   2.924   2.068   9.380 -0.3820 -0.4112  0.1186
   71SLPC  H11R 6168   2.974   2.056   9.479  0.7739 -1.6862 -0.5810
   71SLPC  H11S 6169   2.996   2.126   9.317 -0.6340 -1.6368 -1.3522
   71SLPC  C212 6170   2.921   1.933   9.312 -0.4597  0.6308  0.6958
   71SLPC  H12R 6171   2.911   1.848   9.381  0.1214  1.0605  1.3096
   71SLPC  C213 6172   2.946   1.907   9.181  0.5994 -0.1471 -0.0317
   71SLPC  H13R 6173   2.954   1.804   9.144  0.5844 -0.1758  0.0440
   71SLPC  C214 6174   2.984   2.012   9.083 -0.5548  0.3186  0.1000
   71SLPC  H14R 6175   2.968   2.118   9.115 -0.7821  0.2079  0.3643
   71SLPC  H14S 6176   2.913   1.995   8.999  0.9389 -2.1934 -0.7380
   71SLPC  C215 6177   3.122   1.983   9.039  0.1725 -0.9612 -0.0845
   71SLPC  H15R 6178   3.136   1.883   8.993  1.3925 -1.0802  0.5261
   71SLPC  H15S 6179   3.191   1.997   9.125 -1.9174 -1.3459  1.7567
   71SLPC  C216 6180   3.163   2.085   8.929 -0.2479  0.3062  0.6466
   71SLPC  H16R 6181   3.074   2.105   8.866  0.8442  1.1457 -0.7052
   71SLPC  H16S 6182   3.241   2.033   8.869 -0.7461 -1.9754  1.8762
   71SLPC  C217 6183   3.214   2.213   8.988 -0.5028 -0.3829  0.3487
   71SLPC  H17R 6184   3.301   2.183   9.051  0.6330 -1.7791 -1.7647
   71SLPC  H17S 6185   3.134   2.256   9.051 -1.0016 -0.3753 -0.2826
   71SLPC  C218 6186   3.251   2.314   8.883  0.6808  0.0693  0.5169
   71SLPC  H18R 6187   3.317   2.271   8.805  0.3176  1.2055 -0.4601
   71SLPC  H18S 6188   3.310   2.393   8.935  1.1370  1.0694 -1.3922
   71SLPC  H18T 6189   3.161   2.361   8.837  1.6440  0.1862 -1.3261
   71SLPC   C33 6190   2.040   1.962   9.956  0.0074 -0.3155 -0.2383
   71SLPC   H3X 6191   1.931   1.978   9.968  0.1606 -0.2783  1.3228
   71SLPC   H3Y 6192   2.050   1.854   9.932  1.1909 -0.3254  0.2464
   71SLPC   C34 6193   2.098   2.040   9.839  0.1330 -0.1664  0.5377
   71SLPC   H4X 6194   2.203   2.011   9.820 -0.2578 -0.2374 -1.7363
   71SLPC   H4Y 6195   2.097   2.147   9.868  2.3536  0.0776 -0.1718
   71SLPC   C35 6196   2.030   2.022   9.704 -0.3185 -0.2796  0.0925
   71SLPC   H5X 6197   1.920   2.027   9.720  0.0190 -0.3926  3.1624
   71SLPC   H5Y 6198   2.040   1.927   9.647 -0.7445  1.4625 -3.0664
   71SLPC   C36 6199   2.076   2.141   9.621 -0.2967  0.0473 -0.2322
   71SLPC   H6X 6200   2.174   2.122   9.573  0.6429  0.6911  1.3495
   71SLPC   H6Y 6201   2.078   2.233   9.684 -0.4354 -1.3591  1.9139
   71SLPC   C37 6202   1.976   2.166   9.508  0.1371  0.6673 -0.5532
   71SLPC   H7X 6203   1.878   2.204   9.544 -0.9051 -1.1984 -1.2682
   71SLPC   H7Y 6204   1.957   2.077   9.444 -0.5667  0.3081  0.1326
   71SLPC   C38 6205   2.016   2.281   9.412  0.1554 -0.4538 -0.4809
   71SLPC   H8X 6206   2.124   2.267   9.390  0.5640  0.8660  0.4938
   71SLPC   H8Y 6207   2.004   2.382   9.458 -3.1195 -0.5183 -0.9675
   71SLPC   C39 6208   1.936   2.264   9.282 -0.0971  0.7424  0.2521
   71SLPC   H9X 6209   1.831   2.297   9.295 -0.7420 -1.6334  1.7420
   71SLPC   H9Y 6210   1.931   2.156   9.256 -2.6056  0.4597  1.5355
   71SLPC  C310 6211   2.022   2.331   9.169  0.5549 -0.1373 -0.0854
   71SLPC  H10X 6212   2.128   2.301   9.183  0.1207 -1.1575  1.2891
   71SLPC  H10Y 6213   2.018   2.442   9.179  1.3084 -0.2444  1.9600
   71SLPC  C311 6214   1.979   2.298   9.028 -0.1873 -0.3797 -0.0532
   71SLPC  H11X 6215   2.008   2.191   9.019  1.6600 -0.0193  1.0657
   71SLPC  H11Y 6216   2.036   2.357   8.954  0.2572 -0.1609  0.4510
   71SLPC  C312 6217   1.828   2.319   9.008 -0.2485 -0.7369  0.6663
   71SLPC  H12X 6218   1.787   2.408   9.062 -0.2676 -0.8538  0.8444
   71SLPC  H12Y 6219   1.770   2.233   9.048  1.1126 -1.7258  0.5783
   71SLPC  C313 6220   1.811   2.346   8.856 -0.0934  0.6508  0.1392
   71SLPC  H13X 6221   1.706   2.314   8.833  0.4099 -0.4139 -0.7814
   71SLPC  H13Y 6222   1.887   2.300   8.789  0.7295  1.4531  0.5234
   71SLPC  C314 6223   1.808   2.497   8.829 -0.4609 -0.2673 -0.1259
   71SLPC  H14X 6224   1.899   2.529   8.884  0.5922 -1.7126 -0.9254
   71SLPC  H14Y 6225   1.712   2.541   8.861 -0.2314  0.3346 -0.2527
   71SLPC  C315 6226   1.819   2.527   8.678 -0.6548  0.4405 -0.4711
   71SLPC  H15X 6227   1.721   2.501   8.631 -0.5965  2.5248 -1.8684
   71SLPC  H15Y 6228   1.897   2.460   8.636 -0.9075 -0.2114  0.0764
   71SLPC  C316 6229   1.861   2.677   8.649 -0.0059 -0.5788  0.2759
   71SLPC  H16X 6230   1.947   2.696   8.716  0.3815  1.8932 -0.7918
   71SLPC  H16Y 6231   1.785   2.751   8.683  2.5747  1.2254  2.5994
   71SLPC  C317 6232   1.899   2.697   8.503 -0.1120  0.2907  0.9665
   71SLPC  H17X 6233   1.822   2.657   8.433  1.8691  1.6269 -2.1801
   71SLPC  H17Y 6234   1.980   2.622   8.490  1.5188  2.1332  0.1685
   71SLPC  C318 6235   1.923   2.837   8.461  0.3830 -1.0182  0.0840
   71SLPC  H18X 6236   1.933   2.836   8.350 -0.7267 -1.5835 -0.0244
   71SLPC  H18Y 6237   2.024   2.875   8.488 -0.2958  1.2224 -0.3383
   71SLPC  H18Z 6238   1.857   2.914   8.507  1.7971 -0.4363  1.2227
   72SLPC     N 6239   2.256   5.612  10.988 -0.4975  0.0597  0.4635
   72SLPC   C13 6240   2.343   5.676  10.882 -0.1489 -0.0171  0.6477
   72SLPC  H13A 6241   2.447   5.646  10.882 -0.1155  0.0391  2.2544
   72SLPC  H13B 6242   2.308   5.661  10.781  2.6479  1.9501 -0.7530
   72SLPC  H13C 6243   2.346   5.782  10.901  0.7923  0.0896 -0.0132
   72SLPC   C14 6244   2.309   5.663  11.123  0.0243 -0.4518 -0.6911
   72SLPC  H14A 6245   2.260   5.618  11.208 -0.6916 -0.4171 -1.0803
   72SLPC  H14B 6246   2.410   5.627  11.139  0.8799  1.9444 -0.2930
   72SLPC  H14C 6247   2.306   5.771  11.124 -0.1992 -0.4449 -1.3866
   72SLPC   C15 6248   2.264   5.459  10.987 -0.5677  0.6427 -0.1438
   72SLPC  H15A 6249   2.232   5.401  11.072  1.4801 -0.6731 -0.1981
   72SLPC  H15B 6250   2.211   5.427  10.898 -1.2787 -0.2603  0.5901
   72SLPC  H15C 6251   2.369   5.434  10.978 -0.3486  1.7385 -0.7980
   72SLPC   C12 6252   2.108   5.654  10.972  0.4514 -0.5934  0.3958
   72SLPC  H12A 6253   2.097   5.760  10.991  1.9559 -0.0571 -1.3941
   72SLPC  H12B 6254   2.043   5.596  11.036 -0.8872 -2.7933 -2.7024
   72SLPC   C11 6255   2.054   5.643  10.831 -0.0817  0.6180  0.8312
   72SLPC  H11A 6256   2.119   5.696  10.758  0.4226  2.0903  2.2766
   72SLPC  H11B 6257   1.956   5.695  10.826 -0.6742 -0.4857  0.5568
   72SLPC     P 6258   2.067   5.455  10.653  0.2207  0.3705  0.4706
   72SLPC   O13 6259   2.089   5.313  10.669  0.2453  0.1740  0.3183
   72SLPC   O14 6260   1.957   5.497  10.556  0.1460  0.1500  0.1587
   72SLPC   O12 6261   2.024   5.505  10.792 -0.4198  0.2735 -0.0175
   72SLPC   O11 6262   2.202   5.525  10.619  0.6068 -0.1257 -0.1186
   72SLPC    C1 6263   2.229   5.620  10.514  0.1393 -0.4931 -0.5622
   72SLPC    HA 6264   2.160   5.707  10.520 -1.7248 -1.9403  0.1755
   72SLPC    HB 6265   2.333   5.653  10.533 -0.3109  0.3739  0.5256
   72SLPC    C2 6266   2.221   5.567  10.372 -0.2671  0.3568 -0.0347
   72SLPC    HS 6267   2.116   5.551  10.340  0.0971 -0.0032 -1.0940
   72SLPC   O21 6268   2.298   5.448  10.359 -0.3703  0.0908  0.0185
   72SLPC   C21 6269   2.240   5.349  10.288 -0.5629  0.5150  0.6113
   72SLPC   O22 6270   2.132   5.356  10.235  0.2586  0.1979 -0.0852
   72SLPC   C22 6271   2.336   5.228  10.278 -0.1884 -0.3715  0.0658
   72SLPC   H2R 6272   2.437   5.266  10.306 -0.4207 -1.2914  2.3498
   72SLPC   H2S 6273   2.309   5.149  10.351  1.8658 -1.3969 -0.2127
   72SLPC    C3 6274   2.289   5.665  10.278  0.7899 -0.5866 -0.6109
   72SLPC    HX 6275   2.398   5.679  10.298  0.9376 -2.4449  0.0284
   72SLPC    HY 6276   2.243   5.764  10.299  0.4903 -0.3915 -2.0410
   72SLPC   O31 6277   2.267   5.631  10.133 -0.5761 -0.7085  0.0541
   72SLPC   C31 6278   2.144   5.628  10.083 -0.2937  1.0969 -0.7057
   72SLPC   O32 6279   2.044   5.663  10.140  0.3536 -0.9663  0.1515
   72SLPC   C32 6280   2.152   5.572   9.945  0.1913  0.5019 -0.7664
   72SLPC   H2X 6281   2.121   5.466   9.947 -0.8362  0.7968  0.1290
   72SLPC   H2Y 6282   2.258   5.584   9.913  0.4028  0.8975  0.0607
   72SLPC   C23 6283   2.336   5.166  10.138 -0.0653 -0.4798  0.4114
   72SLPC   H3R 6284   2.232   5.140  10.107 -0.2553  2.3937 -1.6784
   72SLPC   H3S 6285   2.377   5.064  10.152 -0.4663 -0.7113 -0.0506
   72SLPC   C24 6286   2.397   5.261  10.037 -0.0924 -0.2177  0.2608
   72SLPC   H4R 6287   2.503   5.269  10.071  0.3733  0.7937 -1.3599
   72SLPC   H4S 6288   2.341   5.357  10.031 -0.4598 -0.4337  0.1985
   72SLPC   C25 6289   2.391   5.198   9.895  0.3325  0.4234  0.8742
   72SLPC   H5R 6290   2.403   5.087   9.889 -0.8706  0.3554 -1.0187
   72SLPC   H5S 6291   2.475   5.237   9.833  2.0225 -1.9890  1.4918
   72SLPC   C26 6292   2.267   5.238   9.818  0.2985  0.4103 -0.3056
   72SLPC   H6R 6293   2.269   5.347   9.795 -0.0461  0.1140 -1.8983
   72SLPC   H6S 6294   2.179   5.206   9.877  0.6300  0.5740  0.2882
   72SLPC   C27 6295   2.251   5.167   9.686  0.2269 -0.2525 -0.3430
   72SLPC   H7R 6296   2.211   5.066   9.705  1.3932 -1.3338 -3.0482
   72SLPC   H7S 6297   2.348   5.134   9.643 -0.1405 -1.0372 -0.5751
   72SLPC   C28 6298   2.173   5.252   9.579  0.2198  0.0683  0.1486
   72SLPC   H8R 6299   2.077   5.290   9.621  0.4079  0.8434 -0.1023
   72SLPC   H8S 6300   2.151   5.166   9.513  0.3733  0.3655 -0.2951
   72SLPC   C29 6301   2.237   5.366   9.503 -0.4487  0.2125 -0.1663
   72SLPC   H9R 6302   2.260   5.456   9.561  0.5123  0.1318 -0.4097
   72SLPC  C210 6303   2.275   5.360   9.379 -0.4067  0.3239 -0.5524
   72SLPC  H10R 6304   2.337   5.442   9.339 -0.4655  2.2670  2.9421
   72SLPC  C211 6305   2.272   5.248   9.281  0.7191  0.3806  0.6021
   72SLPC  H11R 6306   2.314   5.160   9.335 -2.9630 -0.4645  2.4280
   72SLPC  H11S 6307   2.348   5.265   9.202  1.2336 -0.3466  0.9223
   72SLPC  C212 6308   2.146   5.185   9.213 -0.0223  0.7847  0.4109
   72SLPC  H12R 6309   2.065   5.143   9.275 -0.4167 -3.2124 -2.3645
   72SLPC  C213 6310   2.120   5.177   9.080  0.1558  0.1552  0.2090
   72SLPC  H13R 6311   2.017   5.148   9.055 -0.0628  0.9357  0.1946
   72SLPC  C214 6312   2.199   5.230   8.959  1.2976  0.0245 -0.0754
   72SLPC  H14R 6313   2.246   5.143   8.907  0.8060 -0.9646  1.0926
   72SLPC  H14S 6314   2.277   5.293   9.005  0.0737  1.8934 -0.4381
   72SLPC  C215 6315   2.124   5.309   8.845 -0.7610  0.2642 -0.0909
   72SLPC  H15R 6316   2.061   5.242   8.783 -0.2119  1.4516 -2.0429
   72SLPC  H15S 6317   2.207   5.350   8.782  1.6583  0.3525  2.9274
   72SLPC  C216 6318   2.056   5.431   8.892 -0.3552 -0.1226 -0.0015
   72SLPC  H16R 6319   2.119   5.502   8.949 -0.2052  0.9436 -1.4445
   72SLPC  H16S 6320   1.975   5.401   8.962  0.5792 -1.2668  0.6375
   72SLPC  C217 6321   1.995   5.505   8.772 -0.0921  0.1518 -0.4980
   72SLPC  H17R 6322   1.947   5.591   8.823  1.3872  0.6677  0.0898
   72SLPC  H17S 6323   1.915   5.449   8.718 -0.4095  1.8632 -1.9246
   72SLPC  C218 6324   2.101   5.559   8.670 -0.0943 -0.1792  0.0697
   72SLPC  H18R 6325   2.053   5.632   8.600  1.5248  0.8130 -0.0678
   72SLPC  H18S 6326   2.161   5.483   8.616  0.7381 -0.4170  1.3001
   72SLPC  H18T 6327   2.169   5.623   8.730  0.6678 -0.6942 -0.2308
   72SLPC   C33 6328   2.059   5.664   9.858 -0.2126  0.5256  0.2901
   72SLPC   H3X 6329   2.106   5.765   9.862 -1.9243  1.4016 -0.4846
   72SLPC   H3Y 6330   1.956   5.680   9.895 -0.7146 -1.4008 -0.1567
   72SLPC   C34 6331   2.053   5.628   9.710 -0.1944  0.3978  0.4780
   72SLPC   H4X 6332   1.950   5.647   9.674 -0.1767  0.3827  0.4186
   72SLPC   H4Y 6333   2.072   5.518   9.706  1.5846  0.5163  3.1096
   72SLPC   C35 6334   2.155   5.708   9.624  0.1395  0.5205  0.6584
   72SLPC   H5X 6335   2.251   5.662   9.654 -0.7630 -0.3786  2.2849
   72SLPC   H5Y 6336   2.152   5.816   9.648 -0.5606  1.1878 -2.0732
   72SLPC   C36 6337   2.121   5.690   9.476 -1.0746 -1.2149 -0.2620
   72SLPC   H6X 6338   2.055   5.773   9.442 -0.3019 -0.3222  0.3639
   72SLPC   H6Y 6339   2.079   5.588   9.461 -2.4729 -1.2065  2.8268
   72SLPC   C37 6340   2.244   5.709   9.377  0.0206 -0.1140 -0.5181
   72SLPC   H7X 6341   2.331   5.647   9.406  1.0828  1.7329  0.3809
   72SLPC   H7Y 6342   2.277   5.814   9.388  1.9547 -0.7808  0.4837
   72SLPC   C38 6343   2.195   5.693   9.233 -0.3646 -0.6432 -0.1177
   72SLPC   H8X 6344   2.127   5.780   9.227  0.9134  0.4042  0.1721
   72SLPC   H8Y 6345   2.131   5.602   9.238 -0.4384 -0.5645  0.4316
   72SLPC   C39 6346   2.301   5.696   9.122 -0.2502 -0.5578 -0.7208
   72SLPC   H9X 6347   2.258   5.729   9.025  0.8031  2.7624 -0.1727
   72SLPC   H9Y 6348   2.328   5.589   9.107  0.8573 -0.2394 -1.0634
   72SLPC  C310 6349   2.418   5.777   9.160 -0.0384  0.0933 -0.0173
   72SLPC  H10X 6350   2.465   5.715   9.239  1.3776 -0.5510 -1.3128
   72SLPC  H10Y 6351   2.395   5.881   9.194  0.8652  0.0199  0.8645
   72SLPC  C311 6352   2.513   5.807   9.045  0.6205  0.2326 -0.2660
   72SLPC  H11X 6353   2.526   5.711   8.991 -1.4967  0.5927 -1.4963
   72SLPC  H11Y 6354   2.612   5.841   9.083  0.7442 -1.0936  0.6617
   72SLPC  C312 6355   2.459   5.909   8.938  0.0547 -0.3372 -0.7789
   72SLPC  H12X 6356   2.421   5.991   9.004  0.0785  0.7845 -2.1147
   72SLPC  H12Y 6357   2.371   5.867   8.885 -1.9588  0.9335  1.3359
   72SLPC  C313 6358   2.563   5.958   8.843  0.0755  0.1080 -0.7490
   72SLPC  H13X 6359   2.560   5.886   8.759 -2.1667 -1.5178  0.6184
   72SLPC  H13Y 6360   2.663   5.970   8.889 -0.6091  1.1342  0.5592
   72SLPC  C314 6361   2.511   6.096   8.788  0.0122 -0.3588  0.1488
   72SLPC  H14X 6362   2.491   6.167   8.871 -2.0350 -1.5356  0.7470
   72SLPC  H14Y 6363   2.414   6.083   8.734 -0.4297  0.9375  0.5936
   72SLPC  C315 6364   2.618   6.164   8.695 -0.1209 -0.6919 -0.7414
   72SLPC  H15X 6365   2.707   6.201   8.750 -1.9077  0.4372  1.5864
   72SLPC  H15Y 6366   2.576   6.257   8.651 -0.1609  0.4870  1.6099
   72SLPC  C316 6367   2.680   6.078   8.583  0.2648 -0.5835  0.0627
   72SLPC  H16X 6368   2.607   6.035   8.511  0.6299  2.1767 -2.1448
   72SLPC  H16Y 6369   2.731   5.993   8.633  1.7648  0.4771  0.4176
   72SLPC  C317 6370   2.781   6.151   8.491 -0.6933  0.1100 -0.1578
   72SLPC  H17X 6371   2.744   6.229   8.421 -0.7929 -0.3492 -0.6279
   72SLPC  H17Y 6372   2.812   6.069   8.422  1.6091  2.0283 -1.5626
   72SLPC  C318 6373   2.901   6.213   8.563  0.6064  0.3230  0.0494
   72SLPC  H18X 6374   2.989   6.211   8.495  0.3654 -0.1581 -0.2592
   72SLPC  H18Y 6375   2.925   6.144   8.646 -0.8115 -0.0741  0.1566
   72SLPC  H18Z 6376   2.881   6.316   8.598  1.1808  0.5846 -0.3796
   73SLPC     N 6377   3.936   4.594  11.171  0.5040  0.2574 -0.5214
   73SLPC   C13 6378   3.831   4.649  11.262 -0.0973  0.1956  0.2611
   73SLPC  H13A 6379   3.740   4.657  11.204  0.0895 -0.4098 -0.1315
   73SLPC  H13B 6380   3.815   4.576  11.340 -0.4068  0.6254  0.6028
   73SLPC  H13C 6381   3.859   4.742  11.310  0.6287  0.4500 -0.6170
   73SLPC   C14 6382   3.881   4.471  11.100  0.4193  0.1295 -0.1146
   73SLPC  H14A 6383   3.831   4.406  11.170  2.4041 -2.0829 -0.6413
   73SLPC  H14B 6384   3.811   4.504  11.024  0.7251  1.7331  0.2640
   73SLPC  H14C 6385   3.965   4.415  11.063 -0.8278 -0.7441 -1.7683
   73SLPC   C15 6386   4.054   4.548  11.252  0.2176 -0.4061 -0.1929
   73SLPC  H15A 6387   4.033   4.474  11.327  0.5379 -0.7503 -0.4378
   73SLPC  H15B 6388   4.137   4.515  11.191 -1.0812 -0.2077 -2.1605
   73SLPC  H15C 6389   4.086   4.633  11.311  0.2686 -0.5425 -0.0261
   73SLPC   C12 6390   3.974   4.702  11.073  0.1226  0.2978 -0.1807
   73SLPC  H12A 6391   4.059   4.680  11.009  1.3900  2.1365  0.7758
   73SLPC  H12B 6392   4.008   4.786  11.132  1.1544 -0.3203  0.1417
   73SLPC   C11 6393   3.875   4.745  10.967 -0.6015  0.2314 -0.0872
   73SLPC  H11A 6394   3.868   4.659  10.897  0.3654  0.0691 -0.0005
   73SLPC  H11B 6395   3.924   4.828  10.911 -2.5170  1.5044  0.0294
   73SLPC     P 6396   3.637   4.850  10.930 -0.0795 -0.1410  0.1160
   73SLPC   O13 6397   3.509   4.809  10.991  0.4073 -0.5960 -0.6118
   73SLPC   O14 6398   3.656   4.990  10.921 -0.1958 -0.4279 -0.0745
   73SLPC   O12 6399   3.757   4.797  11.018  0.4306  0.2144  0.2748
   73SLPC   O11 6400   3.665   4.779  10.792  0.4248 -0.3678  0.1548
   73SLPC    C1 6401   3.632   4.646  10.763 -0.4749  0.0998  1.1048
   73SLPC    HA 6402   3.725   4.597  10.727 -1.6760 -1.7842  0.4609
   73SLPC    HB 6403   3.585   4.588  10.845  1.0792  0.9656  2.6765
   73SLPC    C2 6404   3.550   4.647  10.630  0.2766  0.6201  0.8541
   73SLPC    HS 6405   3.526   4.542  10.602 -1.7009  1.7296 -2.0593
   73SLPC   O21 6406   3.620   4.707  10.523  0.2333  0.5815 -0.1793
   73SLPC   C21 6407   3.702   4.629  10.451 -0.1218  0.5009 -0.0577
   73SLPC   O22 6408   3.718   4.512  10.471 -0.0858 -0.3331 -0.0837
   73SLPC   C22 6409   3.779   4.710  10.349 -0.1013  0.0386 -0.2046
   73SLPC   H2R 6410   3.720   4.802  10.327  0.7344  0.8917  0.9664
   73SLPC   H2S 6411   3.870   4.750  10.399  0.5423  1.1687 -2.1458
   73SLPC    C3 6412   3.408   4.714  10.643  0.0129 -0.4961 -0.6204
   73SLPC    HX 6413   3.432   4.819  10.671 -2.7143 -0.0917  0.4749
   73SLPC    HY 6414   3.362   4.667  10.733  2.9806  0.6183  1.6658
   73SLPC   O31 6415   3.337   4.691  10.523  0.0097  0.1280  0.0899
   73SLPC   C31 6416   3.267   4.802  10.482 -0.3470 -0.5086  0.7567
   73SLPC   O32 6417   3.261   4.901  10.550 -0.4868 -0.2866 -0.8318
   73SLPC   C32 6418   3.196   4.785  10.348  0.2694  0.2045  1.0773
   73SLPC   H2X 6419   3.197   4.888  10.309 -0.6047 -0.0587  0.3374
   73SLPC   H2Y 6420   3.090   4.761  10.370  0.5729 -0.8259  1.4935
   73SLPC   C23 6421   3.819   4.628  10.222  0.3547 -0.0080  0.0414
   73SLPC   H3R 6422   3.728   4.573  10.188 -0.5584  1.2764  0.3252
   73SLPC   H3S 6423   3.910   4.574  10.256  0.7879  0.9356  0.4016
   73SLPC   C24 6424   3.876   4.706  10.107  0.1009 -0.4128  0.3452
   73SLPC   H4R 6425   3.918   4.638  10.029 -0.1468 -0.4458  0.2385
   73SLPC   H4S 6426   3.957   4.768  10.150  0.0280 -1.1971  1.6696
   73SLPC   C25 6427   3.771   4.784  10.027 -0.1977 -0.3275 -0.0568
   73SLPC   H5R 6428   3.733   4.870  10.086  1.5265 -0.0895  0.7720
   73SLPC   H5S 6429   3.678   4.724  10.012 -0.3351 -0.1134 -0.0585
   73SLPC   C26 6430   3.822   4.808   9.886  0.2322  0.3670 -0.3506
   73SLPC   H6R 6431   3.848   4.710   9.839  1.9361  0.8641 -0.5317
   73SLPC   H6S 6432   3.921   4.856   9.899  0.4438 -0.5947  1.9472
   73SLPC   C27 6433   3.730   4.899   9.806 -0.0215  0.2057 -0.4709
   73SLPC   H7R 6434   3.707   4.992   9.862  1.1942  0.4368 -0.3311
   73SLPC   H7S 6435   3.642   4.836   9.779  0.3833 -0.2033 -0.8537
   73SLPC   C28 6436   3.801   4.956   9.678  0.9766  0.0654  0.2810
   73SLPC   H8R 6437   3.829   4.867   9.618 -0.1896  0.2635 -0.5964
   73SLPC   H8S 6438   3.889   5.019   9.703  0.4227  0.5854  0.9697
   73SLPC   C29 6439   3.706   5.043   9.607  0.5389 -0.7630  0.5955
   73SLPC   H9R 6440   3.708   5.143   9.652  4.7687 -0.2028 -0.3815
   73SLPC  C210 6441   3.635   5.015   9.492 -0.1683 -0.5263  0.2968
   73SLPC  H10R 6442   3.550   5.073   9.454 -1.7975 -3.3366 -0.6728
   73SLPC  C211 6443   3.639   4.878   9.421  0.1105  0.1499 -0.4798
   73SLPC  H11R 6444   3.550   4.822   9.455  1.0752 -0.9018  0.3873
   73SLPC  H11S 6445   3.733   4.822   9.439  0.1937  0.7867  1.1990
   73SLPC  C212 6446   3.629   4.894   9.273  0.0997  0.0944 -1.0247
   73SLPC  H12R 6447   3.522   4.895   9.246 -0.5464 -0.0908  1.3031
   73SLPC  C213 6448   3.725   4.882   9.181 -0.2851  0.8301 -0.3608
   73SLPC  H13R 6449   3.702   4.889   9.074  0.1789  1.9972 -0.4015
   73SLPC  C214 6450   3.876   4.864   9.200  0.5192  0.3153 -0.2996
   73SLPC  H14R 6451   3.924   4.930   9.275  1.4038  1.6107 -1.9439
   73SLPC  H14S 6452   3.931   4.890   9.107  1.6887 -1.0251 -0.0161
   73SLPC  C215 6453   3.901   4.707   9.213  0.1813  0.8135  0.4943
   73SLPC  H15R 6454   3.833   4.647   9.150  0.5675 -1.8343  2.4114
   73SLPC  H15S 6455   3.877   4.680   9.318 -2.7565 -1.2316 -0.5912
   73SLPC  C216 6456   4.046   4.660   9.188  0.2209 -0.3781 -0.7808
   73SLPC  H16R 6457   4.111   4.703   9.267  0.2205  0.3257 -1.1559
   73SLPC  H16S 6458   4.083   4.692   9.088  1.9855  0.4844  0.1044
   73SLPC  C217 6459   4.082   4.508   9.184 -0.4249 -0.1167 -0.4354
   73SLPC  H17R 6460   4.191   4.495   9.163 -0.2543 -1.0710  0.8883
   73SLPC  H17S 6461   4.027   4.463   9.099 -0.4605 -0.8572 -0.0362
   73SLPC  C218 6462   4.059   4.454   9.319 -0.1893 -0.1845  0.0663
   73SLPC  H18R 6463   4.090   4.347   9.322  1.3939  0.2743  1.5468
   73SLPC  H18S 6464   3.951   4.450   9.346 -0.4123 -0.3077 -0.8184
   73SLPC  H18T 6465   4.123   4.512   9.389 -0.5494  0.3213 -0.0200
   73SLPC   C33 6466   3.273   4.677  10.259  0.2803  0.1144  0.8058
   73SLPC   H3X 6467   3.221   4.666  10.161  0.3768 -1.6130  0.9204
   73SLPC   H3Y 6468   3.274   4.579  10.311  1.4861  0.1916  0.9692
   73SLPC   C34 6469   3.426   4.713  10.235 -0.1607  0.1463 -0.2446
   73SLPC   H4X 6470   3.466   4.645  10.157  1.8812  1.7369 -0.6673
   73SLPC   H4Y 6471   3.484   4.704  10.330  2.7209 -1.7106 -2.0273
   73SLPC   C35 6472   3.443   4.854  10.183 -0.3451 -0.6299 -0.1485
   73SLPC   H5X 6473   3.551   4.880  10.196 -0.4707  0.1350 -0.6070
   73SLPC   H5Y 6474   3.391   4.931  10.244  2.9934  1.7740 -0.0430
   73SLPC   C36 6475   3.391   4.868  10.037 -0.2627 -0.2543 -0.6010
   73SLPC   H6X 6476   3.281   4.852  10.046 -0.1549 -0.3297  0.7306
   73SLPC   H6Y 6477   3.435   4.793   9.968  1.8892  0.4107 -0.0229
   73SLPC   C37 6478   3.400   5.010   9.982  0.2260 -0.0411  0.2056
   73SLPC   H7X 6479   3.505   5.044   9.986  0.4262 -0.5108 -0.7169
   73SLPC   H7Y 6480   3.341   5.056  10.064  0.4084 -0.2877  0.4804
   73SLPC   C38 6481   3.345   5.024   9.838  0.6832 -0.4966 -0.7560
   73SLPC   H8X 6482   3.413   4.990   9.758  1.3602  1.1963 -0.9562
   73SLPC   H8Y 6483   3.347   5.134   9.822  2.0825 -0.4121 -0.1758
   73SLPC   C39 6484   3.202   4.971   9.822 -0.1634 -1.1086  0.3321
   73SLPC   H9X 6485   3.142   5.029   9.895 -1.1513  0.1664 -1.4104
   73SLPC   H9Y 6486   3.203   4.863   9.845  0.8420 -1.5361 -1.5332
   73SLPC  C310 6487   3.141   4.986   9.674 -0.5850  0.3567  0.0444
   73SLPC  H10X 6488   3.135   5.093   9.645 -0.9728 -0.0075 -1.2788
   73SLPC  H10Y 6489   3.036   4.954   9.684  0.2033 -2.2206  0.6141
   73SLPC  C311 6490   3.207   4.892   9.576  0.4497  0.2283  1.1272
   73SLPC  H11X 6491   3.198   4.783   9.594  1.9140 -0.1972 -0.4320
   73SLPC  H11Y 6492   3.316   4.914   9.572  0.1270  2.1610  1.8422
   73SLPC  C312 6493   3.150   4.925   9.433  0.6424  0.0816  0.0451
   73SLPC  H12X 6494   3.163   5.032   9.407  0.5876  0.4442  1.4250
   73SLPC  H12Y 6495   3.042   4.898   9.439  0.3578  1.3545  1.4759
   73SLPC  C313 6496   3.203   4.827   9.321  0.0404 -0.8492  0.1614
   73SLPC  H13X 6497   3.307   4.863   9.306 -0.2778 -0.1926 -0.5801
   73SLPC  H13Y 6498   3.146   4.853   9.229 -0.7026 -1.2657  0.4937
   73SLPC  C314 6499   3.216   4.674   9.333 -0.1637  0.5609  0.0731
   73SLPC  H14X 6500   3.119   4.621   9.333  0.9395 -1.6194  0.7699
   73SLPC  H14Y 6501   3.273   4.656   9.427  2.4634  4.2592 -0.5747
   73SLPC  C315 6502   3.314   4.609   9.230  0.0807  0.9740 -0.2966
   73SLPC  H15X 6503   3.339   4.512   9.277  0.5903  1.0688 -0.3642
   73SLPC  H15Y 6504   3.418   4.649   9.226 -0.3295  1.9899 -2.2845
   73SLPC  C316 6505   3.260   4.594   9.080 -0.7690  0.4843 -0.3043
   73SLPC  H16X 6506   3.150   4.593   9.096 -0.3193  1.4994  3.8785
   73SLPC  H16Y 6507   3.293   4.501   9.029 -0.7651 -0.6669  1.7385
   73SLPC  C317 6508   3.310   4.712   8.986 -0.1579 -0.1532 -0.0319
   73SLPC  H17X 6509   3.418   4.724   9.013 -0.6496  0.0454  2.0584
   73SLPC  H17Y 6510   3.255   4.806   9.003 -0.0103  0.2609 -1.7114
   73SLPC  C318 6511   3.284   4.673   8.834 -0.1383  0.1178 -0.2451
   73SLPC  H18X 6512   3.317   4.755   8.767  2.0755 -0.3671  0.1768
   73SLPC  H18Y 6513   3.175   4.659   8.814  0.5751 -2.6779 -2.9439
   73SLPC  H18Z 6514   3.328   4.576   8.803  0.2003  0.1093  0.2482
   74SLPC     N 6515   4.157   2.185  10.794  0.2445  0.5586 -0.8517
   74SLPC   C13 6516   4.174   2.190  10.642  0.0619 -0.3770 -0.5943
   74SLPC  H13A 6517   4.175   2.088  10.607  0.1113 -0.8606  0.7681
   74SLPC  H13B 6518   4.084   2.230  10.599  1.0027  2.8129  0.1201
   74SLPC  H13C 6519   4.270   2.230  10.613  0.2638 -0.8167 -0.5390
   74SLPC   C14 6520   4.090   2.306  10.864 -0.1716 -0.7195  0.8914
   74SLPC  H14A 6521   4.064   2.313  10.968 -1.1038  0.2022  0.6169
   74SLPC  H14B 6522   4.154   2.391  10.849  0.7071 -1.6097 -0.7004
   74SLPC  H14C 6523   4.003   2.340  10.810  1.7585  1.9847 -0.7787
   74SLPC   C15 6524   4.296   2.170  10.849 -0.1013 -0.2514 -0.5343
   74SLPC  H15A 6525   4.298   2.192  10.955  0.2952  0.0027 -0.5917
   74SLPC  H15B 6526   4.331   2.068  10.846 -0.7813 -0.5511  0.9563
   74SLPC  H15C 6527   4.373   2.232  10.806  2.2125 -3.0134 -0.7145
   74SLPC   C12 6528   4.061   2.070  10.833  0.6040 -0.1449 -0.1221
   74SLPC  H12A 6529   3.971   2.100  10.779  0.8608  0.0601 -0.4444
   74SLPC  H12B 6530   4.033   2.075  10.937  0.4732 -0.7539 -0.1249
   74SLPC   C11 6531   4.093   1.925  10.791 -0.3721  0.7762 -0.3723
   74SLPC  H11A 6532   4.016   1.853  10.826 -0.5172  0.8551 -0.5257
   74SLPC  H11B 6533   4.181   1.892  10.850  1.0357  1.7771 -1.8453
   74SLPC     P 6534   3.985   1.883  10.561  0.1239 -0.7461 -0.0940
   74SLPC   O13 6535   3.930   1.748  10.590  0.3507  0.7547 -0.4229
   74SLPC   O14 6536   3.893   1.999  10.571 -0.1099  0.2482  0.0080
   74SLPC   O12 6537   4.110   1.912  10.653 -0.1560  0.5183  0.0223
   74SLPC   O11 6538   4.038   1.879  10.417 -0.0279 -0.1518 -0.4874
   74SLPC    C1 6539   4.165   1.931  10.373 -0.4582  0.1265  0.5712
   74SLPC    HA 6540   4.150   2.020  10.309 -0.0582 -1.5873 -2.0704
   74SLPC    HB 6541   4.233   1.958  10.456  0.7477 -1.1221  0.0317
   74SLPC    C2 6542   4.250   1.828  10.295 -0.8511  0.4103 -0.0612
   74SLPC    HS 6543   4.345   1.873  10.260 -0.3069 -0.4729  0.2267
   74SLPC   O21 6544   4.181   1.770  10.186  0.9967  0.6771 -0.1901
   74SLPC   C21 6545   4.157   1.848  10.085 -0.5645  0.3110  0.9099
   74SLPC   O22 6546   4.198   1.967  10.073  0.1062  0.2153  0.9713
   74SLPC   C22 6547   4.088   1.775   9.980  0.1628  0.5702 -0.2291
   74SLPC   H2R 6548   4.119   1.669   9.963  1.2880  0.9466 -0.6348
   74SLPC   H2S 6549   3.979   1.782  10.003  0.3963  0.6603  0.8863
   74SLPC    C3 6550   4.307   1.715  10.391  0.3294  0.0460 -0.0293
   74SLPC    HX 6551   4.225   1.669  10.450 -0.0566 -1.3960 -1.6085
   74SLPC    HY 6552   4.370   1.752  10.475  0.6243 -2.1599  0.7768
   74SLPC   O31 6553   4.377   1.610  10.323  0.2063  0.1811  0.6084
   74SLPC   C31 6554   4.510   1.624  10.309 -0.8148 -0.2655 -0.3143
   74SLPC   O32 6555   4.576   1.724  10.342  0.0208  0.3207 -0.0089
   74SLPC   C32 6556   4.569   1.496  10.257 -0.5636 -0.4341 -0.8359
   74SLPC   H2X 6557   4.579   1.418  10.335  1.2294 -0.3735 -0.9674
   74SLPC   H2Y 6558   4.673   1.513  10.220 -0.2702  2.2838  1.0413
   74SLPC   C23 6559   4.116   1.853   9.847  0.0660  0.4883  0.8305
   74SLPC   H3R 6560   4.222   1.843   9.818 -0.3530  0.2999 -0.7001
   74SLPC   H3S 6561   4.098   1.963   9.852 -0.7013  0.3321  2.5369
   74SLPC   C24 6562   4.031   1.791   9.736  0.5658 -1.1764  0.4076
   74SLPC   H4R 6563   3.923   1.816   9.748  1.0770  1.3598  0.3180
   74SLPC   H4S 6564   4.038   1.682   9.718  3.6237 -0.7264 -2.0529
   74SLPC   C25 6565   4.071   1.865   9.603 -0.2739 -0.4913 -0.6335
   74SLPC   H5R 6566   4.182   1.868   9.611 -0.3302 -1.6316  1.2376
   74SLPC   H5S 6567   4.050   1.974   9.605  1.2645 -0.1708  1.1082
   74SLPC   C26 6568   4.033   1.792   9.474  0.2323 -0.1812 -0.4666
   74SLPC   H6R 6569   3.925   1.815   9.478 -0.0892 -1.6046 -0.5191
   74SLPC   H6S 6570   4.049   1.682   9.475  0.3393 -0.2047 -2.0363
   74SLPC   C27 6571   4.090   1.861   9.349 -0.0419 -0.2533 -0.6183
   74SLPC   H7R 6572   4.200   1.841   9.345  0.2938  0.2374  2.9262
   74SLPC   H7S 6573   4.084   1.969   9.372  0.7552 -0.6119  1.5183
   74SLPC   C28 6574   4.023   1.829   9.219  0.4009  0.0226 -0.2482
   74SLPC   H8R 6575   3.914   1.843   9.234  0.4419 -0.5892  0.7525
   74SLPC   H8S 6576   4.045   1.724   9.188 -1.0074  0.5621 -3.5040
   74SLPC   C29 6577   4.085   1.910   9.102  0.0238  0.1089 -0.9579
   74SLPC   H9R 6578   4.129   2.004   9.138 -2.3509  0.7897  0.3587
   74SLPC  C210 6579   4.079   1.883   8.969 -0.0634  0.4366 -0.2882
   74SLPC  H10R 6580   4.129   1.942   8.891  1.3570 -0.6838 -0.2637
   74SLPC  C211 6581   4.016   1.757   8.913 -0.3766  0.2288  0.8933
   74SLPC  H11R 6582   3.945   1.720   8.989  1.7521  0.3434  3.0290
   74SLPC  H11S 6583   4.094   1.682   8.890 -0.4151  0.7165 -1.0568
   74SLPC  C212 6584   3.942   1.785   8.782 -0.5214 -0.6212 -0.6761
   74SLPC  H12R 6585   3.835   1.805   8.797 -0.4691 -1.4934  1.0989
   74SLPC  C213 6586   3.976   1.773   8.654  0.3424 -0.4632 -0.0379
   74SLPC  H13R 6587   3.900   1.808   8.582  0.1376  1.2718  0.9747
   74SLPC  C214 6588   4.106   1.716   8.603 -0.2020 -0.3106  0.3257
   74SLPC  H14R 6589   4.195   1.764   8.650 -1.4286  2.8236 -0.3171
   74SLPC  H14S 6590   4.112   1.731   8.493 -4.0870  1.7085  0.2132
   74SLPC  C215 6591   4.113   1.566   8.621  0.2550  0.0129  0.5937
   74SLPC  H15R 6592   4.095   1.547   8.729 -1.8130 -1.2849  0.0772
   74SLPC  H15S 6593   4.214   1.533   8.587  0.4225  2.2874 -1.3925
   74SLPC  C216 6594   4.031   1.480   8.522  0.2808  0.0874 -0.2349
   74SLPC  H16R 6595   4.053   1.511   8.418  1.0632 -0.1194 -0.1423
   74SLPC  H16S 6596   3.921   1.479   8.539  0.2194  2.7075 -0.0906
   74SLPC  C217 6597   4.083   1.333   8.518 -0.0025 -0.6888  0.4290
   74SLPC  H17R 6598   4.193   1.335   8.502 -0.1363 -0.3917 -0.5497
   74SLPC  H17S 6599   4.047   1.273   8.432  2.5309 -1.4071 -0.2325
   74SLPC  C218 6600   4.043   1.261   8.640  0.1789 -0.5254 -0.5506
   74SLPC  H18R 6601   4.049   1.328   8.728 -1.7688  1.8480 -2.0829
   74SLPC  H18S 6602   4.103   1.169   8.657 -0.2708 -1.0053 -1.4903
   74SLPC  H18T 6603   3.936   1.232   8.626  0.6363 -0.8643 -4.2398
   74SLPC   C33 6604   4.484   1.438  10.145  0.1429  0.5775  0.2300
   74SLPC   H3X 6605   4.374   1.446  10.163 -0.1008 -0.7432 -0.4732
   74SLPC   H3Y 6606   4.519   1.335  10.125  1.0394  0.8034  0.6288
   74SLPC   C34 6607   4.479   1.514  10.014 -0.0644 -0.4871  0.4568
   74SLPC   H4X 6608   4.577   1.539   9.968 -1.0497  2.8101 -0.0973
   74SLPC   H4Y 6609   4.438   1.612  10.046  1.1711 -0.2240  1.3084
   74SLPC   C35 6610   4.394   1.450   9.905  0.0012  0.3013  0.1969
   74SLPC   H5X 6611   4.297   1.420   9.950 -0.4774  0.0191 -0.9837
   74SLPC   H5Y 6612   4.443   1.354   9.875  1.9402  0.9286  1.2137
   74SLPC   C36 6613   4.377   1.538   9.782 -0.1395  0.5647 -0.3660
   74SLPC   H6X 6614   4.475   1.585   9.759 -0.1456 -0.6144 -3.2131
   74SLPC   H6Y 6615   4.304   1.619   9.802  0.1284  0.1462  2.8944
   74SLPC   C37 6616   4.348   1.456   9.657  0.8543 -0.2550  0.1372
   74SLPC   H7X 6617   4.254   1.405   9.686  1.1603 -0.8553  0.0787
   74SLPC   H7Y 6618   4.421   1.378   9.626 -0.0751 -0.2020 -2.3468
   74SLPC   C38 6619   4.330   1.544   9.529 -0.7206 -0.1491  0.1641
   74SLPC   H8X 6620   4.413   1.618   9.537  0.7210 -1.7408  0.6778
   74SLPC   H8Y 6621   4.229   1.589   9.538 -1.2060 -1.2536  0.3880
   74SLPC   C39 6622   4.357   1.469   9.402  0.5645 -0.5738 -0.0477
   74SLPC   H9X 6623   4.276   1.394   9.387 -2.2667  2.1822  0.4107
   74SLPC   H9Y 6624   4.458   1.425   9.394  1.6659  1.9092 -0.7055
   74SLPC  C310 6625   4.344   1.557   9.276 -0.2358  0.1678  0.1311
   74SLPC  H10X 6626   4.425   1.634   9.277 -0.0880  0.0189 -0.1335
   74SLPC  H10Y 6627   4.256   1.624   9.276  0.4456  1.1255 -1.5019
   74SLPC  C311 6628   4.355   1.475   9.150  0.3760  0.1371  0.8435
   74SLPC  H11X 6629   4.274   1.398   9.148  0.2731  0.2363  1.1159
   74SLPC  H11Y 6630   4.451   1.420   9.136 -0.2892 -0.7808 -0.3303
   74SLPC  C312 6631   4.347   1.551   9.014 -0.1563  0.6173  0.0142
   74SLPC  H12X 6632   4.251   1.607   9.009 -0.0742  0.7782  0.2264
   74SLPC  H12Y 6633   4.356   1.484   8.926 -3.2041  0.2423 -0.1371
   74SLPC  C313 6634   4.457   1.663   8.994  0.4062 -0.3521 -0.3697
   74SLPC  H13X 6635   4.562   1.630   9.009  0.1085 -1.3954 -0.5351
   74SLPC  H13Y 6636   4.426   1.753   9.051  0.4508  1.7816 -3.4323
   74SLPC  C314 6637   4.456   1.708   8.849 -0.1577 -0.7339 -0.2204
   74SLPC  H14X 6638   4.371   1.776   8.830  0.5550  1.3200  2.9982
   74SLPC  H14Y 6639   4.467   1.619   8.785  2.5492  0.4714 -1.6020
   74SLPC  C315 6640   4.576   1.793   8.800  0.1841 -0.2989  0.0896
   74SLPC  H15X 6641   4.654   1.717   8.778  0.2788  0.4350 -2.3852
   74SLPC  H15Y 6642   4.596   1.868   8.879 -0.8889  0.2253 -0.1108
   74SLPC  C316 6643   4.547   1.875   8.665 -0.1444  0.5946  0.0337
   74SLPC  H16X 6644   4.512   1.807   8.584  0.3937  2.1705 -1.6008
   74SLPC  H16Y 6645   4.642   1.926   8.638 -0.5987  3.2538  2.8256
   74SLPC  C317 6646   4.430   1.967   8.689 -0.4414  0.3913  0.8048
   74SLPC  H17X 6647   4.449   2.015   8.787 -0.7113  1.0029  0.5599
   74SLPC  H17Y 6648   4.336   1.908   8.689 -1.2079  1.4718 -1.9184
   74SLPC  C318 6649   4.403   2.066   8.575  0.5140  0.6633 -0.8094
   74SLPC  H18X 6650   4.334   2.141   8.619  0.6359 -0.2360  0.9726
   74SLPC  H18Y 6651   4.352   2.028   8.484 -0.9952  1.0011 -0.1259
   74SLPC  H18Z 6652   4.506   2.095   8.545  0.2668 -0.4260 -2.9300
   75SLPC     N 6653   3.504   3.294   6.394 -1.0392 -0.1781 -0.2643
   75SLPC   C13 6654   3.640   3.327   6.341  0.3627  0.3744 -0.2768
   75SLPC  H13A 6655   3.677   3.258   6.267  1.1192 -0.3645  0.7564
   75SLPC  H13B 6656   3.646   3.431   6.313  1.2724  1.1921  2.5433
   75SLPC  H13C 6657   3.719   3.312   6.413  0.1166 -2.1933 -0.4461
   75SLPC   C14 6658   3.504   3.151   6.418  0.2901  0.1072  0.3001
   75SLPC  H14A 6659   3.407   3.114   6.446  1.4789 -2.0344  1.9744
   75SLPC  H14B 6660   3.541   3.093   6.335  0.3831  1.7673 -0.8613
   75SLPC  H14C 6661   3.560   3.108   6.501  0.9106 -0.9987 -0.6518
   75SLPC   C15 6662   3.403   3.323   6.289  0.0831  0.6965 -0.1101
   75SLPC  H15A 6663   3.401   3.429   6.268 -0.0461  0.7121 -0.0200
   75SLPC  H15B 6664   3.415   3.249   6.212 -0.0476  0.1865  0.3494
   75SLPC  H15C 6665   3.309   3.302   6.338  0.0123 -2.0883 -1.2951
   75SLPC   C12 6666   3.480   3.368   6.522  0.5201  0.3255 -0.5841
   75SLPC  H12A 6667   3.574   3.368   6.575  1.1289 -0.7322 -1.5988
   75SLPC  H12B 6668   3.411   3.323   6.593  0.2294  2.0768  0.2788
   75SLPC   C11 6669   3.435   3.517   6.506 -0.3834 -0.2072 -0.0552
   75SLPC  H11A 6670   3.426   3.563   6.607 -1.9548  1.3349 -0.8491
   75SLPC  H11B 6671   3.335   3.519   6.459  0.2975 -0.2504 -1.5520
   75SLPC     P 6672   3.630   3.689   6.478 -0.2313  0.1158 -0.0894
   75SLPC   O13 6673   3.718   3.593   6.551 -0.0703 -0.1645 -0.0358
   75SLPC   O14 6674   3.690   3.766   6.361  0.4988 -0.1050 -0.2239
   75SLPC   O12 6675   3.517   3.595   6.416  0.0657 -0.2762  0.2336
   75SLPC   O11 6676   3.549   3.789   6.582  0.4947  0.3109  0.2297
   75SLPC    C1 6677   3.446   3.870   6.517 -0.4706 -0.0975 -0.2956
   75SLPC    HA 6678   3.462   3.882   6.407 -3.7289 -0.6665 -0.9272
   75SLPC    HB 6679   3.348   3.818   6.520  1.0807 -3.3645 -1.4028
   75SLPC    C2 6680   3.403   3.992   6.599 -0.0914  0.3345  0.4560
   75SLPC    HS 6681   3.489   4.062   6.605 -1.0356  1.5673 -0.1205
   75SLPC   O21 6682   3.355   3.947   6.724 -0.1257  0.2611  0.4195
   75SLPC   C21 6683   3.442   3.958   6.825  0.6040  0.1931 -0.5274
   75SLPC   O22 6684   3.559   3.989   6.813  0.0441  0.2725 -0.3651
   75SLPC   C22 6685   3.387   3.894   6.949  0.2187  0.3015 -0.9346
   75SLPC   H2R 6686   3.287   3.847   6.932  0.8096 -2.0404  1.3865
   75SLPC   H2S 6687   3.456   3.808   6.962  0.5446  0.7970  1.0062
   75SLPC    C3 6688   3.289   4.079   6.543  0.0041 -0.3053  0.4503
   75SLPC    HX 6689   3.191   4.029   6.560 -2.7786  4.9417  2.2599
   75SLPC    HY 6690   3.298   4.089   6.433 -1.8714  1.6863  0.3984
   75SLPC   O31 6691   3.264   4.200   6.612  0.4149 -0.0779  0.1298
   75SLPC   C31 6692   3.361   4.291   6.579 -1.1714  0.5651  0.0842
   75SLPC   O32 6693   3.457   4.264   6.507  0.1944  0.2809 -0.2827
   75SLPC   C32 6694   3.339   4.415   6.672  0.2438  0.7146  0.1762
   75SLPC   H2X 6695   3.231   4.433   6.693  0.3427  0.4397  0.9727
   75SLPC   H2Y 6696   3.382   4.509   6.630  0.4869 -0.3958 -2.2073
   75SLPC   C23 6697   3.387   3.988   7.076 -0.1226  0.7253 -0.8101
   75SLPC   H3R 6698   3.325   4.079   7.063 -1.2786 -0.0091 -0.6104
   75SLPC   H3S 6699   3.484   4.013   7.124 -1.6189  1.2672  2.1746
   75SLPC   C24 6700   3.329   3.912   7.193  0.2974  0.3239  0.3275
   75SLPC   H4R 6701   3.391   3.821   7.203 -1.5210 -1.0169 -0.1824
   75SLPC   H4S 6702   3.226   3.884   7.164  0.6509 -0.4215 -0.2471
   75SLPC   C25 6703   3.347   3.976   7.336  0.1072 -0.2731 -0.5526
   75SLPC   H5R 6704   3.296   4.075   7.335  0.9935  0.1904 -0.3968
   75SLPC   H5S 6705   3.453   3.993   7.361 -0.3992  2.4752  0.0493
   75SLPC   C26 6706   3.270   3.899   7.449 -0.1177  0.6623  0.4409
   75SLPC   H6R 6707   3.330   3.808   7.469  1.1946  1.2687 -0.5880
   75SLPC   H6S 6708   3.175   3.864   7.403 -0.2604  0.5715  0.8022
   75SLPC   C27 6709   3.238   3.970   7.582 -0.5194 -0.3684  0.5762
   75SLPC   H7R 6710   3.227   4.079   7.563  1.3825 -0.3050 -0.4125
   75SLPC   H7S 6711   3.332   3.947   7.637  0.9157  0.2226 -1.5410
   75SLPC   C28 6712   3.118   3.936   7.666  0.3427 -0.7678 -0.4334
   75SLPC   H8R 6713   3.124   3.825   7.665  1.9547 -0.7180  0.2313
   75SLPC   H8S 6714   3.031   3.983   7.617  0.9001  1.6721  0.7753
   75SLPC   C29 6715   3.146   3.994   7.804  0.8650  0.7145 -0.1085
   75SLPC   H9R 6716   3.139   4.103   7.820  1.6728  0.6047  1.0541
   75SLPC  C210 6717   3.182   3.920   7.909 -0.4141 -0.0973  0.0428
   75SLPC  H10R 6718   3.204   3.985   7.994  0.4593  2.2713 -1.8763
   75SLPC  C211 6719   3.184   3.764   7.927  0.5840  0.8288 -0.2206
   75SLPC  H11R 6720   3.276   3.733   7.980  0.3644 -0.7156 -0.6815
   75SLPC  H11S 6721   3.194   3.713   7.829  1.5173  1.5049 -0.4922
   75SLPC  C212 6722   3.064   3.701   8.002 -0.8227 -0.0723  0.4049
   75SLPC  H12R 6723   3.005   3.629   7.944  0.7345  0.7825 -2.4753
   75SLPC  C213 6724   3.050   3.701   8.135 -0.8470 -0.5422  0.3565
   75SLPC  H13R 6725   2.959   3.648   8.166  0.3005 -3.5637 -1.1223
   75SLPC  C214 6726   3.135   3.779   8.242  0.3820  0.2653 -0.0207
   75SLPC  H14R 6727   3.216   3.842   8.200  0.3757  0.6173  0.4994
   75SLPC  H14S 6728   3.178   3.708   8.315  0.2983 -0.6263 -0.8075
   75SLPC  C215 6729   3.046   3.867   8.330  0.0976  0.6699  0.6505
   75SLPC  H15R 6730   3.003   3.950   8.272  2.3990  0.8898 -0.8881
   75SLPC  H15S 6731   3.112   3.907   8.410  0.3947  0.5363  0.4762
   75SLPC  C216 6732   2.939   3.783   8.410  0.1835 -0.4235 -0.5826
   75SLPC  H16R 6733   2.994   3.700   8.460 -2.1453 -1.8011 -0.1894
   75SLPC  H16S 6734   2.862   3.731   8.349  0.9332 -4.7961  1.7809
   75SLPC  C217 6735   2.874   3.869   8.527  0.6118 -0.5193  0.0165
   75SLPC  H17R 6736   2.767   3.892   8.507  0.8130  0.9714  0.5281
   75SLPC  H17S 6737   2.928   3.964   8.545  0.5549 -0.3513 -0.6821
   75SLPC  C218 6738   2.882   3.786   8.659  0.4759  0.8403  0.0383
   75SLPC  H18R 6739   2.858   3.680   8.636  1.0860  1.1231 -2.1270
   75SLPC  H18S 6740   2.819   3.836   8.735  0.7035  1.1234  0.0429
   75SLPC  H18T 6741   2.986   3.798   8.697 -0.7055  3.0024  2.9682
   75SLPC   C33 6742   3.405   4.375   6.811 -0.5130  0.4749  0.3578
   75SLPC   H3X 6743   3.356   4.449   6.878 -0.6590  0.9353 -0.2540
   75SLPC   H3Y 6744   3.381   4.270   6.840  1.2879  0.4491  1.9493
   75SLPC   C34 6745   3.556   4.393   6.828  0.5155 -0.1282 -0.0882
   75SLPC   H4X 6746   3.595   4.470   6.758  0.4896 -1.1953 -1.3098
   75SLPC   H4Y 6747   3.609   4.302   6.792  0.2835  0.3665 -1.7722
   75SLPC   C35 6748   3.604   4.430   6.979 -0.2443 -0.0232 -0.1757
   75SLPC   H5X 6749   3.566   4.531   7.005  0.8493 -0.0803  1.7913
   75SLPC   H5Y 6750   3.714   4.444   6.986 -0.0984 -1.0417 -0.2148
   75SLPC   C36 6751   3.554   4.333   7.084  0.5156  0.2323 -0.6730
   75SLPC   H6X 6752   3.595   4.232   7.062 -2.0380 -0.6184 -2.0973
   75SLPC   H6Y 6753   3.443   4.318   7.079  0.6380 -0.8486 -0.4192
   75SLPC   C37 6754   3.573   4.373   7.235  0.2688 -0.1421 -0.2750
   75SLPC   H7X 6755   3.528   4.474   7.243  2.0654  0.5498  1.9300
   75SLPC   H7Y 6756   3.678   4.380   7.269 -0.3304  2.1082  1.3422
   75SLPC   C38 6757   3.498   4.289   7.337 -0.1510 -0.6825  0.3048
   75SLPC   H8X 6758   3.517   4.179   7.342 -0.6968 -0.9057 -1.5952
   75SLPC   H8Y 6759   3.390   4.291   7.313 -0.3946  0.0641  1.3801
   75SLPC   C39 6760   3.513   4.361   7.476 -0.0971 -0.5420 -0.6808
   75SLPC   H9X 6761   3.477   4.466   7.475 -1.2464 -0.8488  1.3100
   75SLPC   H9Y 6762   3.619   4.354   7.511 -0.4849  0.2309  0.7374
   75SLPC  C310 6763   3.419   4.300   7.583  0.3678  0.4877  0.1306
   75SLPC  H10X 6764   3.441   4.191   7.578 -0.7478  0.2991 -2.6009
   75SLPC  H10Y 6765   3.314   4.314   7.549  0.6297  1.9040 -0.1553
   75SLPC  C311 6766   3.443   4.345   7.729 -0.1576 -0.8184  0.1827
   75SLPC  H11X 6767   3.431   4.454   7.742 -4.4584 -1.3548  2.9675
   75SLPC  H11Y 6768   3.548   4.322   7.757 -0.2512 -0.7864  0.5709
   75SLPC  C312 6769   3.347   4.272   7.829 -0.7897 -0.3315  0.2490
   75SLPC  H12X 6770   3.373   4.164   7.825 -2.9608 -0.8825 -1.2058
   75SLPC  H12Y 6771   3.242   4.286   7.796 -1.3704 -1.6071  1.4157
   75SLPC  C313 6772   3.376   4.331   7.965 -0.8440 -0.3870 -0.0998
   75SLPC  H13X 6773   3.336   4.433   7.978 -1.1131 -0.6948  1.8437
   75SLPC  H13Y 6774   3.486   4.324   7.983 -0.9216 -0.2895  0.4334
   75SLPC  C314 6775   3.313   4.235   8.072 -0.4897 -0.6184  0.1419
   75SLPC  H14X 6776   3.340   4.129   8.049 -0.2520 -0.9978  2.0547
   75SLPC  H14Y 6777   3.204   4.239   8.052 -0.3103 -2.2274 -1.4865
   75SLPC  C315 6778   3.347   4.269   8.221  0.6567 -0.0358 -0.5338
   75SLPC  H15X 6779   3.320   4.374   8.245 -0.5386 -0.4558 -0.0170
   75SLPC  H15Y 6780   3.457   4.273   8.239  0.7892 -0.7548 -1.1127
   75SLPC  C316 6781   3.283   4.166   8.321 -1.1445  0.8568 -0.1787
   75SLPC  H16X 6782   3.325   4.065   8.301  2.8248  2.2959  0.1410
   75SLPC  H16Y 6783   3.174   4.174   8.298 -0.7504 -0.6410 -3.1618
   75SLPC  C317 6784   3.294   4.192   8.467 -0.2641  0.6027  0.5179
   75SLPC  H17X 6785   3.217   4.129   8.517  1.2271 -0.3174  1.7338
   75SLPC  H17Y 6786   3.265   4.298   8.479  0.7932  1.0707 -0.8467
   75SLPC  C318 6787   3.438   4.173   8.524 -0.1114 -0.0769  0.6103
   75SLPC  H18X 6788   3.425   4.172   8.634 -1.3704 -0.4920  0.4790
   75SLPC  H18Y 6789   3.494   4.259   8.483  0.6302 -2.3450 -3.6725
   75SLPC  H18Z 6790   3.494   4.085   8.488 -1.3665 -0.8315  0.4211
   76SLPC     N 6791   6.299   1.060   6.248  0.4945 -0.1978  0.2301
   76SLPC   C13 6792   6.170   1.141   6.227  0.0611 -0.7529 -0.6796
   76SLPC  H13A 6793   6.107   1.107   6.146 -1.0636  4.6434 -2.4632
   76SLPC  H13B 6794   6.113   1.142   6.319  0.5254  3.0609 -0.2671
   76SLPC  H13C 6795   6.203   1.243   6.212 -2.3046  0.3234  0.8429
   76SLPC   C14 6796   6.257   0.932   6.297 -0.0246  0.0686  0.7869
   76SLPC  H14A 6797   6.191   0.942   6.382  0.5843 -0.0356  1.2844
   76SLPC  H14B 6798   6.201   0.874   6.226 -1.7978  1.8846  0.6004
   76SLPC  H14C 6799   6.341   0.870   6.325  0.3237 -0.1437 -0.6784
   76SLPC   C15 6800   6.380   1.135   6.352  0.4908  0.1495  0.1776
   76SLPC  H15A 6801   6.478   1.092   6.363  0.6225  0.3320 -0.2708
   76SLPC  H15B 6802   6.392   1.236   6.315  1.2265 -0.2861 -0.8183
   76SLPC  H15C 6803   6.333   1.129   6.449  1.7729  1.3721  0.9107
   76SLPC   C12 6804   6.382   1.053   6.119 -0.0897 -0.4602 -0.4583
   76SLPC  H12A 6805   6.416   1.152   6.093  0.0330 -0.2562  0.4407
   76SLPC  H12B 6806   6.326   1.006   6.040  0.9673 -1.3011 -0.7364
   76SLPC   C11 6807   6.504   0.966   6.140  0.0828  0.7661 -0.0745
   76SLPC  H11A 6808   6.550   1.011   6.231 -2.2282  0.4769  1.3123
   76SLPC  H11B 6809   6.583   0.976   6.061 -0.0057 -0.1495 -0.2886
   76SLPC     P 6810   6.569   0.709   6.133  0.0107  0.4424 -0.1579
   76SLPC   O13 6811   6.597   0.700   5.990  0.0563 -0.6851  0.0298
   76SLPC   O14 6812   6.684   0.743   6.221  0.1638 -0.0174 -0.3845
   76SLPC   O12 6813   6.469   0.823   6.157  0.7999 -0.5931 -0.3549
   76SLPC   O11 6814   6.495   0.580   6.180 -0.1947  0.6847 -0.3514
   76SLPC    C1 6815   6.392   0.580   6.277 -0.5484 -0.3973 -0.1229
   76SLPC    HA 6816   6.342   0.679   6.281 -1.2754 -0.4465 -4.1883
   76SLPC    HB 6817   6.312   0.509   6.247 -2.9376  1.3055  1.7809
   76SLPC    C2 6818   6.447   0.542   6.420  0.3035  0.4487 -1.1032
   76SLPC    HS 6819   6.368   0.537   6.499  0.0943  3.1234 -1.0683
   76SLPC   O21 6820   6.554   0.623   6.470 -1.1221  0.7098 -0.1335
   76SLPC   C21 6821   6.545   0.742   6.515  0.0747 -0.2506  0.1955
   76SLPC   O22 6822   6.446   0.810   6.530  0.1637 -0.2183  0.3591
   76SLPC   C22 6823   6.689   0.787   6.564 -0.3255  0.6264  0.0305
   76SLPC   H2R 6824   6.745   0.705   6.613 -0.5083  0.2315 -0.4147
   76SLPC   H2S 6825   6.744   0.796   6.468 -0.2438 -1.2907 -0.1239
   76SLPC    C3 6826   6.505   0.396   6.406 -0.2699 -0.4672  0.2145
   76SLPC    HX 6827   6.584   0.406   6.329 -0.2016 -1.2824  0.1626
   76SLPC    HY 6828   6.430   0.324   6.367 -2.0497  0.2403  2.1566
   76SLPC   O31 6829   6.539   0.342   6.530 -0.5061 -0.1966 -0.0426
   76SLPC   C31 6830   6.653   0.373   6.582  0.2454 -0.0123  0.1810
   76SLPC   O32 6831   6.746   0.433   6.531 -0.1471  0.3907  0.4298
   76SLPC   C32 6832   6.644   0.323   6.729  0.4559  0.1697  0.1168
   76SLPC   H2X 6833   6.606   0.219   6.728  2.4296 -0.6156  0.9498
   76SLPC   H2Y 6834   6.572   0.382   6.789  1.8399  1.3517  0.7052
   76SLPC   C23 6835   6.685   0.909   6.661 -0.1713 -0.2611 -0.6116
   76SLPC   H3R 6836   6.619   0.984   6.613 -2.3051 -1.9541 -0.4493
   76SLPC   H3S 6837   6.789   0.948   6.664  0.1200 -1.0527  0.0227
   76SLPC   C24 6838   6.631   0.872   6.802  0.1804  0.0481  0.0423
   76SLPC   H4R 6839   6.527   0.836   6.791 -0.0058  1.0436 -2.0649
   76SLPC   H4S 6840   6.638   0.964   6.863  0.6798  0.4570 -0.6156
   76SLPC   C25 6841   6.722   0.770   6.860 -0.1735 -0.0576 -0.4610
   76SLPC   H5R 6842   6.829   0.794   6.844 -0.2044  1.5525  1.4257
   76SLPC   H5S 6843   6.703   0.665   6.829  1.5716 -0.1682 -1.2820
   76SLPC   C26 6844   6.724   0.775   7.014  0.1490  0.0387  0.0328
   76SLPC   H6R 6845   6.621   0.775   7.056 -0.0134 -0.8374 -0.3631
   76SLPC   H6S 6846   6.756   0.879   7.038  0.9577 -0.0164 -0.7706
   76SLPC   C27 6847   6.827   0.678   7.089  0.5307  0.4361  0.7743
   76SLPC   H7R 6848   6.928   0.717   7.063  0.1820  1.6431  1.1694
   76SLPC   H7S 6849   6.808   0.573   7.061 -0.2357  1.2008 -1.9201
   76SLPC   C28 6850   6.815   0.697   7.238 -0.6549 -0.3898 -0.4419
   76SLPC   H8R 6851   6.798   0.803   7.265  0.6330  0.2071 -1.8304
   76SLPC   H8S 6852   6.730   0.635   7.274  0.8566 -2.2002  0.2051
   76SLPC   C29 6853   6.940   0.638   7.305  0.9139  0.6287 -0.1188
   76SLPC   H9R 6854   6.996   0.560   7.250 -0.8071 -0.3635 -0.5743
   76SLPC  C210 6855   6.980   0.673   7.431 -0.3569 -0.4895 -0.6304
   76SLPC  H10R 6856   7.068   0.628   7.480  0.1912  2.0795  0.9537
   76SLPC  C211 6857   6.905   0.764   7.524 -0.5861 -0.1631 -0.5226
   76SLPC  H11R 6858   6.848   0.846   7.475 -0.9539  0.9404  1.6310
   76SLPC  H11S 6859   6.980   0.823   7.581 -1.3743 -0.1807  0.5620
   76SLPC  C212 6860   6.814   0.693   7.622 -0.2688  0.5815 -0.2805
   76SLPC  H12R 6861   6.730   0.643   7.571  0.3606  0.2084 -0.9629
   76SLPC  C213 6862   6.822   0.699   7.760  0.9523 -0.7199 -1.2942
   76SLPC  H13R 6863   6.739   0.651   7.814  2.9070 -1.4260  1.2910
   76SLPC  C214 6864   6.916   0.776   7.854 -0.0566 -0.1188 -0.0459
   76SLPC  H14R 6865   6.857   0.837   7.926 -0.6346  0.1093 -0.6936
   76SLPC  H14S 6866   6.982   0.849   7.803 -0.4889 -1.1987 -2.3109
   76SLPC  C215 6867   7.001   0.674   7.939 -0.4685  0.6127  0.3557
   76SLPC  H15R 6868   7.078   0.629   7.873 -0.8159  2.7745 -1.6464
   76SLPC  H15S 6869   6.935   0.592   7.976 -1.4378  1.8423  1.4150
   76SLPC  C216 6870   7.063   0.740   8.061 -0.5765  0.0651 -0.0381
   76SLPC  H16R 6871   6.979   0.782   8.121  0.8697  1.0938  1.3871
   76SLPC  H16S 6872   7.130   0.820   8.022 -0.2650 -0.6484 -0.9787
   76SLPC  C217 6873   7.130   0.630   8.143  0.4537  0.0194 -0.3587
   76SLPC  H17R 6874   7.188   0.560   8.080  0.0286  0.6012 -1.4294
   76SLPC  H17S 6875   7.042   0.575   8.183  1.0417 -1.5815 -1.1642
   76SLPC  C218 6876   7.201   0.688   8.262 -0.5852 -0.4978  0.5914
   76SLPC  H18R 6877   7.227   0.605   8.331 -0.6211 -3.3537 -2.5666
   76SLPC  H18S 6878   7.147   0.770   8.313 -0.5645  0.1155 -0.3436
   76SLPC  H18T 6879   7.291   0.741   8.222 -2.0734  0.6172 -1.4697
   76SLPC   C33 6880   6.776   0.311   6.798 -0.0424 -0.1250  0.4110
   76SLPC   H3X 6881   6.825   0.409   6.815  1.7429 -1.3835  3.0628
   76SLPC   H3Y 6882   6.842   0.238   6.746 -0.2863 -1.4093  1.8597
   76SLPC   C34 6883   6.745   0.248   6.932  0.3011  0.0161  0.5295
   76SLPC   H4X 6884   6.667   0.169   6.924  0.2973  0.0707 -0.0432
   76SLPC   H4Y 6885   6.714   0.330   7.000  0.9407 -0.1206  0.9942
   76SLPC   C35 6886   6.867   0.173   6.995  0.2107 -0.0896  0.7532
   76SLPC   H5X 6887   6.935   0.130   6.918  1.3311  0.1705  1.5794
   76SLPC   H5Y 6888   6.815   0.092   7.050 -1.3506 -0.4014 -1.0588
   76SLPC   C36 6889   6.948   0.267   7.088 -0.0178 -0.0370 -0.2061
   76SLPC   H6X 6890   6.882   0.310   7.167  1.6659 -2.4315  2.7213
   76SLPC   H6Y 6891   6.997   0.344   7.024  0.3793  1.4408  1.7452
   76SLPC   C37 6892   7.054   0.184   7.175  0.0617  0.4701  0.8250
   76SLPC   H7X 6893   7.107   0.106   7.118 -0.1469  1.2249 -0.4403
   76SLPC   H7Y 6894   6.996   0.134   7.256  0.5083 -0.0598  0.8230
   76SLPC   C38 6895   7.169   0.269   7.241  0.6326  0.1956  0.7117
   76SLPC   H8X 6896   7.126   0.364   7.279  0.8314  0.6174 -0.1042
   76SLPC   H8Y 6897   7.235   0.297   7.156  0.3311 -2.1073 -0.3521
   76SLPC   C39 6898   7.231   0.180   7.345  0.2937 -0.0086  0.4764
   76SLPC   H9X 6899   7.330   0.214   7.382  1.7313 -1.3850 -1.8523
   76SLPC   H9Y 6900   7.249   0.084   7.293 -2.2619 -0.4713  0.3401
   76SLPC  C310 6901   7.139   0.157   7.471 -0.3816  0.6572 -0.1218
   76SLPC  H10X 6902   7.204   0.120   7.553 -0.6906  1.4857  0.5033
   76SLPC  H10Y 6903   7.055   0.088   7.447 -1.7596  2.2324 -0.0223
   76SLPC  C311 6904   7.066   0.284   7.529  0.3618  0.4683  0.1549
   76SLPC  H11X 6905   6.998   0.314   7.447 -2.1656 -0.3735  1.8269
   76SLPC  H11Y 6906   7.136   0.368   7.550 -0.0756  1.5366 -2.3258
   76SLPC  C312 6907   6.982   0.253   7.656 -0.2982 -0.0669  0.3734
   76SLPC  H12X 6908   6.936   0.153   7.640 -0.6593  0.2762 -0.8409
   76SLPC  H12Y 6909   6.894   0.319   7.665  0.7615  1.3644  0.5537
   76SLPC  C313 6910   7.068   0.254   7.775 -0.5032 -0.3277  0.1289
   76SLPC  H13X 6911   7.132   0.345   7.777 -0.2893 -0.4777  0.2430
   76SLPC  H13Y 6912   7.130   0.162   7.768  2.6156  1.7051 -1.2949
   76SLPC  C314 6913   6.982   0.253   7.908  0.1233  0.6137 -0.0067
   76SLPC  H14X 6914   6.924   0.159   7.923  1.8972 -0.6322 -0.5051
   76SLPC  H14Y 6915   6.909   0.336   7.903 -2.3515 -1.3176  1.4806
   76SLPC  C315 6916   7.066   0.263   8.035  0.4494  0.5200  0.3625
   76SLPC  H15X 6917   7.124   0.358   8.041 -1.7404  2.0379 -1.0285
   76SLPC  H15Y 6918   7.131   0.173   8.028 -1.2224 -0.6009 -2.1215
   76SLPC  C316 6919   6.983   0.254   8.164 -0.2470  0.5977  0.2536
   76SLPC  H16X 6920   6.927   0.157   8.167  0.3524  0.2386 -0.0575
   76SLPC  H16Y 6921   6.904   0.331   8.156  0.2259  1.1932  1.1324
   76SLPC  C317 6922   7.069   0.274   8.287 -0.5069  0.3396  0.6828
   76SLPC  H17X 6923   7.114   0.375   8.299 -0.4964  0.4807 -0.4292
   76SLPC  H17Y 6924   7.150   0.199   8.281 -0.7243  0.0099  1.8347
   76SLPC  C318 6925   6.992   0.257   8.415  0.0296  0.4728 -0.0734
   76SLPC  H18X 6926   6.956   0.152   8.423  1.4958  0.0588  1.8894
   76SLPC  H18Y 6927   6.899   0.318   8.419  1.1450  2.3591 -1.1873
   76SLPC  H18Z 6928   7.055   0.282   8.502  0.7742  1.8053 -0.9582
   77SLPC     N 6929   2.336   2.082   6.152 -0.1512  0.3939 -0.4042
   77SLPC   C13 6930   2.354   2.120   6.016  0.3385 -0.4737 -0.1202
   77SLPC  H13A 6931   2.263   2.156   5.970  0.8693  0.5048 -0.4329
   77SLPC  H13B 6932   2.431   2.196   6.015 -0.5005  0.4012  0.1028
   77SLPC  H13C 6933   2.381   2.039   5.950 -1.0645  2.4483 -4.8150
   77SLPC   C14 6934   2.441   1.987   6.198 -0.2694  0.0333 -0.4780
   77SLPC  H14A 6935   2.430   1.901   6.133 -1.6020  0.9915 -1.5877
   77SLPC  H14B 6936   2.544   2.019   6.191  0.5415 -2.1050  0.8713
   77SLPC  H14C 6937   2.438   1.956   6.301 -1.6136  0.4215 -0.3825
   77SLPC   C15 6938   2.205   2.009   6.166  0.2507  0.7946  0.2746
   77SLPC  H15A 6939   2.181   1.988   6.269 -1.1394  0.6199 -0.0589
   77SLPC  H15B 6940   2.120   2.070   6.137 -0.5693 -0.6082 -0.3543
   77SLPC  H15C 6941   2.201   1.918   6.108 -0.6149 -0.4934  2.2603
   77SLPC   C12 6942   2.336   2.203   6.246 -0.0960 -0.1755 -0.1713
   77SLPC  H12A 6943   2.269   2.279   6.209  0.3116  1.4615  2.2539
   77SLPC  H12B 6944   2.435   2.243   6.234 -0.3644  0.4651 -0.2488
   77SLPC   C11 6945   2.308   2.190   6.399 -0.0894  0.6108 -0.2045
   77SLPC  H11A 6946   2.229   2.113   6.418 -0.9901  1.5208 -0.1651
   77SLPC  H11B 6947   2.257   2.280   6.439 -1.2028 -0.2681  0.4435
   77SLPC     P 6948   2.433   2.070   6.597 -0.4694  0.0842  0.1357
   77SLPC   O13 6949   2.382   1.940   6.559  0.6403 -0.0874  0.4335
   77SLPC   O14 6950   2.567   2.081   6.655  0.1263  0.4276 -0.1972
   77SLPC   O12 6951   2.432   2.172   6.473 -0.4848  0.0587  0.0442
   77SLPC   O11 6952   2.332   2.138   6.693  0.8273 -0.3765 -0.1648
   77SLPC    C1 6953   2.319   2.087   6.830  0.4393  0.5804 -0.2009
   77SLPC    HA 6954   2.216   2.108   6.867 -0.7270 -1.3896 -2.0990
   77SLPC    HB 6955   2.338   1.978   6.826  0.8003  0.6800 -1.6313
   77SLPC    C2 6956   2.429   2.149   6.920  0.2048  0.9648 -0.4224
   77SLPC    HS 6957   2.530   2.112   6.891  0.1021 -0.4321  0.8667
   77SLPC   O21 6958   2.408   2.107   7.057 -0.2604  0.0310 -0.0480
   77SLPC   C21 6959   2.435   1.974   7.081  0.3253  0.0982  0.1525
   77SLPC   O22 6960   2.490   1.898   7.003  0.0275 -0.0596 -0.2266
   77SLPC   C22 6961   2.383   1.935   7.222  0.2573  0.2566 -0.1057
   77SLPC   H2R 6962   2.272   1.944   7.227  0.1882 -0.5637  4.1661
   77SLPC   H2S 6963   2.416   1.830   7.236 -0.1916 -0.1250 -1.7721
   77SLPC    C3 6964   2.443   2.299   6.916  0.5148 -0.0914  0.1098
   77SLPC    HX 6965   2.336   2.324   6.903  0.2904 -0.8369  0.4871
   77SLPC    HY 6966   2.494   2.337   6.825  0.1380 -2.0843 -0.9925
   77SLPC   O31 6967   2.484   2.357   7.044 -0.1879  0.3920  0.0396
   77SLPC   C31 6968   2.611   2.355   7.059  0.5890 -0.7751 -0.1949
   77SLPC   O32 6969   2.690   2.328   6.967 -0.6680  0.4564 -0.4498
   77SLPC   C32 6970   2.657   2.418   7.188  0.4350 -0.4875 -0.5513
   77SLPC   H2X 6971   2.571   2.449   7.251 -1.4936 -0.7620 -2.9435
   77SLPC   H2Y 6972   2.712   2.513   7.172 -0.4579  0.2359  0.4857
   77SLPC   C23 6973   2.452   2.012   7.336 -0.4688 -0.1104 -0.0053
   77SLPC   H3R 6974   2.406   2.112   7.349 -0.4698 -0.2133  0.8571
   77SLPC   H3S 6975   2.556   2.045   7.317  0.2869 -1.6173  1.2745
   77SLPC   C24 6976   2.448   1.943   7.473 -0.3989  0.5044  0.3132
   77SLPC   H4R 6977   2.522   1.860   7.476 -0.2249  0.6438 -0.0631
   77SLPC   H4S 6978   2.346   1.899   7.483 -1.1350  0.9344 -3.6804
   77SLPC   C25 6979   2.474   2.035   7.593  0.4387  0.4770  0.3303
   77SLPC   H5R 6980   2.436   2.135   7.563 -1.1052  0.2207  1.3027
   77SLPC   H5S 6981   2.580   2.049   7.621  0.3904 -1.8952  2.0037
   77SLPC   C26 6982   2.407   1.981   7.716 -0.2884 -0.1956 -0.5288
   77SLPC   H6R 6983   2.444   1.880   7.743  0.0750 -0.2709 -1.2733
   77SLPC   H6S 6984   2.298   1.985   7.699 -0.3281 -0.3990 -0.3247
   77SLPC   C27 6985   2.445   2.065   7.835 -0.1831  0.3741 -0.1905
   77SLPC   H7R 6986   2.404   2.167   7.817  0.1080  0.6249  0.5265
   77SLPC   H7S 6987   2.555   2.081   7.844 -0.1500 -0.2093  0.5177
   77SLPC   C28 6988   2.373   2.021   7.962 -0.0536 -0.0471 -0.2484
   77SLPC   H8R 6989   2.267   1.996   7.937 -0.1725  0.0597  0.1381
   77SLPC   H8S 6990   2.373   2.108   8.031  0.5582  0.1161 -0.4485
   77SLPC   C29 6991   2.421   1.900   8.032 -0.5896  0.0274  0.1183
   77SLPC   H9R 6992   2.431   1.809   7.970 -2.6897 -0.1574 -0.0325
   77SLPC  C210 6993   2.456   1.882   8.159 -0.8847  0.3164  0.2509
   77SLPC  H10R 6994   2.489   1.783   8.194  1.4870  0.7005 -0.6828
   77SLPC  C211 6995   2.447   1.981   8.280  0.5163 -0.0980  0.4313
   77SLPC  H11R 6996   2.447   1.922   8.374  0.9084 -0.9375 -0.0845
   77SLPC  H11S 6997   2.355   2.044   8.277  0.1813 -0.6042 -0.1322
   77SLPC  C212 6998   2.571   2.072   8.277 -0.5641  0.2413  0.2415
   77SLPC  H12R 6999   2.556   2.143   8.194 -0.7362  0.6021  0.5785
   77SLPC  C213 7000   2.683   2.070   8.351 -0.3728  0.1024  0.6182
   77SLPC  H13R 7001   2.756   2.149   8.331 -1.1564  0.3663 -1.4669
   77SLPC  C214 7002   2.724   1.969   8.460  0.4842 -0.3328 -0.4685
   77SLPC  H14R 7003   2.835   1.959   8.451  0.4801  0.3575 -1.4487
   77SLPC  H14S 7004   2.680   1.869   8.444 -0.4421 -0.5106  2.5703
   77SLPC  C215 7005   2.675   2.014   8.601 -0.2526  0.8821  0.0836
   77SLPC  H15R 7006   2.707   1.928   8.663 -1.5531 -0.0203 -0.4510
   77SLPC  H15S 7007   2.564   2.008   8.607 -0.1289 -1.3417  1.1514
   77SLPC  C216 7008   2.746   2.136   8.644 -0.5123 -0.0148 -0.2913
   77SLPC  H16R 7009   2.724   2.217   8.571  0.6934  0.1970 -0.4326
   77SLPC  H16S 7010   2.855   2.117   8.636 -0.1464  0.8481  1.8856
   77SLPC  C217 7011   2.697   2.189   8.785  0.3124 -0.0538  0.5149
   77SLPC  H17R 7012   2.710   2.105   8.856 -1.4763 -1.5295 -0.8114
   77SLPC  H17S 7013   2.588   2.214   8.783  0.6729  1.9359  2.0702
   77SLPC  C218 7014   2.747   2.334   8.822  0.5380 -0.0128  0.1260
   77SLPC  H18R 7015   2.696   2.407   8.756 -0.1984  0.4847  1.2081
   77SLPC  H18S 7016   2.857   2.338   8.810  0.4139  0.9375 -0.8442
   77SLPC  H18T 7017   2.730   2.357   8.930  1.0667 -3.9674  1.2146
   77SLPC   C33 7018   2.754   2.322   7.256 -0.4890 -0.6123 -0.3738
   77SLPC   H3X 7019   2.835   2.300   7.183 -0.7955  1.1695 -1.3252
   77SLPC   H3Y 7020   2.687   2.239   7.285 -1.5064  0.6408  0.9614
   77SLPC   C34 7021   2.809   2.368   7.394  0.1531 -0.7633  0.1479
   77SLPC   H4X 7022   2.853   2.470   7.393 -1.5490  0.1483  3.3582
   77SLPC   H4Y 7023   2.896   2.304   7.418 -0.5172 -2.1218 -0.8837
   77SLPC   C35 7024   2.703   2.346   7.504 -0.2222 -0.1388 -0.5499
   77SLPC   H5X 7025   2.715   2.236   7.512 -0.2515 -0.2495 -1.7826
   77SLPC   H5Y 7026   2.600   2.362   7.464 -0.5968 -0.4800  0.2665
   77SLPC   C36 7027   2.720   2.428   7.635 -0.8971 -0.0555 -1.0231
   77SLPC   H6X 7028   2.679   2.531   7.643  3.1014  1.5886  2.8459
   77SLPC   H6Y 7029   2.827   2.446   7.662 -1.9525  3.4451  1.4927
   77SLPC   C37 7030   2.661   2.360   7.754  0.4068  0.1082 -0.5287
   77SLPC   H7X 7031   2.717   2.265   7.768 -1.0977 -0.7916 -0.4211
   77SLPC   H7Y 7032   2.551   2.344   7.747  0.5336 -1.4139  0.4032
   77SLPC   C38 7033   2.684   2.442   7.887  0.2759 -0.1266  0.1063
   77SLPC   H8X 7034   2.622   2.532   7.869  1.3189  1.2503  2.7705
   77SLPC   H8Y 7035   2.787   2.472   7.916  1.3157 -3.2840  0.0562
   77SLPC   C39 7036   2.619   2.358   8.001  0.4507 -0.7229  0.3974
   77SLPC   H9X 7037   2.668   2.259   8.014  1.5412 -0.1832  0.4868
   77SLPC   H9Y 7038   2.520   2.335   7.957 -0.4982  2.3883  0.6639
   77SLPC  C310 7039   2.595   2.430   8.132  0.1415 -0.2909 -0.1128
   77SLPC  H10X 7040   2.522   2.371   8.191 -1.7850  1.3914 -0.7013
   77SLPC  H10Y 7041   2.561   2.535   8.118 -0.7750 -0.2775  1.8593
   77SLPC  C311 7042   2.723   2.437   8.226 -0.2458 -0.3427  0.5386
   77SLPC  H11X 7043   2.812   2.487   8.184 -2.2341  2.1047 -1.0398
   77SLPC  H11Y 7044   2.761   2.336   8.253  0.1886 -0.6936 -1.2508
   77SLPC  C312 7045   2.701   2.521   8.359 -0.2628  0.3096 -0.1076
   77SLPC  H12X 7046   2.795   2.518   8.418 -0.9454  0.3948  1.0080
   77SLPC  H12Y 7047   2.633   2.456   8.419 -1.2000  0.3389 -1.0986
   77SLPC  C313 7048   2.661   2.669   8.343  0.2726 -0.6814 -0.2773
   77SLPC  H13X 7049   2.648   2.729   8.435 -0.1436  1.5209 -1.6955
   77SLPC  H13Y 7050   2.557   2.658   8.307  0.1125 -4.2288  0.9336
   77SLPC  C314 7051   2.732   2.757   8.238 -0.3592  1.6187  0.0285
   77SLPC  H14X 7052   2.683   2.856   8.224 -1.4208  1.2814  1.2379
   77SLPC  H14Y 7053   2.743   2.705   8.140  2.7352  1.1994  0.4899
   77SLPC  C315 7054   2.887   2.776   8.277  0.5593 -0.2891  0.3151
   77SLPC  H15X 7055   2.946   2.682   8.277  0.4170 -0.4227  2.1508
   77SLPC  H15Y 7056   2.892   2.816   8.381 -1.1176  0.8372  0.0157
   77SLPC  C316 7057   2.953   2.879   8.189 -0.7382  0.2866 -0.8123
   77SLPC  H16X 7058   3.062   2.886   8.210 -0.6530  0.4588 -1.3056
   77SLPC  H16Y 7059   2.926   2.983   8.215  3.4062  0.9758  1.8366
   77SLPC  C317 7060   2.948   2.846   8.035 -0.3158  0.2128 -0.3643
   77SLPC  H17X 7061   2.847   2.830   7.993  0.0864  0.7510 -1.6158
   77SLPC  H17Y 7062   3.008   2.753   8.019  1.3444  0.8068  1.8566
   77SLPC  C318 7063   3.014   2.957   7.953 -0.2521 -0.2441 -0.2921
   77SLPC  H18X 7064   3.123   2.934   7.955 -0.0457  0.5842  3.2108
   77SLPC  H18Y 7065   2.996   3.056   7.998 -3.1636 -0.5745 -0.5461
   77SLPC  H18Z 7066   2.988   2.951   7.845  1.0663  1.1189 -0.7157
   78SLPC     N 7067   3.021   3.038   5.955  0.7428  0.4075  0.3136
   78SLPC   C13 7068   3.075   3.166   5.898  0.8109 -0.4233  0.5373
   78SLPC  H13A 7069   3.165   3.193   5.951 -0.9373 -0.8662  4.0204
   78SLPC  H13B 7070   3.082   3.148   5.791 -1.6559 -0.8914  0.3779
   78SLPC  H13C 7071   3.004   3.247   5.910  0.6724 -0.5202  0.3845
   78SLPC   C14 7072   3.117   2.930   5.919 -0.6246 -0.5404 -0.1526
   78SLPC  H14A 7073   3.134   2.914   5.814  2.0420 -1.6267  0.3706
   78SLPC  H14B 7074   3.212   2.954   5.964 -0.1656  0.1162 -1.4174
   78SLPC  H14C 7075   3.082   2.838   5.962 -2.1020  0.6126  1.2598
   78SLPC   C15 7076   2.892   3.005   5.887  0.6923  0.4870 -0.2254
   78SLPC  H15A 7077   2.843   2.919   5.931 -0.3765  2.0294  1.7458
   78SLPC  H15B 7078   2.826   3.089   5.900  1.7235  1.2436  0.2310
   78SLPC  H15C 7079   2.916   2.969   5.788 -1.0525 -1.0863 -0.1405
   78SLPC   C12 7080   2.995   3.060   6.106 -0.0580 -0.3336  0.0132
   78SLPC  H12A 7081   2.966   2.961   6.139 -0.4712 -0.2500 -0.0979
   78SLPC  H12B 7082   2.912   3.125   6.127  0.5535  0.4689 -0.0065
   78SLPC   C11 7083   3.115   3.110   6.192  0.2389  0.5332  0.2435
   78SLPC  H11A 7084   3.066   3.131   6.290 -1.4550  1.9435 -0.8423
   78SLPC  H11B 7085   3.151   3.206   6.149  0.1147  1.0168  1.1855
   78SLPC     P 7086   3.239   2.890   6.278 -0.0418 -0.3035 -0.2926
   78SLPC   O13 7087   3.138   2.787   6.253  0.0328  0.4868  0.1113
   78SLPC   O14 7088   3.384   2.847   6.267  0.2278  0.6461 -0.1147
   78SLPC   O12 7089   3.226   3.012   6.183 -0.0326  0.1948  0.5137
   78SLPC   O11 7090   3.205   2.964   6.417 -0.1952  0.0179  0.1905
   78SLPC    C1 7091   3.104   2.916   6.507  0.7355  0.2957  0.3044
   78SLPC    HA 7092   3.049   2.999   6.556  0.7923  2.3508 -2.8956
   78SLPC    HB 7093   3.032   2.848   6.456  0.4910  1.3158 -0.7487
   78SLPC    C2 7094   3.178   2.821   6.610 -0.0295 -0.1312  0.4580
   78SLPC    HS 7095   3.202   2.728   6.555 -0.6229  0.7216 -1.3093
   78SLPC   O21 7096   3.090   2.804   6.725  0.0504 -0.0675 -0.4607
   78SLPC   C21 7097   2.992   2.716   6.714  0.6974  0.1880  0.0659
   78SLPC   O22 7098   2.959   2.655   6.615  0.3385  0.2899  0.1548
   78SLPC   C22 7099   2.920   2.694   6.854 -0.0759  0.1664  0.4244
   78SLPC   H2R 7100   2.811   2.712   6.855 -0.1372 -0.1979  1.4504
   78SLPC   H2S 7101   2.936   2.587   6.882 -1.3510  0.3876  2.1218
   78SLPC    C3 7102   3.307   2.884   6.660 -0.4212  0.8328  0.1295
   78SLPC    HX 7103   3.283   2.981   6.710  1.7352  1.6444 -0.2994
   78SLPC    HY 7104   3.373   2.908   6.574 -2.0503  1.4369 -1.0194
   78SLPC   O31 7105   3.382   2.796   6.756  0.5524 -0.1115  0.3245
   78SLPC   C31 7106   3.499   2.741   6.722  0.6306 -0.0749  0.5961
   78SLPC   O32 7107   3.543   2.752   6.608 -0.1049  0.3333 -0.0742
   78SLPC   C32 7108   3.578   2.671   6.828 -0.2746  0.3578  0.9465
   78SLPC   H2X 7109   3.648   2.752   6.857  0.6975  0.2606 -0.9591
   78SLPC   H2Y 7110   3.631   2.588   6.778 -3.0104 -3.0524  3.2401
   78SLPC   C23 7111   2.975   2.786   6.965 -0.2406  0.2278  0.3292
   78SLPC   H3R 7112   2.943   2.892   6.951 -0.4186  0.2204  0.6792
   78SLPC   H3S 7113   3.085   2.795   6.954 -0.3773 -0.1129 -1.8122
   78SLPC   C24 7114   2.920   2.744   7.101  0.2203  0.0812  0.3602
   78SLPC   H4R 7115   2.943   2.636   7.112  0.5260 -0.2340 -2.5550
   78SLPC   H4S 7116   2.810   2.761   7.112 -0.0364 -0.2716 -1.3921
   78SLPC   C25 7117   2.998   2.804   7.212 -0.6449 -0.5967 -0.2473
   78SLPC   H5R 7118   2.933   2.878   7.263 -1.1706  0.0865 -1.8372
   78SLPC   H5S 7119   3.082   2.864   7.172 -1.5702  0.8877 -0.0198
   78SLPC   C26 7120   3.052   2.701   7.311 -0.8738  0.0302 -0.3136
   78SLPC   H6R 7121   3.089   2.611   7.257  1.0847  1.4304 -1.4324
   78SLPC   H6S 7122   2.976   2.659   7.380  0.3438 -0.7620  0.6005
   78SLPC   C27 7123   3.167   2.757   7.402  0.0655 -0.1889  0.3517
   78SLPC   H7R 7124   3.241   2.815   7.343 -1.6411 -0.5081 -2.2838
   78SLPC   H7S 7125   3.210   2.668   7.452 -1.5092  0.0296  2.2009
   78SLPC   C28 7126   3.112   2.841   7.512  0.3772 -0.0872  0.0921
   78SLPC   H8R 7127   3.029   2.800   7.573 -0.2113  2.6383  1.2638
   78SLPC   H8S 7128   3.078   2.939   7.473 -2.5794 -0.8523  0.5540
   78SLPC   C29 7129   3.219   2.878   7.616 -0.7146  0.1004  0.1505
   78SLPC   H9R 7130   3.223   2.818   7.708  0.5350 -0.8118 -0.4743
   78SLPC  C210 7131   3.321   2.965   7.590  0.1102  0.4614  0.0832
   78SLPC  H10R 7132   3.406   2.989   7.657  0.7423 -0.9912 -0.1722
   78SLPC  C211 7133   3.343   3.038   7.455  0.5697  0.2391  0.3296
   78SLPC  H11R 7134   3.389   3.137   7.479  2.3078 -0.1897 -0.9698
   78SLPC  H11S 7135   3.249   3.063   7.402 -1.5993 -2.2113  2.7913
   78SLPC  C212 7136   3.439   2.972   7.367  0.2331  0.0789  0.8504
   78SLPC  H12R 7137   3.502   2.900   7.421  0.9866 -0.0913 -0.2420
   78SLPC  C213 7138   3.438   2.962   7.233  0.5568  0.3403 -0.2810
   78SLPC  H13R 7139   3.525   2.913   7.186  0.8930 -0.3498  1.0249
   78SLPC  C214 7140   3.346   3.026   7.140  0.0677 -0.5300 -0.4513
   78SLPC  H14R 7141   3.277   3.097   7.190 -0.7310 -0.4511 -1.6378
   78SLPC  H14S 7142   3.293   2.959   7.070 -0.5130 -0.1529 -0.3793
   78SLPC  C215 7143   3.440   3.127   7.063  0.8775 -0.2247  0.0104
   78SLPC  H15R 7144   3.470   3.204   7.136 -2.4359 -1.3052  2.7357
   78SLPC  H15S 7145   3.372   3.181   6.993 -0.5687  0.9811  2.2533
   78SLPC  C216 7146   3.553   3.074   6.969  0.2061 -0.1183  0.0237
   78SLPC  H16R 7147   3.533   2.969   6.939 -1.4376 -0.2182  1.3691
   78SLPC  H16S 7148   3.649   3.060   7.023  1.5980  1.5820 -1.8420
   78SLPC  C217 7149   3.589   3.166   6.852 -0.1469 -0.2245 -0.7515
   78SLPC  H17R 7150   3.635   3.256   6.898 -0.2539 -0.5463 -0.0080
   78SLPC  H17S 7151   3.496   3.197   6.801 -0.5357  1.0249  0.6265
   78SLPC  C218 7152   3.687   3.105   6.750 -0.2082  0.2662  0.1588
   78SLPC  H18R 7153   3.771   3.053   6.802 -0.7004 -0.9715 -0.2476
   78SLPC  H18S 7154   3.740   3.177   6.683  1.5490  0.0374  1.2352
   78SLPC  H18T 7155   3.630   3.030   6.691  1.7303 -0.4659 -0.8611
   78SLPC   C33 7156   3.500   2.603   6.944 -0.2806  0.3136 -0.1568
   78SLPC   H3X 7157   3.455   2.514   6.897 -1.5822  1.5397 -1.3349
   78SLPC   H3Y 7158   3.419   2.664   6.989  1.2323  1.1416  1.5948
   78SLPC   C34 7159   3.584   2.576   7.064 -0.0057  0.1353 -0.4540
   78SLPC   H4X 7160   3.651   2.664   7.075 -1.9032  1.6640 -0.5846
   78SLPC   H4Y 7161   3.646   2.485   7.051  1.3368  0.6120  1.9418
   78SLPC   C35 7162   3.501   2.554   7.196 -0.0388  1.0000 -0.5793
   78SLPC   H5X 7163   3.446   2.458   7.186  0.6124  0.0476  3.2910
   78SLPC   H5Y 7164   3.414   2.620   7.212 -1.6859 -0.6250 -2.3524
   78SLPC   C36 7165   3.589   2.555   7.331  0.7520 -0.5816  0.0826
   78SLPC   H6X 7166   3.640   2.653   7.327  0.2828 -0.1671  2.5979
   78SLPC   H6Y 7167   3.649   2.462   7.321  0.8515 -0.6354  1.1030
   78SLPC   C37 7168   3.516   2.541   7.465  0.1074  0.2398 -0.3192
   78SLPC   H7X 7169   3.482   2.435   7.467 -0.7001  0.5083  0.7166
   78SLPC   H7Y 7170   3.428   2.607   7.479  0.0409  0.2511 -0.7544
   78SLPC   C38 7171   3.617   2.552   7.587 -0.3405 -0.3359 -0.0019
   78SLPC   H8X 7172   3.660   2.655   7.594 -1.1872 -0.0177  0.7407
   78SLPC   H8Y 7173   3.702   2.485   7.563  0.1096  0.0520  0.4915
   78SLPC   C39 7174   3.550   2.515   7.720 -0.1096 -0.1051  0.3473
   78SLPC   H9X 7175   3.632   2.493   7.792  0.0169 -3.9511 -0.7877
   78SLPC   H9Y 7176   3.501   2.416   7.716  2.7221 -1.7107  1.7882
   78SLPC  C310 7177   3.469   2.627   7.792 -0.6880 -0.6090  0.7113
   78SLPC  H10X 7178   3.381   2.650   7.728 -1.2380 -2.9760  0.5244
   78SLPC  H10Y 7179   3.537   2.715   7.804 -0.5970 -0.8406  2.0542
   78SLPC  C311 7180   3.419   2.592   7.935 -0.5798 -0.1303  0.4010
   78SLPC  H11X 7181   3.498   2.559   8.005 -0.9433 -1.0283  0.3996
   78SLPC  H11Y 7182   3.353   2.503   7.930  0.6032 -1.0503  0.8567
   78SLPC  C312 7183   3.342   2.701   8.010 -0.2754 -0.9913 -0.2609
   78SLPC  H12X 7184   3.288   2.654   8.095  2.4603 -0.2133  2.0679
   78SLPC  H12Y 7185   3.261   2.752   7.954 -2.0409 -2.1591  1.1277
   78SLPC  C313 7186   3.444   2.810   8.054  0.3845  0.3844  0.3137
   78SLPC  H13X 7187   3.480   2.861   7.963  0.7272 -0.1692  0.1369
   78SLPC  H13Y 7188   3.528   2.765   8.111  0.0717  0.4161  0.8063
   78SLPC  C314 7189   3.374   2.922   8.136 -0.7583  0.0883  0.7339
   78SLPC  H14X 7190   3.263   2.916   8.131 -0.7144 -1.7949  1.2781
   78SLPC  H14Y 7191   3.403   3.024   8.103 -2.0300  0.0320 -0.6890
   78SLPC  C315 7192   3.401   2.912   8.287 -0.2020 -0.1735 -0.1989
   78SLPC  H15X 7193   3.505   2.949   8.297  1.1165 -3.9321  2.5685
   78SLPC  H15Y 7194   3.402   2.807   8.325 -0.6347  0.1705  0.7947
   78SLPC  C316 7195   3.305   3.004   8.372  0.7024 -0.1350  0.5601
   78SLPC  H16X 7196   3.200   2.971   8.352  0.4008 -0.6959  2.8516
   78SLPC  H16Y 7197   3.316   3.106   8.331  0.1570 -1.3052 -2.8426
   78SLPC  C317 7198   3.334   2.993   8.514 -0.8523 -0.2597 -0.1629
   78SLPC  H17X 7199   3.294   2.896   8.552  1.8611 -1.2616  0.3806
   78SLPC  H17Y 7200   3.273   3.074   8.559  1.3336  0.4721  1.6973
   78SLPC  C318 7201   3.485   3.015   8.562  0.9498 -0.0114  1.1084
   78SLPC  H18X 7202   3.542   2.922   8.545 -0.0054 -0.6197  1.1702
   78SLPC  H18Y 7203   3.486   3.021   8.673 -0.0881  0.0857  1.1253
   78SLPC  H18Z 7204   3.535   3.105   8.519  1.2060 -0.8681 -0.4157
   79SLPC     N 7205   0.388   3.731   6.013 -0.2584  0.2782  0.0324
   79SLPC   C13 7206   0.339   3.863   5.952 -0.6767  0.1551 -0.2409
   79SLPC  H13A 7207   0.233   3.877   5.964 -0.4773  2.5968 -0.8314
   79SLPC  H13B 7208   0.371   3.953   6.002 -1.5615  0.2979  0.0726
   79SLPC  H13C 7209   0.366   3.877   5.848  0.7491 -2.4404 -0.3090
   79SLPC   C14 7210   0.523   3.701   5.954 -0.5159 -0.6187  0.2099
   79SLPC  H14A 7211   0.555   3.599   5.973 -0.7997 -0.7089  0.1979
   79SLPC  H14B 7212   0.523   3.702   5.846  0.9198 -0.4016  0.1912
   79SLPC  H14C 7213   0.595   3.773   5.991 -1.2600  1.5084 -2.1983
   79SLPC   C15 7214   0.299   3.620   5.961  0.2450 -0.7442  0.2894
   79SLPC  H15A 7215   0.299   3.529   6.020  0.0499 -1.0177 -0.1318
   79SLPC  H15B 7216   0.197   3.652   5.949 -0.0014 -1.1315  1.2357
   79SLPC  H15C 7217   0.326   3.581   5.864  1.3857 -2.4378  1.2410
   79SLPC   C12 7218   0.392   3.731   6.165  0.0695 -0.2440  0.3852
   79SLPC  H12A 7219   0.288   3.742   6.192 -0.3362 -3.5248  0.5507
   79SLPC  H12B 7220   0.457   3.810   6.197 -0.5399  0.9441 -1.1807
   79SLPC   C11 7221   0.425   3.604   6.250 -0.0536  1.2038  0.8032
   79SLPC  H11A 7222   0.433   3.619   6.360  1.1381 -1.1551  1.1129
   79SLPC  H11B 7223   0.529   3.581   6.216 -0.1141  2.0909  0.0017
   79SLPC     P 7224   0.194   3.464   6.280 -0.0161  0.3292 -0.2899
   79SLPC   O13 7225   0.099   3.551   6.207  0.3053 -0.2693 -0.1564
   79SLPC   O14 7226   0.182   3.312   6.253 -0.5099  0.0345 -0.6432
   79SLPC   O12 7227   0.336   3.495   6.220  0.5485 -0.3900  0.3078
   79SLPC   O11 7228   0.226   3.511   6.426  0.3221  0.0986  0.2664
   79SLPC    C1 7229   0.260   3.416   6.526 -0.4526  0.7280  0.4040
   79SLPC    HA 7230   0.182   3.338   6.534  0.7145 -0.9952 -3.0547
   79SLPC    HB 7231   0.351   3.358   6.502 -2.3187 -1.1102 -2.9538
   79SLPC    C2 7232   0.279   3.489   6.664  0.3636  0.7654 -0.1674
   79SLPC    HS 7233   0.204   3.570   6.676 -0.4469  0.0732 -0.4212
   79SLPC   O21 7234   0.404   3.546   6.691  0.2765 -0.2021 -0.6526
   79SLPC   C21 7235   0.432   3.668   6.632  0.3093  0.5255  0.0676
   79SLPC   O22 7236   0.345   3.742   6.592  0.0171  0.9947  0.0559
   79SLPC   C22 7237   0.582   3.701   6.655 -0.3692  0.2417  0.5287
   79SLPC   H2R 7238   0.629   3.604   6.682 -2.4262 -1.1165 -0.4577
   79SLPC   H2S 7239   0.614   3.724   6.551 -1.8699 -0.5577 -0.1500
   79SLPC    C3 7240   0.259   3.382   6.773  0.2934 -0.1841  0.3520
   79SLPC    HX 7241   0.335   3.303   6.757 -0.7937 -1.3944  0.9920
   79SLPC    HY 7242   0.167   3.323   6.754  0.2661  0.0648 -0.3222
   79SLPC   O31 7243   0.268   3.428   6.908  0.0814 -0.1754 -0.5299
   79SLPC   C31 7244   0.161   3.492   6.955  0.6485 -0.3740 -0.1575
   79SLPC   O32 7245   0.060   3.507   6.891 -0.1699  0.1779 -0.0491
   79SLPC   C32 7246   0.173   3.542   7.092 -0.4299  0.1285 -0.1771
   79SLPC   H2X 7247   0.258   3.608   7.117 -2.4126  2.4659  0.8515
   79SLPC   H2Y 7248   0.186   3.454   7.160  0.2073  0.8260  0.6182
   79SLPC   C23 7249   0.604   3.831   6.744 -0.1196  0.5357 -0.7971
   79SLPC   H3R 7250   0.541   3.907   6.693 -0.0425 -0.5020 -2.5470
   79SLPC   H3S 7251   0.709   3.865   6.735 -0.7251  3.2369  1.2031
   79SLPC   C24 7252   0.574   3.814   6.897 -0.2576 -0.1734 -0.1489
   79SLPC   H4R 7253   0.638   3.741   6.951 -0.9228 -1.0843 -0.5644
   79SLPC   H4S 7254   0.469   3.780   6.915 -0.4667  0.6999  0.3656
   79SLPC   C25 7255   0.581   3.946   6.972 -0.4377 -0.1203 -0.1201
   79SLPC   H5R 7256   0.488   4.004   6.955 -1.0133 -1.2256 -0.8775
   79SLPC   H5S 7257   0.672   4.000   6.939  1.0944 -0.8057  2.6631
   79SLPC   C26 7258   0.615   3.929   7.124  0.8921  0.5678 -0.5427
   79SLPC   H6R 7259   0.625   4.030   7.169  0.8698  1.6042 -2.7423
   79SLPC   H6S 7260   0.714   3.880   7.137  0.5704 -0.5844 -2.1387
   79SLPC   C27 7261   0.497   3.856   7.192  0.4434  0.2881  0.3984
   79SLPC   H7R 7262   0.507   3.746   7.195  2.4300  0.4278  0.5516
   79SLPC   H7S 7263   0.407   3.880   7.132  1.1960  1.0425 -0.4795
   79SLPC   C28 7264   0.491   3.898   7.341 -0.6310 -0.1272 -0.1767
   79SLPC   H8R 7265   0.409   3.843   7.392 -2.6709  2.7332 -0.1226
   79SLPC   H8S 7266   0.484   4.007   7.360 -0.7486  0.2709 -2.2669
   79SLPC   C29 7267   0.613   3.838   7.407  0.1004 -0.3291 -0.7662
   79SLPC   H9R 7268   0.693   3.800   7.342  0.3018 -0.5462 -0.3979
   79SLPC  C210 7269   0.632   3.840   7.542 -0.4868  0.5061 -0.1418
   79SLPC  H10R 7270   0.728   3.799   7.577 -0.6262  1.1364  1.0160
   79SLPC  C211 7271   0.549   3.899   7.648 -0.6544 -0.9869 -0.1231
   79SLPC  H11R 7272   0.441   3.912   7.626 -0.6137  0.2477  0.3659
   79SLPC  H11S 7273   0.585   4.003   7.643 -1.2192 -0.8088 -0.5815
   79SLPC  C212 7274   0.576   3.827   7.780  0.3339 -0.7580 -0.1074
   79SLPC  H12R 7275   0.565   3.718   7.773  0.5857 -0.7485 -0.7038
   79SLPC  C213 7276   0.613   3.884   7.903  0.1444 -0.8491  0.4362
   79SLPC  H13R 7277   0.625   3.809   7.982 -1.1107 -4.1484 -2.2336
   79SLPC  C214 7278   0.627   4.035   7.930 -0.4411  0.2592  0.0835
   79SLPC  H14R 7279   0.597   4.107   7.851 -2.1224  1.1011  1.4255
   79SLPC  H14S 7280   0.737   4.048   7.941 -0.3445  1.8211 -2.0884
   79SLPC  C215 7281   0.540   4.078   8.061  0.1658  0.8101 -0.4143
   79SLPC  H15R 7282   0.437   4.039   8.051  1.0281 -2.3782  1.5033
   79SLPC  H15S 7283   0.556   4.187   8.072  2.3301  0.4511  0.6351
   79SLPC  C216 7284   0.613   4.026   8.188  0.1506  0.0995  0.2559
   79SLPC  H16R 7285   0.712   4.074   8.207 -0.0077  0.1740  0.9133
   79SLPC  H16S 7286   0.634   3.918   8.170 -0.9664  0.1804 -1.7490
   79SLPC  C217 7287   0.524   4.044   8.312 -0.2191 -0.5352  0.3522
   79SLPC  H17R 7288   0.424   4.004   8.286 -0.1823  0.6708 -1.8519
   79SLPC  H17S 7289   0.516   4.154   8.315  2.6393 -0.1808 -1.2436
   79SLPC  C218 7290   0.574   3.986   8.446 -0.4798  0.0379 -0.8291
   79SLPC  H18R 7291   0.500   4.019   8.521 -0.3181  0.2427 -0.7600
   79SLPC  H18S 7292   0.673   4.035   8.461  0.2018 -1.9272  1.7284
   79SLPC  H18T 7293   0.589   3.876   8.452  2.6960  0.3900 -0.2926
   79SLPC   C33 7294   0.046   3.617   7.130 -0.1278  0.0074  0.3274
   79SLPC   H3X 7295  -0.046   3.555   7.131 -0.4725  0.4521  2.6840
   79SLPC   H3Y 7296   0.021   3.696   7.056  2.0161  1.1968  0.7971
   79SLPC   C34 7297   0.067   3.684   7.268 -0.5632 -0.0959  0.5509
   79SLPC   H4X 7298  -0.019   3.751   7.288 -2.2481 -1.9844 -0.0442
   79SLPC   H4Y 7299   0.154   3.752   7.256 -1.0859  0.1189 -3.1240
   79SLPC   C35 7300   0.091   3.585   7.385  0.1910 -0.1120 -0.0330
   79SLPC   H5X 7301   0.181   3.523   7.367  0.7045  0.8523 -0.8923
   79SLPC   H5Y 7302   0.008   3.512   7.394 -0.9046  1.3011  2.1553
   79SLPC   C36 7303   0.121   3.650   7.523 -0.2132 -0.5290 -0.0504
   79SLPC   H6X 7304   0.040   3.719   7.553 -0.3973  0.2334 -2.1251
   79SLPC   H6Y 7305   0.214   3.708   7.502  0.2776 -1.7394 -1.3809
   79SLPC   C37 7306   0.147   3.543   7.633 -0.2936  0.2729  0.8830
   79SLPC   H7X 7307   0.226   3.478   7.588  0.4131  1.6633  0.0656
   79SLPC   H7Y 7308   0.053   3.483   7.638  0.4909 -1.2945 -1.2340
   79SLPC   C38 7309   0.183   3.595   7.774  0.0932 -0.1647 -0.3875
   79SLPC   H8X 7310   0.092   3.647   7.813 -1.1626 -0.7527 -2.3470
   79SLPC   H8Y 7311   0.275   3.656   7.768  1.1749 -1.8501 -3.0532
   79SLPC   C39 7312   0.217   3.494   7.882 -0.5117  0.0749  0.1973
   79SLPC   H9X 7313   0.292   3.425   7.837  0.7390  1.2527  0.4025
   79SLPC   H9Y 7314   0.129   3.437   7.917 -0.5874 -0.8814 -1.4409
   79SLPC  C310 7315   0.286   3.558   8.003 -0.8716 -0.0089 -0.2295
   79SLPC  H10X 7316   0.219   3.633   8.048 -1.2825  0.0034 -0.8416
   79SLPC  H10Y 7317   0.378   3.613   7.972 -0.2783 -0.5527  0.5338
   79SLPC  C311 7318   0.338   3.454   8.106 -0.0959  0.1085 -0.2286
   79SLPC  H11X 7319   0.415   3.501   8.172  2.8935 -1.3147 -2.4751
   79SLPC  H11Y 7320   0.387   3.365   8.063  1.6169  0.0330  1.7071
   79SLPC  C312 7321   0.236   3.401   8.206  0.5128  0.6166 -0.1998
   79SLPC  H12X 7322   0.168   3.336   8.147  0.4926 -0.3994  0.9122
   79SLPC  H12Y 7323   0.156   3.473   8.233 -1.4495 -1.3062 -0.6471
   79SLPC  C313 7324   0.292   3.318   8.319  0.2868 -0.5570  0.3445
   79SLPC  H13X 7325   0.384   3.270   8.279  0.2682  0.8200 -1.5360
   79SLPC  H13Y 7326   0.219   3.237   8.343  0.2577 -0.5010  0.4442
   79SLPC  C314 7327   0.297   3.391   8.453  0.8764 -0.0766  0.3630
   79SLPC  H14X 7328   0.323   3.314   8.529 -3.3040 -2.9544 -0.7847
   79SLPC  H14Y 7329   0.197   3.429   8.484  1.1386  1.7812 -0.9197
   79SLPC  C315 7330   0.409   3.501   8.460 -0.3073 -0.0243  0.2157
   79SLPC  H15X 7331   0.406   3.580   8.382  0.1397  0.1811  0.3995
   79SLPC  H15Y 7332   0.512   3.460   8.460  0.8947  2.4807  3.4472
   79SLPC  C316 7333   0.409   3.579   8.598  0.1216 -1.3374 -0.0372
   79SLPC  H16X 7334   0.313   3.634   8.602  0.1496 -1.2815 -0.1409
   79SLPC  H16Y 7335   0.488   3.657   8.607 -1.1458 -0.0569  0.3176
   79SLPC  C317 7336   0.431   3.482   8.719 -0.2679  0.1160  0.4979
   79SLPC  H17X 7337   0.515   3.412   8.696 -0.2924  0.2979 -0.1791
   79SLPC  H17Y 7338   0.340   3.419   8.719 -0.3233  0.1631 -0.6177
   79SLPC  C318 7339   0.455   3.543   8.856  0.4776 -0.2106 -0.5046
   79SLPC  H18X 7340   0.377   3.619   8.878 -1.9632 -2.9572  0.8686
   79SLPC  H18Y 7341   0.559   3.584   8.855  0.9240 -1.1376  1.8082
   79SLPC  H18Z 7342   0.448   3.465   8.934 -1.6277  0.9770  0.5724
   80SLPC     N 7343   1.657   3.191   6.283 -0.6818  0.3117  0.4138
   80SLPC   C13 7344   1.627   3.332   6.298 -0.2249  0.5499  0.0786
   80SLPC  H13A 7345   1.558   3.349   6.379 -3.9768 -2.1351 -2.2749
   80SLPC  H13B 7346   1.713   3.396   6.315 -0.5109  0.6183  1.3584
   80SLPC  H13C 7347   1.573   3.372   6.214 -2.3904  0.7657  1.5077
   80SLPC   C14 7348   1.756   3.174   6.172 -0.6283 -0.4887 -0.7495
   80SLPC  H14A 7349   1.842   3.237   6.187 -0.3443 -1.3331  1.5702
   80SLPC  H14B 7350   1.789   3.072   6.160  2.7961 -0.4759  4.7712
   80SLPC  H14C 7351   1.699   3.196   6.083  1.7892 -1.3684 -2.6526
   80SLPC   C15 7352   1.542   3.111   6.232  0.4608  0.1273 -0.4371
   80SLPC  H15A 7353   1.467   3.097   6.308  0.3143 -1.5096 -0.8520
   80SLPC  H15B 7354   1.513   3.148   6.135  0.7217 -2.7550 -1.7174
   80SLPC  H15C 7355   1.574   3.009   6.214 -0.6885  0.0181 -2.0833
   80SLPC   C12 7356   1.727   3.136   6.409 -0.1390  0.0190  0.4231
   80SLPC  H12A 7357   1.762   3.035   6.399 -0.6271 -0.0173 -1.3802
   80SLPC  H12B 7358   1.655   3.128   6.488  2.6713  0.4003  3.2027
   80SLPC   C11 7359   1.838   3.224   6.464  0.1477 -0.0830 -0.0396
   80SLPC  H11A 7360   1.863   3.191   6.566  0.0156  1.5031  0.5348
   80SLPC  H11B 7361   1.799   3.325   6.490 -1.8856 -1.0107  0.6832
   80SLPC     P 7362   2.033   3.349   6.334  0.5894 -0.5496 -0.1073
   80SLPC   O13 7363   2.169   3.312   6.292  0.6728 -0.3647 -0.4812
   80SLPC   O14 7364   1.942   3.400   6.234  0.1711 -0.2725 -0.1795
   80SLPC   O12 7365   1.960   3.217   6.390  0.0246 -0.0933 -0.8522
   80SLPC   O11 7366   2.034   3.445   6.460  0.2544 -0.1640  0.3394
   80SLPC    C1 7367   2.145   3.503   6.523 -0.4293  0.5047 -0.4485
   80SLPC    HA 7368   2.199   3.575   6.456 -1.1702  2.1091  0.6060
   80SLPC    HB 7369   2.109   3.560   6.612  1.1517  0.2995  0.3694
   80SLPC    C2 7370   2.251   3.402   6.580 -0.0791  0.0586 -0.0986
   80SLPC    HS 7371   2.274   3.336   6.495 -0.1112  5.0083 -4.4670
   80SLPC   O21 7372   2.192   3.319   6.679  0.3606 -0.5665 -0.0324
   80SLPC   C21 7373   2.205   3.188   6.673 -0.1555 -0.4808 -0.1267
   80SLPC   O22 7374   2.278   3.130   6.596 -0.6366  0.2203  0.0993
   80SLPC   C22 7375   2.126   3.114   6.788 -1.1934 -0.5624  0.4258
   80SLPC   H2R 7376   2.083   3.030   6.731  1.7772 -1.6640 -0.4112
   80SLPC   H2S 7377   2.202   3.089   6.866  2.3123  2.0422 -1.8200
   80SLPC    C3 7378   2.369   3.480   6.637  0.0938 -0.3945  0.3239
   80SLPC    HX 7379   2.324   3.551   6.708  2.3514  1.6620 -0.1629
   80SLPC    HY 7380   2.414   3.537   6.553 -1.9099 -0.0381 -0.5460
   80SLPC   O31 7381   2.465   3.399   6.718  0.4343 -0.0706 -0.1057
   80SLPC   C31 7382   2.564   3.357   6.645 -0.1139  0.1886 -0.7157
   80SLPC   O32 7383   2.600   3.397   6.542 -0.2768  0.3857  0.1643
   80SLPC   C32 7384   2.649   3.269   6.745  0.1597 -0.7717  0.0717
   80SLPC   H2X 7385   2.597   3.171   6.737 -2.7288  0.7050 -0.8694
   80SLPC   H2Y 7386   2.637   3.311   6.847 -2.9572  0.5231 -0.7072
   80SLPC   C23 7387   2.006   3.186   6.842 -0.3547  0.1418 -0.2662
   80SLPC   H3R 7388   1.942   3.227   6.762 -1.2907 -1.9177 -0.6384
   80SLPC   H3S 7389   2.044   3.269   6.906  0.1710 -0.3883  0.1318
   80SLPC   C24 7390   1.924   3.085   6.923  0.6927  0.3913  0.6959
   80SLPC   H4R 7391   1.880   3.013   6.851  1.4686 -1.1930  1.7561
   80SLPC   H4S 7392   1.834   3.140   6.959  1.7265  0.9452  2.5445
   80SLPC   C25 7393   1.988   3.005   7.037 -0.8106  0.4363 -0.7349
   80SLPC   H5R 7394   2.077   2.951   7.000 -0.8382 -0.5096  0.5206
   80SLPC   H5S 7395   1.916   2.936   7.087  1.5299 -1.9762 -0.5126
   80SLPC   C26 7396   2.037   3.086   7.156 -0.1873 -0.0537  0.1105
   80SLPC   H6R 7397   1.960   3.148   7.206  1.6284  2.2847  0.1776
   80SLPC   H6S 7398   2.116   3.152   7.114  1.0087 -1.2163  0.4640
   80SLPC   C27 7399   2.119   2.998   7.254  0.6684  0.2521 -0.9672
   80SLPC   H7R 7400   2.192   3.060   7.311 -0.3309  1.1240 -0.6015
   80SLPC   H7S 7401   2.185   2.931   7.195  0.9539 -0.2287 -0.1101
   80SLPC   C28 7402   2.029   2.919   7.365 -0.1927 -0.2174 -0.2582
   80SLPC   H8R 7403   2.072   2.817   7.365  2.5689  0.8609 -1.3311
   80SLPC   H8S 7404   1.923   2.911   7.331 -0.8034  1.5082  1.0925
   80SLPC   C29 7405   2.040   2.980   7.508  0.1164  0.4175  0.2498
   80SLPC   H9R 7406   2.063   3.087   7.510  0.3440  0.4126 -1.1997
   80SLPC  C210 7407   2.027   2.921   7.628  0.4032  0.7488  0.6143
   80SLPC  H10R 7408   2.046   2.973   7.723 -0.1613  0.9995  0.5967
   80SLPC  C211 7409   2.014   2.771   7.647  0.1570 -0.0456 -0.0052
   80SLPC  H11R 7410   2.094   2.734   7.715 -0.0373 -0.7214 -0.1295
   80SLPC  H11S 7411   2.040   2.734   7.545 -3.1609  0.2681 -1.0902
   80SLPC  C212 7412   1.889   2.699   7.686 -0.1465  0.6874 -0.0672
   80SLPC  H12R 7413   1.918   2.593   7.684 -1.4506  0.3134 -0.6914
   80SLPC  C213 7414   1.758   2.731   7.696  0.5421  0.3832 -0.7822
   80SLPC  H13R 7415   1.688   2.653   7.729  0.8748  1.1334  1.9241
   80SLPC  C214 7416   1.701   2.867   7.663  0.1762 -0.0147 -0.0847
   80SLPC  H14R 7417   1.777   2.948   7.656 -0.2869  0.5090  0.6992
   80SLPC  H14S 7418   1.631   2.887   7.747 -2.2055 -0.2526 -1.9212
   80SLPC  C215 7419   1.631   2.858   7.525 -0.8277  0.4346  0.4326
   80SLPC  H15R 7420   1.556   2.776   7.521 -0.4427  0.1006 -2.3513
   80SLPC  H15S 7421   1.708   2.824   7.453  0.8307  0.9090  1.9085
   80SLPC  C216 7422   1.572   2.993   7.476 -0.1795  0.4528  0.3878
   80SLPC  H16R 7423   1.655   3.067   7.478 -1.1317  1.5393  0.3575
   80SLPC  H16S 7424   1.491   3.023   7.546 -0.8360 -3.1378  1.3786
   80SLPC  C217 7425   1.499   2.995   7.341 -0.2944  0.3286 -0.1474
   80SLPC  H17R 7426   1.460   3.100   7.335  2.3792  1.3514 -0.9158
   80SLPC  H17S 7427   1.413   2.925   7.336  0.6243 -0.7108 -2.8530
   80SLPC  C218 7428   1.576   2.971   7.211  0.1070  0.1055  0.9838
   80SLPC  H18R 7429   1.656   3.049   7.201  1.0245 -0.7625  1.3826
   80SLPC  H18S 7430   1.507   2.991   7.126 -1.6749 -0.7631  2.1806
   80SLPC  H18T 7431   1.619   2.869   7.205 -0.9793 -0.3854  1.4625
   80SLPC   C33 7432   2.797   3.272   6.717  0.5445  0.2865  0.3113
   80SLPC   H3X 7433   2.826   3.378   6.703  1.3520  0.5272  3.0771
   80SLPC   H3Y 7434   2.808   3.213   6.624 -0.0354 -1.3033  1.2127
   80SLPC   C34 7435   2.886   3.202   6.823  0.1220  0.1232  0.1907
   80SLPC   H4X 7436   2.990   3.188   6.789  0.1165  2.5486 -0.9966
   80SLPC   H4Y 7437   2.847   3.099   6.840  0.2596 -0.0209 -0.3723
   80SLPC   C35 7438   2.891   3.271   6.954 -0.6416 -0.1644 -0.4960
   80SLPC   H5X 7439   2.791   3.307   6.988  0.7823  1.5920  2.1987
   80SLPC   H5Y 7440   2.951   3.365   6.958 -0.9800  0.0823 -1.1180
   80SLPC   C36 7441   2.976   3.179   7.048  0.3800  0.4375 -0.0112
   80SLPC   H6X 7442   3.079   3.164   7.011  0.4569  0.5669  0.1470
   80SLPC   H6Y 7443   2.927   3.079   7.044 -0.0622  0.6503 -0.0332
   80SLPC   C37 7444   2.985   3.227   7.195 -0.4081  0.5488 -0.2108
   80SLPC   H7X 7445   2.992   3.337   7.204  0.0864  0.4289  0.9573
   80SLPC   H7Y 7446   3.074   3.181   7.241 -0.9327 -1.4770 -1.0797
   80SLPC   C38 7447   2.868   3.182   7.285 -0.3784 -0.1406 -0.1131
   80SLPC   H8X 7448   2.849   3.073   7.272 -1.5898  0.1073 -0.5470
   80SLPC   H8Y 7449   2.771   3.230   7.259 -0.8841 -0.4793  1.0526
   80SLPC   C39 7450   2.899   3.206   7.430  0.1212  0.5739 -0.0011
   80SLPC   H9X 7451   2.925   3.314   7.440 -3.0305  1.3856  0.7708
   80SLPC   H9Y 7452   2.988   3.147   7.460 -1.6273 -2.2107  0.0766
   80SLPC  C310 7453   2.782   3.174   7.532 -0.6546 -0.3902 -0.5143
   80SLPC  H10X 7454   2.742   3.070   7.528 -3.4437  0.5888 -0.3232
   80SLPC  H10Y 7455   2.697   3.244   7.517 -1.4834 -1.2970 -0.1436
   80SLPC  C311 7456   2.822   3.204   7.674 -0.0855  0.2383  0.3334
   80SLPC  H11X 7457   2.893   3.290   7.666  0.8970 -0.2382  2.8683
   80SLPC  H11Y 7458   2.888   3.118   7.700 -0.8460 -1.1876 -2.1687
   80SLPC  C312 7459   2.704   3.224   7.758  0.0921  0.3314 -0.4164
   80SLPC  H12X 7460   2.619   3.159   7.729  0.7568 -0.6096 -0.2784
   80SLPC  H12Y 7461   2.665   3.326   7.735 -1.6758  0.1377  1.3904
   80SLPC  C313 7462   2.730   3.206   7.905  0.5118 -0.4912 -0.3772
   80SLPC  H13X 7463   2.818   3.270   7.931  0.5399 -1.3245  1.8377
   80SLPC  H13Y 7464   2.768   3.107   7.938  1.3069  0.0466  0.3696
   80SLPC  C314 7465   2.614   3.237   7.997 -0.2017 -0.0544  0.2231
   80SLPC  H14X 7466   2.521   3.194   7.954  0.5197 -3.2390  1.5316
   80SLPC  H14Y 7467   2.603   3.347   7.985  1.2650  0.0928  0.0782
   80SLPC  C315 7468   2.644   3.188   8.138  0.0764  0.2200 -0.3999
   80SLPC  H15X 7469   2.643   3.077   8.139 -1.9249  0.1499 -2.3640
   80SLPC  H15Y 7470   2.553   3.228   8.188 -0.2501 -0.5869 -0.3343
   80SLPC  C316 7471   2.769   3.254   8.196  0.3195  0.1188  0.1878
   80SLPC  H16X 7472   2.780   3.363   8.174  0.9231 -0.2627 -1.4983
   80SLPC  H16Y 7473   2.856   3.203   8.150 -0.6357 -2.5707  1.1756
   80SLPC  C317 7474   2.798   3.242   8.341 -0.0100 -0.1304  0.3484
   80SLPC  H17X 7475   2.798   3.138   8.380 -1.3387  0.0430  0.8718
   80SLPC  H17Y 7476   2.710   3.288   8.392  0.2259  0.7580 -0.0303
   80SLPC  C318 7477   2.923   3.306   8.395 -0.9655  0.0473  0.2525
   80SLPC  H18X 7478   2.953   3.285   8.500  3.2518 -1.7323 -1.0913
   80SLPC  H18Y 7479   2.904   3.415   8.383  1.0987  0.5543  1.2059
   80SLPC  H18Z 7480   3.009   3.267   8.337 -1.0894 -0.5519  0.4675
   81SAPS     N 7481   0.073   5.126  10.858 -0.3326 -0.0720 -0.2294
   81SAPS   HN1 7482   0.105   5.033  10.893 -0.6694  0.0373  0.3833
   81SAPS   HN2 7483  -0.025   5.144  10.886 -0.2282 -0.1810  0.2101
   81SAPS   HN3 7484   0.081   5.143  10.756  1.6087 -1.1395 -0.3112
   81SAPS   C12 7485   0.162   5.225  10.923 -0.4038 -0.0433 -0.3964
   81SAPS  H12A 7486   0.139   5.317  10.871 -0.2121 -0.5164 -1.3395
   81SAPS   C13 7487   0.131   5.248  11.082  0.5456 -0.6301  0.2972
   81SAPS  O13A 7488   0.023   5.210  11.123 -0.3200  0.5485  0.2273
   81SAPS  O13B 7489   0.189   5.344  11.143 -0.7192 -0.6697  0.0483
   81SAPS   C11 7490   0.303   5.174  10.893 -0.1463  0.4878  0.1834
   81SAPS  H11A 7491   0.374   5.255  10.917 -0.5618  1.0427 -0.4309
   81SAPS  H11B 7492   0.309   5.159  10.783  0.0329  0.9945  0.1215
   81SAPS     P 7493   0.473   5.008  11.002  0.2814  0.0121 -0.1252
   81SAPS   O13 7494   0.524   5.099  11.103  0.3301 -0.4578 -0.3011
   81SAPS   O14 7495   0.455   4.868  11.045  0.4077  0.3065  0.1631
   81SAPS   O12 7496   0.324   5.055  10.968  0.4959  0.1615  0.3024
   81SAPS   O11 7497   0.553   5.022  10.866 -0.0494 -0.5620  0.3743
   81SAPS    C1 7498   0.624   5.136  10.826 -0.2845 -0.3271  0.1511
   81SAPS    HA 7499   0.604   5.218  10.898 -0.7530 -1.1766  1.0146
   81SAPS    HB 7500   0.732   5.113  10.826 -0.4287 -1.0606  0.8672
   81SAPS    C2 7501   0.580   5.171  10.676  0.5807  0.2359 -1.1011
   81SAPS    HS 7502   0.474   5.201  10.682  0.8743  1.0725  0.7264
   81SAPS   O21 7503   0.603   5.051  10.592 -0.1446 -0.2600 -0.4468
   81SAPS   C21 7504   0.495   4.990  10.537  0.3850 -0.5200 -0.5131
   81SAPS   O22 7505   0.381   5.032  10.532 -0.5628 -0.4261 -0.4359
   81SAPS   C22 7506   0.550   4.866  10.464 -0.2320  0.2312  0.0038
   81SAPS   H2R 7507   0.578   4.887  10.358  2.1093  0.3608  0.6001
   81SAPS   H2S 7508   0.651   4.843  10.504 -0.7245 -1.6727  0.2476
   81SAPS    C3 7509   0.651   5.306  10.626  0.3275  1.0817  0.5426
   81SAPS    HX 7510   0.755   5.308  10.666 -0.4782  1.2674  2.7821
   81SAPS    HY 7511   0.611   5.399  10.672 -0.6955  2.0331 -2.1146
   81SAPS   O31 7512   0.630   5.308  10.476  0.4994 -1.5018  0.4277
   81SAPS   C31 7513   0.501   5.333  10.440  0.0551  0.5394  0.1183
   81SAPS   O32 7514   0.414   5.369  10.517  0.7442  0.2123 -0.2659
   81SAPS   C32 7515   0.481   5.301  10.298  0.2653  0.3295 -0.7311
   81SAPS   H2X 7516   0.392   5.239  10.275  1.0801 -0.3231 -2.3241
   81SAPS   H2Y 7517   0.565   5.236  10.264 -1.3692 -1.2083 -2.0054
   81SAPS   C23 7518   0.463   4.743  10.482  0.4924 -0.4249 -0.1060
   81SAPS   H3R 7519   0.368   4.765  10.429  0.4775 -0.8540 -0.2606
   81SAPS   H3S 7520   0.444   4.720  10.589  1.2298 -2.6259 -0.4008
   81SAPS   C24 7521   0.515   4.608  10.428  0.8493  0.3598 -0.3403
   81SAPS   H4R 7522   0.610   4.580  10.480 -0.6100 -1.6305  1.4274
   81SAPS   H4S 7523   0.547   4.631  10.324  1.3023  2.0648  0.1460
   81SAPS   C25 7524   0.415   4.492  10.448 -0.2081 -0.4831 -0.4489
   81SAPS   H5R 7525   0.355   4.494  10.540  0.2285 -1.3649 -0.1317
   81SAPS   C26 7526   0.408   4.382  10.362 -0.3315 -0.7245 -1.4189
   81SAPS   H6R 7527   0.337   4.303  10.387 -0.9710  0.9197  2.8417
   81SAPS   C27 7528   0.469   4.370  10.231  0.2130  0.3356  0.4251
   81SAPS   H7R 7529   0.438   4.267  10.203  1.0713 -0.9519  3.7403
   81SAPS   H7S 7530   0.579   4.375  10.249  0.1124  1.4021  0.8094
   81SAPS   C28 7531   0.416   4.474  10.135 -0.4619 -0.4361 -0.1884
   81SAPS   H8R 7532   0.374   4.561  10.187  0.2858  0.1997 -0.6424
   81SAPS   C29 7533   0.426   4.473  10.003 -0.2127  1.0903  0.0144
   81SAPS   H9R 7534   0.370   4.544   9.941  0.0634 -0.8990 -2.7091
   81SAPS  C210 7535   0.485   4.365   9.916  0.0430 -0.7476 -0.2336
   81SAPS  H10R 7536   0.430   4.385   9.822 -1.9264  0.2440  1.0518
   81SAPS  H10S 7537   0.459   4.260   9.939  0.7502 -0.7663  0.5506
   81SAPS  C211 7538   0.630   4.386   9.889 -0.1218 -0.1191 -0.3217
   81SAPS  H11R 7539   0.654   4.488   9.856  1.9326 -0.1274  0.9927
   81SAPS  C212 7540   0.728   4.304   9.920 -0.4247  0.2085 -0.1918
   81SAPS  H12R 7541   0.835   4.331   9.916  0.3556 -1.9810  2.6912
   81SAPS  C213 7542   0.699   4.170   9.984 -0.8626 -0.9921  0.1729
   81SAPS  H13R 7543   0.644   4.113   9.906  2.9022 -1.9465 -2.0334
   81SAPS  H13S 7544   0.626   4.196  10.064 -0.7916  0.5912 -0.2576
   81SAPS  C214 7545   0.806   4.082  10.040 -0.0591 -0.0928 -0.1452
   81SAPS  H14R 7546   0.798   4.067  10.149 -0.2943  2.2013  0.2070
   81SAPS  C215 7547   0.915   4.042   9.971 -0.0184  0.4213 -0.1641
   81SAPS  H15R 7548   0.990   3.984  10.025 -2.5921 -1.2828  1.8271
   81SAPS  C216 7549   0.950   4.058   9.823 -0.3212 -0.2974  0.4490
   81SAPS  H16R 7550   0.986   4.159   9.794  0.9803 -0.6967  0.5899
   81SAPS  H16S 7551   0.858   4.029   9.768  0.5693  1.7701 -2.3930
   81SAPS  C217 7552   1.078   3.966   9.784  0.2000 -0.0165 -0.2471
   81SAPS  H17R 7553   1.047   3.861   9.802 -0.9607  0.3540 -0.0526
   81SAPS  H17S 7554   1.158   3.996   9.855 -0.5021  0.4502  0.3549
   81SAPS  C218 7555   1.127   3.963   9.640 -0.3236  0.2774 -0.3896
   81SAPS  H18R 7556   1.034   3.928   9.590 -1.0228  1.9768 -0.3430
   81SAPS  H18S 7557   1.192   3.874   9.636 -1.7046 -0.9373  1.9677
   81SAPS  C219 7558   1.179   4.097   9.581  0.5632  0.6440 -1.0112
   81SAPS  H19R 7559   1.273   4.136   9.627  1.2679 -1.5090 -0.4910
   81SAPS  H19S 7560   1.103   4.176   9.598  1.4724  1.5222 -0.9261
   81SAPS  C220 7561   1.212   4.084   9.429 -0.5793 -0.0080 -0.7431
   81SAPS  H20R 7562   1.288   4.004   9.423  0.2213  0.7685 -1.1724
   81SAPS  H20S 7563   1.252   4.178   9.385  0.7550 -0.5424 -0.7054
   81SAPS  H20T 7564   1.131   4.042   9.364  0.0546 -1.0610 -0.8628
   81SAPS   C33 7565   0.470   5.432  10.231 -0.3358  0.2104  0.8039
   81SAPS   H3X 7566   0.559   5.497  10.243  2.1273 -2.5463 -0.9567
   81SAPS   H3Y 7567   0.380   5.484  10.270 -0.0432 -0.6389  2.7453
   81SAPS   C34 7568   0.463   5.418  10.078  0.7657 -0.4038  0.2359
   81SAPS   H4X 7569   0.459   5.521  10.036  1.9077 -1.1384 -1.7843
   81SAPS   H4Y 7570   0.362   5.371  10.070 -0.1222  0.7054  3.4515
   81SAPS   C35 7571   0.564   5.334  10.004  0.9303  0.3915  1.4190
   81SAPS   H5X 7572   0.511   5.237   9.994 -0.3285  1.2211 -0.5142
   81SAPS   H5Y 7573   0.656   5.332  10.066  1.0866  1.2854  1.2426
   81SAPS   C36 7574   0.610   5.396   9.870 -0.4942 -0.1787  0.3745
   81SAPS   H6X 7575   0.683   5.320   9.836 -1.5206 -0.5399 -1.0847
   81SAPS   H6Y 7576   0.680   5.482   9.882 -2.3358  1.2077  1.6543
   81SAPS   C37 7577   0.503   5.417   9.765  0.9645 -0.6149 -0.4041
   81SAPS   H7X 7578   0.443   5.498   9.811  2.0320 -0.0529  0.0303
   81SAPS   H7Y 7579   0.441   5.325   9.765 -3.4376  2.0368 -1.2560
   81SAPS   C38 7580   0.562   5.470   9.630 -0.5853 -0.1546 -1.1029
   81SAPS   H8X 7581   0.607   5.571   9.642 -0.1454 -0.3928 -0.7427
   81SAPS   H8Y 7582   0.474   5.487   9.564 -1.1066  0.5049 -0.2598
   81SAPS   C39 7583   0.664   5.387   9.546 -0.0664  0.0689 -0.2709
   81SAPS   H9X 7584   0.639   5.282   9.573  1.5010 -0.4131 -0.5841
   81SAPS   H9Y 7585   0.773   5.400   9.564  0.0573  0.2012 -1.0773
   81SAPS  C310 7586   0.646   5.408   9.392  0.7748  0.0684 -0.1814
   81SAPS  H10X 7587   0.655   5.513   9.356 -2.9929  1.2730  1.8300
   81SAPS  H10Y 7588   0.543   5.384   9.357  0.5124  0.4043  0.3523
   81SAPS  C311 7589   0.748   5.331   9.308  0.5535 -0.2364  0.4383
   81SAPS  H11X 7590   0.759   5.224   9.333  0.3873 -0.1337  0.9589
   81SAPS  H11Y 7591   0.845   5.384   9.299  0.8682 -0.8587  0.1433
   81SAPS  C312 7592   0.699   5.324   9.169  0.5139 -0.2429  0.4528
   81SAPS  H12X 7593   0.680   5.425   9.128  3.6001  0.2391  0.0168
   81SAPS  H12Y 7594   0.609   5.259   9.163  2.2523 -2.6215 -3.2192
   81SAPS  C313 7595   0.798   5.257   9.067  0.6417 -0.1452 -0.6595
   81SAPS  H13X 7596   0.842   5.160   9.100  1.5692  0.3839 -0.3084
   81SAPS  H13Y 7597   0.887   5.323   9.070  0.0387  0.6973  2.4014
   81SAPS  C314 7598   0.736   5.247   8.927 -0.0291  0.5928  0.3016
   81SAPS  H14X 7599   0.814   5.218   8.853 -0.6809 -1.4412  0.3760
   81SAPS  H14Y 7600   0.708   5.351   8.898 -0.8617  0.6129  1.1316
   81SAPS  C315 7601   0.623   5.149   8.916  0.2997  0.6482  0.8226
   81SAPS  H15X 7602   0.534   5.185   8.972  0.0795  0.1911  0.7667
   81SAPS  H15Y 7603   0.646   5.053   8.967  1.1839 -0.6697 -1.8699
   81SAPS  C316 7604   0.592   5.108   8.767  0.3654  0.0040 -0.5792
   81SAPS  H16X 7605   0.685   5.067   8.723  0.5884  0.8828 -0.9540
   81SAPS  H16Y 7606   0.563   5.202   8.715  2.2936 -0.7057 -3.1432
   81SAPS  C317 7607   0.469   5.020   8.754  0.2889  0.0307  0.3217
   81SAPS  H17X 7608   0.376   5.059   8.800 -0.5361 -0.3831 -0.9387
   81SAPS  H17Y 7609   0.496   4.924   8.802 -1.3032  0.1008  1.4084
   81SAPS  C318 7610   0.430   4.984   8.609  0.0150  0.3320 -0.3040
   81SAPS  H18X 7611   0.349   4.908   8.606  1.6502 -1.5664  0.8882
   81SAPS  H18Y 7612   0.526   4.949   8.564  0.8245  1.8108  0.2279
   81SAPS  H18Z 7613   0.399   5.076   8.555  0.9025  1.8422  1.6374
   82SAPS     N 7614   6.594   5.139  11.253  0.1482  0.6770 -0.2532
   82SAPS   HN1 7615   6.621   5.172  11.348 -3.0727  1.1868  0.5913
   82SAPS   HN2 7616   6.668   5.146  11.179  0.1972 -2.9250 -0.7507
   82SAPS   HN3 7617   6.520   5.207  11.229 -0.4939 -0.5576 -2.0156
   82SAPS   C12 7618   6.523   5.004  11.250  0.3752 -0.2812  0.3144
   82SAPS  H12A 7619   6.583   4.935  11.308 -0.9003 -3.0904 -1.4899
   82SAPS   C13 7620   6.389   5.007  11.320 -0.7232 -0.3810 -0.4350
   82SAPS  O13A 7621   6.334   5.116  11.344  0.0969  0.1011  0.1211
   82SAPS  O13B 7622   6.318   4.904  11.324 -0.2706 -0.0004  0.2816
   82SAPS   C11 7623   6.506   4.963  11.103 -0.1685 -0.5797  0.7945
   82SAPS  H11A 7624   6.452   5.044  11.049  2.3475 -0.4230 -1.6891
   82SAPS  H11B 7625   6.449   4.868  11.105 -0.2422 -0.5395  0.6119
   82SAPS     P 7626   6.702   4.818  10.981 -0.0214 -0.1386  0.1693
   82SAPS   O13 7627   6.824   4.872  10.918  0.3309 -0.1336  0.0816
   82SAPS   O14 7628   6.709   4.729  11.100  0.4749  0.3183  0.2064
   82SAPS   O12 7629   6.636   4.947  11.038  0.2460  0.2578  0.1660
   82SAPS   O11 7630   6.596   4.768  10.874  0.4684 -0.0935  0.4455
   82SAPS    C1 7631   6.512   4.850  10.789  0.0217  0.8107  0.7296
   82SAPS    HA 7632   6.457   4.931  10.840  0.3232  2.5320 -1.5091
   82SAPS    HB 7633   6.557   4.881  10.692 -0.4442 -0.6623  0.0104
   82SAPS    C2 7634   6.401   4.755  10.728 -0.2332  0.2146  0.0397
   82SAPS    HS 7635   6.363   4.703  10.818  2.4257 -2.6453 -0.3283
   82SAPS   O21 7636   6.468   4.660  10.646  0.1167  0.1021  0.3942
   82SAPS   C21 7637   6.405   4.543  10.627 -0.4582  0.3448 -0.2039
   82SAPS   O22 7638   6.314   4.496  10.696 -0.0244 -0.3340  0.4489
   82SAPS   C22 7639   6.453   4.479  10.505 -0.4491  0.4781  0.1841
   82SAPS   H2R 7640   6.496   4.552  10.433  1.8459 -0.5066  0.4774
   82SAPS   H2S 7641   6.538   4.417  10.542 -2.3506 -1.2668  1.8426
   82SAPS    C3 7642   6.279   4.820  10.659  0.2407 -0.2185 -0.5158
   82SAPS    HX 7643   6.230   4.890  10.729  0.5397  0.8135 -1.3070
   82SAPS    HY 7644   6.204   4.745  10.625 -0.3378  0.4677 -0.7839
   82SAPS   O31 7645   6.329   4.909  10.553 -0.2287  0.7071 -0.2496
   82SAPS   C31 7646   6.336   4.850  10.437 -0.3609  0.0993 -0.4857
   82SAPS   O32 7647   6.294   4.739  10.414 -0.0909  0.0565 -0.1064
   82SAPS   C32 7648   6.393   4.949  10.335  0.4781  0.4250  0.3751
   82SAPS   H2X 7649   6.493   4.986  10.365  0.3832  0.1674  1.0185
   82SAPS   H2Y 7650   6.328   5.038  10.346 -0.4357 -0.0899 -0.6854
   82SAPS   C23 7651   6.363   4.375  10.441  0.3276 -0.4595 -0.5451
   82SAPS   H3R 7652   6.277   4.422  10.390 -0.0892 -2.2761 -1.6028
   82SAPS   H3S 7653   6.319   4.318  10.526  1.2508 -0.0886  0.1951
   82SAPS   C24 7654   6.420   4.280  10.332  0.7131 -0.5097 -0.1878
   82SAPS   H4R 7655   6.490   4.203  10.373  0.1475  0.2036  2.2816
   82SAPS   H4S 7656   6.490   4.339  10.270  1.6325 -2.2921 -0.9172
   82SAPS   C25 7657   6.303   4.201  10.269 -0.2091 -0.4740  0.1449
   82SAPS   H5R 7658   6.245   4.145  10.344  0.6812 -0.8279  0.5807
   82SAPS   C26 7659   6.275   4.211  10.139  0.0670 -0.1465  0.1187
   82SAPS   H6R 7660   6.186   4.158  10.103  1.3805 -0.8037 -2.3299
   82SAPS   C27 7661   6.346   4.297  10.033 -0.7184 -0.1903  0.0524
   82SAPS   H7R 7662   6.308   4.278   9.930 -1.2539 -1.4173  0.4527
   82SAPS   H7S 7663   6.454   4.273  10.034 -0.6890 -0.0458  0.2654
   82SAPS   C28 7664   6.334   4.443  10.066 -0.2471  0.5695 -0.0466
   82SAPS   H8R 7665   6.298   4.466  10.167 -1.8956 -2.0808  0.0720
   82SAPS   C29 7666   6.365   4.537   9.979  0.2330 -0.3830  0.3081
   82SAPS   H9R 7667   6.353   4.645  10.001  0.4984 -0.1660 -0.5896
   82SAPS  C210 7668   6.432   4.517   9.846  0.3283  0.4540  0.5063
   82SAPS  H10R 7669   6.431   4.411   9.813  2.4713  0.4588  0.3303
   82SAPS  H10S 7670   6.542   4.532   9.844  0.7559 -2.2660  0.2527
   82SAPS  C211 7671   6.363   4.608   9.742  0.4122  0.5584 -0.4109
   82SAPS  H11R 7672   6.281   4.667   9.785  0.1487 -1.1167  1.5031
   82SAPS  C212 7673   6.359   4.578   9.604 -0.4738 -0.3111  0.1488
   82SAPS  H12R 7674   6.314   4.656   9.541 -1.2203  0.8171  2.0006
   82SAPS  C213 7675   6.419   4.462   9.532  0.1125  0.0511 -0.3590
   82SAPS  H13R 7676   6.360   4.450   9.439 -0.3813  1.9482 -0.3302
   82SAPS  H13S 7677   6.392   4.366   9.579 -0.7683  1.4111  2.0912
   82SAPS  C214 7678   6.555   4.488   9.498 -0.7252  0.4172  0.9907
   82SAPS  H14R 7679   6.622   4.465   9.582 -1.0380  1.5686  1.5711
   82SAPS  C215 7680   6.593   4.548   9.385  0.2961  0.2676  0.2476
   82SAPS  H15R 7681   6.698   4.576   9.365 -0.3406  2.2140 -0.5765
   82SAPS  C216 7682   6.505   4.616   9.287  0.2402  0.5454 -0.0301
   82SAPS  H16R 7683   6.514   4.727   9.280  2.6570  0.3027 -2.5932
   82SAPS  H16S 7684   6.398   4.595   9.306 -1.2090  5.3309 -1.3610
   82SAPS  C217 7685   6.517   4.590   9.134 -0.2550  0.3996  0.3614
   82SAPS  H17R 7686   6.543   4.486   9.109  0.1712  0.6573 -0.2773
   82SAPS  H17S 7687   6.608   4.649   9.111  0.2537 -0.4198  0.2724
   82SAPS  C218 7688   6.396   4.633   9.059  0.6935 -0.5783 -0.2663
   82SAPS  H18R 7689   6.368   4.735   9.091 -0.5636 -0.9446 -0.1135
   82SAPS  H18S 7690   6.305   4.579   9.093  1.1605 -1.9691 -1.1298
   82SAPS  C219 7691   6.412   4.637   8.907 -0.8654 -0.2399  0.3191
   82SAPS  H19R 7692   6.491   4.711   8.883 -1.4672  0.6196  0.9223
   82SAPS  H19S 7693   6.315   4.661   8.857  0.4386  1.2337 -1.6492
   82SAPS  C220 7694   6.451   4.502   8.846 -0.7827  0.9635  0.6642
   82SAPS  H20R 7695   6.370   4.430   8.871 -0.2353  0.5648  1.3225
   82SAPS  H20S 7696   6.547   4.463   8.885 -1.7929 -2.0983  0.3824
   82SAPS  H20T 7697   6.450   4.502   8.734 -0.6342  0.3881  0.6569
   82SAPS   C33 7698   6.392   4.886  10.195  0.2512 -0.2917  0.8355
   82SAPS   H3X 7699   6.301   4.830  10.166 -1.2392  1.9485  0.9608
   82SAPS   H3Y 7700   6.481   4.820  10.195  1.2883  1.0550 -0.4049
   82SAPS   C34 7701   6.410   4.984  10.077 -0.2498  0.1493 -0.9700
   82SAPS   H4X 7702   6.504   5.041  10.094  0.1919 -0.7617 -0.2388
   82SAPS   H4Y 7703   6.324   5.053  10.075  1.9313  3.2422  1.5240
   82SAPS   C35 7704   6.417   4.909   9.942 -0.1349 -0.6544 -0.5945
   82SAPS   H5X 7705   6.312   4.874   9.931 -1.0974  1.9979 -0.4350
   82SAPS   H5Y 7706   6.480   4.817   9.947  0.3931 -0.2476  0.7960
   82SAPS   C36 7707   6.465   5.002   9.826  0.2823 -0.4462  0.1996
   82SAPS   H6X 7708   6.575   4.997   9.814  0.4667  2.0913  0.2867
   82SAPS   H6Y 7709   6.443   5.109   9.845  0.1140 -0.5702  0.7101
   82SAPS   C37 7710   6.394   4.972   9.696 -0.6113 -0.8676  0.2993
   82SAPS   H7X 7711   6.283   4.971   9.703 -0.5461 -1.4548  1.4706
   82SAPS   H7Y 7712   6.423   4.868   9.670  0.4126 -0.9656  1.6868
   82SAPS   C38 7713   6.461   5.058   9.581  0.7422 -0.0644  0.2506
   82SAPS   H8X 7714   6.567   5.028   9.566  0.6448 -0.0429 -0.5435
   82SAPS   H8Y 7715   6.460   5.161   9.622 -0.9063  0.6868 -1.5163
   82SAPS   C39 7716   6.408   5.054   9.433 -0.3342 -0.5585 -0.5326
   82SAPS   H9X 7717   6.300   5.082   9.430 -0.1248  0.3049 -0.2271
   82SAPS   H9Y 7718   6.416   4.951   9.390  0.0375 -0.4761 -0.6562
   82SAPS  C310 7719   6.492   5.153   9.346 -0.2071 -1.2329  0.4456
   82SAPS  H10X 7720   6.598   5.118   9.345  0.0690 -0.4203 -1.1751
   82SAPS  H10Y 7721   6.481   5.253   9.393  1.7934 -0.0009 -1.5235
   82SAPS  C311 7722   6.455   5.160   9.198 -0.5258  0.0999  0.2318
   82SAPS  H11X 7723   6.524   5.229   9.146  0.8623 -1.1229  0.3958
   82SAPS  H11Y 7724   6.355   5.209   9.189 -1.1949 -1.0726  0.9713
   82SAPS  C312 7725   6.456   5.026   9.120 -0.6873 -0.1944 -0.3149
   82SAPS  H12X 7726   6.377   4.957   9.157 -1.8271  0.9140 -0.6024
   82SAPS  H12Y 7727   6.550   4.971   9.139 -0.5342 -1.0126 -2.9668
   82SAPS  C313 7728   6.429   5.032   8.965  0.1934  0.1973 -0.0783
   82SAPS  H13X 7729   6.335   5.089   8.953  1.3377  1.7423 -2.4048
   82SAPS  H13Y 7730   6.401   4.926   8.945 -2.7506  0.3804  2.4228
   82SAPS  C314 7731   6.550   5.088   8.884 -0.4221 -0.1627 -0.5418
   82SAPS  H14X 7732   6.551   5.031   8.789 -0.0895  0.7594 -1.1028
   82SAPS  H14Y 7733   6.641   5.060   8.942  1.4014  3.8209 -1.1257
   82SAPS  C315 7734   6.557   5.238   8.850  0.9555  0.3444 -0.2545
   82SAPS  H15X 7735   6.573   5.294   8.945 -2.7831 -0.0210  0.7471
   82SAPS  H15Y 7736   6.459   5.268   8.806  0.3935  0.6568  1.1577
   82SAPS  C316 7737   6.675   5.269   8.757 -0.7468 -0.2518 -0.4727
   82SAPS  H16X 7738   6.662   5.196   8.673  0.7832  1.0066 -1.8715
   82SAPS  H16Y 7739   6.778   5.258   8.797  0.0818  3.1143 -1.3532
   82SAPS  C317 7740   6.674   5.406   8.700  0.7733  0.1558  0.1118
   82SAPS  H17X 7741   6.649   5.485   8.775  0.0186  2.4131 -2.3731
   82SAPS  H17Y 7742   6.584   5.414   8.635 -0.1640 -1.6878  1.1208
   82SAPS  C318 7743   6.802   5.432   8.620 -0.6379  1.0945 -0.7017
   82SAPS  H18X 7744   6.794   5.525   8.560 -0.1000  2.2990  0.9977
   82SAPS  H18Y 7745   6.817   5.345   8.553  1.6477  0.6615  0.2906
   82SAPS  H18Z 7746   6.889   5.432   8.688 -1.0435 -1.7850 -0.0695
   83SAPS     N 7747   0.741   5.319  11.116 -0.4233  0.4789 -0.1558
   83SAPS   HN1 7748   0.709   5.383  11.040  0.5498  1.7569  0.4712
   83SAPS   HN2 7749   0.702   5.226  11.091 -1.8377  0.8458  0.6020
   83SAPS   HN3 7750   0.700   5.351  11.206 -0.8274  2.1148 -0.8946
   83SAPS   C12 7751   0.890   5.313  11.128  0.2870 -0.6037  0.4273
   83SAPS  H12A 7752   0.937   5.287  11.034  3.1257  1.7224  1.0439
   83SAPS   C13 7753   0.956   5.446  11.177  0.2075 -0.5561 -0.7441
   83SAPS  O13A 7754   0.879   5.541  11.223 -0.7855 -0.7527  0.0340
   83SAPS  O13B 7755   1.085   5.465  11.177 -0.3539  0.3570 -0.1624
   83SAPS   C11 7756   0.933   5.194  11.217 -0.4846 -0.1228  0.0654
   83SAPS  H11A 7757   0.920   5.217  11.325 -0.7926  0.4842 -0.0968
   83SAPS  H11B 7758   1.043   5.193  11.206 -0.3026  1.4473  1.4743
   83SAPS     P 7759   0.929   4.966  11.092 -0.8964  0.0219  0.0052
   83SAPS   O13 7760   1.069   4.952  11.141  0.2565 -0.2974  0.2059
   83SAPS   O14 7761   0.847   4.845  11.097  0.3441  0.1389 -0.7050
   83SAPS   O12 7762   0.858   5.074  11.189 -0.3104 -0.1755  0.2939
   83SAPS   O11 7763   0.937   5.035  10.945 -0.4916  0.1282 -0.1818
   83SAPS    C1 7764   1.065   5.081  10.898  0.1354 -0.2860 -0.9465
   83SAPS    HA 7765   1.112   5.158  10.962  1.7636 -1.8624 -0.1658
   83SAPS    HB 7766   1.129   4.992  10.877  0.1757 -0.2570 -0.9459
   83SAPS    C2 7767   1.054   5.170  10.767  0.5793 -0.2446  0.0820
   83SAPS    HS 7768   1.163   5.185  10.753  0.2771  2.6531  0.2688
   83SAPS   O21 7769   0.980   5.290  10.799 -0.3278 -0.0039  0.0195
   83SAPS   C21 7770   1.062   5.398  10.806  0.4765  0.2900 -0.1149
   83SAPS   O22 7771   1.185   5.391  10.811  0.1445 -0.2950 -0.2632
   83SAPS   C22 7772   0.981   5.523  10.784 -0.1699  0.3620 -0.7094
   83SAPS   H2R 7773   0.876   5.500  10.756 -0.4624  0.4394  0.2728
   83SAPS   H2S 7774   0.967   5.576  10.881 -0.0839 -0.3009 -0.3258
   83SAPS    C3 7775   1.005   5.098  10.632 -0.2608  0.0982 -0.1342
   83SAPS    HX 7776   0.895   5.113  10.631 -0.3729 -0.1515  2.2484
   83SAPS    HY 7777   1.034   4.991  10.644 -2.6266 -0.6438 -0.5966
   83SAPS   O31 7778   1.063   5.149  10.508  0.0847 -0.1039 -0.5125
   83SAPS   C31 7779   1.013   5.096  10.395  0.9410  0.4430 -0.3661
   83SAPS   O32 7780   0.931   5.004  10.390  0.0221 -0.2442 -0.6863
   83SAPS   C32 7781   1.060   5.163  10.265  0.3883 -0.2053 -0.7191
   83SAPS   H2X 7782   1.118   5.097  10.197 -0.2976  0.4154 -1.9514
   83SAPS   H2Y 7783   1.116   5.254  10.297  1.0374 -0.8182 -0.0934
   83SAPS   C23 7784   1.044   5.613  10.676  0.3384 -0.5881  0.5975
   83SAPS   H3R 7785   1.142   5.648  10.715  0.7306 -0.4721 -0.4487
   83SAPS   H3S 7786   0.973   5.697  10.666 -2.4167 -2.7142  1.1209
   83SAPS   C24 7787   1.072   5.540  10.542 -0.6012  0.0502  0.2776
   83SAPS   H4R 7788   1.131   5.448  10.564  0.4527  0.6766  0.1528
   83SAPS   H4S 7789   1.141   5.597  10.476  1.3214 -1.9014  0.4722
   83SAPS   C25 7790   0.941   5.503  10.475 -0.0942 -0.6724 -0.3740
   83SAPS   H5R 7791   0.882   5.425  10.525 -0.3552 -0.1789  0.0988
   83SAPS   C26 7792   0.900   5.531  10.356  0.3077 -0.1473 -0.2704
   83SAPS   H6R 7793   0.794   5.509  10.337  0.5901 -1.7584 -0.1313
   83SAPS   C27 7794   0.969   5.609  10.250 -0.3060  0.2407  0.0275
   83SAPS   H7R 7795   0.925   5.551  10.166  0.7792 -0.0415 -0.3693
   83SAPS   H7S 7796   1.073   5.569  10.254 -1.4118 -3.0644 -0.8418
   83SAPS   C28 7797   0.963   5.763  10.221  0.5167  0.1294  0.1551
   83SAPS   H8R 7798   0.950   5.830  10.307  0.5755  0.3131  0.0216
   83SAPS   C29 7799   0.975   5.813  10.097 -0.2316 -0.4694  0.1857
   83SAPS   H9R 7800   0.978   5.922  10.081  0.3077 -0.3469  1.0625
   83SAPS  C210 7801   1.007   5.731   9.970 -1.6846  0.3686 -0.0181
   83SAPS  H10R 7802   0.947   5.637   9.968 -0.2335 -0.5989  0.4518
   83SAPS  H10S 7803   1.114   5.706   9.987 -1.6320  1.1701  0.9647
   83SAPS  C211 7804   0.990   5.804   9.842 -0.2948 -0.3548 -0.2871
   83SAPS  H11R 7805   0.939   5.902   9.842  1.0717  0.3811  0.0386
   83SAPS  C212 7806   1.038   5.760   9.728  0.1021  0.0399 -0.0740
   83SAPS  H12R 7807   1.029   5.821   9.637  0.4649  0.6511  0.2854
   83SAPS  C213 7808   1.126   5.639   9.702 -0.6062  0.6348  0.9936
   83SAPS  H13R 7809   1.162   5.592   9.796 -2.2579 -0.5350  1.0812
   83SAPS  H13S 7810   1.220   5.674   9.654 -0.4035  0.9304  1.5964
   83SAPS  C214 7811   1.047   5.537   9.617  0.4643  0.0178  0.0022
   83SAPS  H14R 7812   0.972   5.476   9.669 -1.6231 -0.1613 -2.9858
   83SAPS  C215 7813   1.054   5.516   9.485  0.2429 -0.5776 -0.1713
   83SAPS  H15R 7814   0.987   5.450   9.429  1.9497 -0.6640 -2.2670
   83SAPS  C216 7815   1.150   5.580   9.381 -0.2182  0.1724  0.2205
   83SAPS  H16R 7816   1.243   5.612   9.433  0.0684 -1.7249  0.9653
   83SAPS  H16S 7817   1.104   5.667   9.329 -1.1284 -0.2569  0.2894
   83SAPS  C217 7818   1.200   5.496   9.260  0.9903 -0.0749  0.1914
   83SAPS  H17R 7819   1.231   5.565   9.179 -0.9177  0.3913 -0.1844
   83SAPS  H17S 7820   1.111   5.437   9.229  3.4804 -3.0296 -1.9661
   83SAPS  C218 7821   1.303   5.393   9.300  0.0785 -0.5102 -0.0860
   83SAPS  H18R 7822   1.270   5.334   9.388  0.2787 -1.0465 -0.3638
   83SAPS  H18S 7823   1.389   5.448   9.342 -0.0755 -0.4054  0.0933
   83SAPS  C219 7824   1.357   5.303   9.181  0.2117  0.0495 -0.1987
   83SAPS  H19R 7825   1.399   5.370   9.103  0.7001 -0.7222 -0.6068
   83SAPS  H19S 7826   1.279   5.234   9.144  2.0041 -1.7411 -0.8118
   83SAPS  C220 7827   1.473   5.208   9.228 -0.0415  0.4144 -0.3114
   83SAPS  H20R 7828   1.562   5.274   9.239  0.5567 -0.5293  0.6167
   83SAPS  H20S 7829   1.490   5.132   9.149  0.9920 -1.0255  1.2172
   83SAPS  H20T 7830   1.443   5.160   9.323 -0.1367  1.6337  0.3050
   83SAPS   C33 7831   0.946   5.216  10.171 -0.1417 -0.1387  0.1224
   83SAPS   H3X 7832   0.876   5.290  10.216 -0.1587 -0.0525 -0.0437
   83SAPS   H3Y 7833   0.883   5.129  10.144 -1.8197  0.9600  0.3461
   83SAPS   C34 7834   1.009   5.273  10.043  0.5255  0.2137 -0.1784
   83SAPS   H4X 7835   1.103   5.333  10.051  0.1203  1.0410 -1.2805
   83SAPS   H4Y 7836   0.926   5.341  10.012 -1.5866 -0.6568  3.0712
   83SAPS   C35 7837   1.023   5.156   9.944  0.2650 -0.2954 -0.6165
   83SAPS   H5X 7838   0.923   5.111   9.925  0.4051 -0.4485 -1.0002
   83SAPS   H5Y 7839   1.095   5.078   9.978  1.8601  0.7203 -1.4990
   83SAPS   C36 7840   1.069   5.200   9.807  0.2621 -0.1528  0.7817
   83SAPS   H6X 7841   1.178   5.216   9.793 -0.0711  0.9416 -0.9171
   83SAPS   H6Y 7842   1.016   5.292   9.777  0.7079  0.4981  1.9421
   83SAPS   C37 7843   1.046   5.088   9.704  0.1907 -0.3946  0.3845
   83SAPS   H7X 7844   0.946   5.043   9.722  0.4677 -1.7102 -1.1661
   83SAPS   H7Y 7845   1.122   5.012   9.732 -0.1611 -1.8463 -2.3123
   83SAPS   C38 7846   1.047   5.137   9.558  0.0943  0.4918 -0.1788
   83SAPS   H8X 7847   1.120   5.221   9.563 -1.8200  2.1715  1.3474
   83SAPS   H8Y 7848   0.955   5.194   9.534 -0.5471 -0.6293 -0.4669
   83SAPS   C39 7849   1.082   5.026   9.459  0.7732  0.6231  0.0940
   83SAPS   H9X 7850   1.002   4.949   9.468  2.0725 -0.7404  0.5697
   83SAPS   H9Y 7851   1.181   4.982   9.487  0.3775 -0.6842 -0.4661
   83SAPS  C310 7852   1.097   5.071   9.314 -0.4445  0.7862  0.6818
   83SAPS  H10X 7853   1.194   5.125   9.310  0.4981 -0.6133  2.7033
   83SAPS  H10Y 7854   1.026   5.154   9.295 -2.4029 -1.1182 -0.7678
   83SAPS  C311 7855   1.094   4.954   9.220  0.2816 -0.0799  0.2245
   83SAPS  H11X 7856   0.990   4.917   9.228  0.0434  0.8134  1.8692
   83SAPS  H11Y 7857   1.158   4.865   9.238 -0.2465 -0.1498  2.0372
   83SAPS  C312 7858   1.104   4.989   9.073 -0.0393  0.1784  0.0481
   83SAPS  H12X 7859   1.185   5.066   9.068  0.4751 -0.3326  0.3909
   83SAPS  H12Y 7860   1.012   5.041   9.041  0.4118 -0.4298 -2.4945
   83SAPS  C313 7861   1.140   4.867   8.981  0.1858 -0.3426  0.1515
   83SAPS  H13X 7862   1.048   4.806   8.969  1.2847 -1.8949 -0.8160
   83SAPS  H13Y 7863   1.229   4.811   9.018  0.4051  0.2640  0.5679
   83SAPS  C314 7864   1.179   4.921   8.837  0.0433  0.4676  0.6843
   83SAPS  H14X 7865   1.268   4.986   8.846  0.1865  0.0561  2.9741
   83SAPS  H14Y 7866   1.086   4.976   8.813 -0.7465 -0.8707  0.5613
   83SAPS  C315 7867   1.200   4.808   8.734  0.1312  0.6123  0.6147
   83SAPS  H15X 7868   1.105   4.751   8.733  0.6760 -0.3756  2.3453
   83SAPS  H15Y 7869   1.284   4.739   8.758  1.1859  1.2789 -0.9229
   83SAPS  C316 7870   1.243   4.868   8.592  0.2545 -0.6195 -0.3118
   83SAPS  H16X 7871   1.340   4.919   8.607  0.7768 -1.2910 -1.3130
   83SAPS  H16Y 7872   1.161   4.939   8.567 -1.1294 -0.9529  2.7065
   83SAPS  C317 7873   1.252   4.770   8.474  0.6721  0.0837 -1.0090
   83SAPS  H17X 7874   1.285   4.835   8.390  2.7625  3.3843  2.0819
   83SAPS  H17Y 7875   1.151   4.732   8.447  0.9302  0.6967 -3.0136
   83SAPS  C318 7876   1.347   4.652   8.498 -0.0895  0.3121 -0.3102
   83SAPS  H18X 7877   1.307   4.579   8.572 -1.9796 -1.3131 -2.7462
   83SAPS  H18Y 7878   1.450   4.675   8.533  0.1659 -2.4438  1.0282
   83SAPS  H18Z 7879   1.356   4.591   8.406  2.6987 -0.2267  0.2511
   84SAPS     N 7880   2.647   3.739  10.866  0.2233  0.0402 -0.2120
   84SAPS   HN1 7881   2.615   3.727  10.964  2.2613 -0.1646  0.4736
   84SAPS   HN2 7882   2.564   3.731  10.805 -0.2077 -1.4912  0.5204
   84SAPS   HN3 7883   2.714   3.660  10.852 -0.6732 -0.9801  0.9805
   84SAPS   C12 7884   2.704   3.872  10.853  0.1912  0.2546  0.2931
   84SAPS  H12A 7885   2.758   3.888  10.762  2.6670  0.6206  1.7390
   84SAPS   C13 7886   2.601   3.985  10.867  0.5418 -0.5562  0.1525
   84SAPS  O13A 7887   2.480   3.968  10.899 -0.7044  0.5592  0.5417
   84SAPS  O13B 7888   2.642   4.105  10.848 -0.2457 -0.4854 -0.2844
   84SAPS   C11 7889   2.806   3.893  10.969 -0.0712  0.6752  0.0964
   84SAPS  H11A 7890   2.750   3.898  11.064 -0.1155 -0.2358  0.1268
   84SAPS  H11B 7891   2.858   3.988  10.945  1.4766  0.4020  2.1391
   84SAPS     P 7892   3.051   3.796  10.948  0.3650 -0.1482  0.1847
   84SAPS   O13 7893   3.122   3.882  11.046  0.0157  0.1949  0.0585
   84SAPS   O14 7894   3.110   3.662  10.922 -0.2876  0.1869 -0.0004
   84SAPS   O12 7895   2.897   3.789  10.989  0.2698  0.1641 -0.6645
   84SAPS   O11 7896   3.042   3.868  10.804  0.6570  0.7907  0.1821
   84SAPS    C1 7897   3.151   3.933  10.740  0.2075 -0.4979  0.0211
   84SAPS    HA 7898   3.250   3.883  10.747 -1.0914 -3.6448 -1.7400
   84SAPS    HB 7899   3.122   3.937  10.633 -3.1337  0.2598  0.8591
   84SAPS    C2 7900   3.166   4.080  10.794  0.2084  0.2868 -0.3935
   84SAPS    HS 7901   3.154   4.076  10.905 -1.7681  1.4055 -0.5106
   84SAPS   O21 7902   3.062   4.155  10.729  0.7034 -0.0521 -0.0224
   84SAPS   C21 7903   3.038   4.272  10.779 -0.2117 -0.9216  0.1237
   84SAPS   O22 7904   3.098   4.319  10.874 -0.1554 -0.6809  0.5371
   84SAPS   C22 7905   2.935   4.351  10.697  0.3829  0.6854  0.0401
   84SAPS   H2R 7906   2.880   4.269  10.647  1.9894 -1.4725  1.5939
   84SAPS   H2S 7907   2.877   4.415  10.767  1.2197  1.5853 -0.0811
   84SAPS    C3 7908   3.298   4.138  10.764 -0.1580 -0.0757 -0.8379
   84SAPS    HX 7909   3.373   4.056  10.773  1.3921  1.4526  1.9314
   84SAPS    HY 7910   3.328   4.209  10.845 -0.7297 -0.2306 -0.4819
   84SAPS   O31 7911   3.308   4.186  10.633  0.3311 -0.0248  0.1834
   84SAPS   C31 7912   3.404   4.283  10.621 -0.2348  0.2957  0.4210
   84SAPS   O32 7913   3.479   4.316  10.709 -0.6004 -0.5922 -0.3820
   84SAPS   C32 7914   3.408   4.323  10.473  0.3314  0.4804 -0.0714
   84SAPS   H2X 7915   3.509   4.364  10.454  0.1850 -0.0264 -2.0751
   84SAPS   H2Y 7916   3.331   4.397  10.444  1.1377  1.1822 -0.4492
   84SAPS   C23 7917   3.006   4.450  10.597 -0.2429  0.4879 -0.7265
   84SAPS   H3R 7918   3.102   4.487  10.638 -0.6092  1.0342 -0.3380
   84SAPS   H3S 7919   2.951   4.546  10.579  0.5765  0.8709 -1.2928
   84SAPS   C24 7920   3.029   4.377  10.462  0.3542 -0.5558  0.4488
   84SAPS   H4R 7921   3.083   4.283  10.485  0.9499  0.3006  2.8440
   84SAPS   H4S 7922   3.087   4.440  10.392  1.5770 -1.5989  0.4810
   84SAPS   C25 7923   2.905   4.326  10.392 -0.9436 -0.2050  0.3080
   84SAPS   H5R 7924   2.864   4.231  10.430 -0.9659 -0.0854  0.5799
   84SAPS   C26 7925   2.850   4.381  10.283 -0.6855 -0.2763  0.0024
   84SAPS   H6R 7926   2.755   4.339  10.246  0.0659 -1.9353 -0.1584
   84SAPS   C27 7927   2.892   4.507  10.214  0.2956  0.0809  0.3976
   84SAPS   H7R 7928   2.924   4.583  10.288 -1.7947  1.8567 -0.4156
   84SAPS   H7S 7929   2.808   4.557  10.163  0.9189  0.3515 -0.3898
   84SAPS   C28 7930   3.011   4.468  10.123  0.0565 -0.1067  0.3652
   84SAPS   H8R 7931   3.080   4.391  10.161 -0.2150 -1.0893 -1.0731
   84SAPS   C29 7932   3.034   4.527  10.004  0.0517  0.4690 -0.2631
   84SAPS   H9R 7933   3.102   4.477   9.933 -2.2129 -0.9324 -1.5803
   84SAPS  C210 7934   2.954   4.635   9.939 -0.5939  0.3493  0.6596
   84SAPS  H10R 7935   2.964   4.733   9.989 -1.5854  1.3067 -0.9206
   84SAPS  H10S 7936   2.854   4.587   9.944 -0.7507  0.3419 -1.4151
   84SAPS  C211 7937   2.989   4.658   9.793 -0.0903 -0.1899  0.9117
   84SAPS  H11R 7938   3.075   4.724   9.772  1.4491 -2.4835 -0.4078
   84SAPS  C212 7939   2.924   4.607   9.685  0.8822  0.4549  0.6233
   84SAPS  H12R 7940   2.958   4.631   9.583 -1.3090 -1.1149 -0.5629
   84SAPS  C213 7941   2.798   4.518   9.686  0.0763 -0.1209  0.0918
   84SAPS  H13R 7942   2.740   4.557   9.599 -1.3112 -0.2041  0.9423
   84SAPS  H13S 7943   2.739   4.534   9.779  1.8269  0.4636  1.1403
   84SAPS  C214 7944   2.841   4.374   9.668  0.5417  0.2124 -0.1280
   84SAPS  H14R 7945   2.928   4.337   9.724  0.6553  0.9265  0.1816
   84SAPS  C215 7946   2.773   4.290   9.592  0.5161 -0.1790  0.0883
   84SAPS  H15R 7947   2.809   4.186   9.590  0.1644 -0.3314  0.9262
   84SAPS  C216 7948   2.651   4.322   9.503  0.3369 -0.3850  0.7491
   84SAPS  H16R 7949   2.595   4.412   9.534 -1.0534 -0.3203 -1.7429
   84SAPS  H16S 7950   2.584   4.233   9.500 -0.7145  0.4150 -1.7863
   84SAPS  C217 7951   2.708   4.350   9.362  0.1977  0.2905  0.9402
   84SAPS  H17R 7952   2.760   4.264   9.315 -0.4035  1.4626 -2.0967
   84SAPS  H17S 7953   2.785   4.428   9.376  2.3989 -1.2182 -1.8364
   84SAPS  C218 7954   2.599   4.396   9.250  0.3707  0.3833 -0.2880
   84SAPS  H18R 7955   2.565   4.499   9.275 -2.5683 -0.3794 -0.8336
   84SAPS  H18S 7956   2.498   4.349   9.252  1.4755 -2.1584 -0.2406
   84SAPS  C219 7957   2.656   4.385   9.100 -0.4932  0.5975 -0.0794
   84SAPS  H19R 7958   2.581   4.433   9.034  1.6446 -0.3425 -3.4200
   84SAPS  H19S 7959   2.671   4.277   9.079 -1.5656  0.8707 -2.5342
   84SAPS  C220 7960   2.789   4.452   9.083  0.3762  0.4136  0.4499
   84SAPS  H20R 7961   2.852   4.466   9.174  3.3080  0.0652 -1.4148
   84SAPS  H20S 7962   2.781   4.547   9.027  0.7086 -0.9585 -2.0382
   84SAPS  H20T 7963   2.855   4.389   9.020 -1.3784 -1.3931  0.3261
   84SAPS   C33 7964   3.378   4.207  10.380 -0.2864  0.4958 -0.0491
   84SAPS   H3X 7965   3.277   4.161  10.384 -0.0357 -0.4447 -2.4385
   84SAPS   H3Y 7966   3.455   4.132  10.407  0.3279  2.2402  3.6408
   84SAPS   C34 7967   3.403   4.240  10.231 -0.4954 -0.1140 -0.3709
   84SAPS   H4X 7968   3.325   4.302  10.182  1.8077  1.8521 -1.8046
   84SAPS   H4Y 7969   3.412   4.138  10.187  3.4860 -1.0565  2.0917
   84SAPS   C35 7970   3.523   4.320  10.197  0.3800  0.2894 -0.0798
   84SAPS   H5X 7971   3.600   4.293  10.273 -0.1746 -1.1643  0.0004
   84SAPS   H5Y 7972   3.497   4.427  10.212 -1.2720  0.0136 -0.7747
   84SAPS   C36 7973   3.574   4.268  10.060 -0.2549  0.6663  0.7457
   84SAPS   H6X 7974   3.595   4.159  10.073 -1.8094  0.1261 -0.8486
   84SAPS   H6Y 7975   3.673   4.313  10.038  0.8447 -1.8399  0.1546
   84SAPS   C37 7976   3.481   4.278   9.940  0.0478  0.0448  0.0913
   84SAPS   H7X 7977   3.382   4.231   9.961 -0.1485 -0.4665 -1.8450
   84SAPS   H7Y 7978   3.529   4.224   9.855  3.3920 -0.9600  2.3805
   84SAPS   C38 7979   3.449   4.424   9.915  0.4108 -0.0329  0.5640
   84SAPS   H8X 7980   3.441   4.489  10.006  0.7305  3.4263 -1.6773
   84SAPS   H8Y 7981   3.349   4.422   9.866  0.2327  1.1215  0.8389
   84SAPS   C39 7982   3.555   4.501   9.839  0.2064 -0.1532  0.0315
   84SAPS   H9X 7983   3.656   4.466   9.869 -0.1999 -0.1323  1.5472
   84SAPS   H9Y 7984   3.546   4.609   9.866 -1.7183 -0.6067  1.4203
   84SAPS  C310 7985   3.537   4.478   9.686  0.9412 -0.1691  0.3794
   84SAPS  H10X 7986   3.455   4.535   9.636 -0.1310 -1.7574  0.2814
   84SAPS  H10Y 7987   3.526   4.371   9.660 -0.0579 -0.1165  0.5471
   84SAPS  C311 7988   3.662   4.529   9.621  0.1378  0.3709 -0.6708
   84SAPS  H11X 7989   3.743   4.461   9.655 -1.3289 -0.9873  0.2409
   84SAPS  H11Y 7990   3.690   4.629   9.660 -1.0576  0.2018  0.7143
   84SAPS  C312 7991   3.655   4.518   9.465 -0.4264  0.9132 -0.0119
   84SAPS  H12X 7992   3.751   4.559   9.428  0.4800 -0.9365  0.2180
   84SAPS  H12Y 7993   3.575   4.584   9.424  0.4335  2.3524  0.5375
   84SAPS  C313 7994   3.644   4.375   9.404 -0.1051  0.3996 -0.0110
   84SAPS  H13X 7995   3.548   4.330   9.436  0.5448 -1.3671 -0.3829
   84SAPS  H13Y 7996   3.731   4.310   9.429  0.1491 -0.6770 -3.1632
   84SAPS  C314 7997   3.635   4.371   9.254  0.5302 -0.3417  1.2354
   84SAPS  H14X 7998   3.722   4.426   9.212 -1.6557  0.0889 -3.2422
   84SAPS  H14Y 7999   3.555   4.437   9.216  2.1432  1.7316  1.2465
   84SAPS  C315 8000   3.635   4.230   9.190  0.2594  0.7266 -0.6647
   84SAPS  H15X 8001   3.554   4.169   9.233  0.4137  0.4212 -0.8018
   84SAPS  H15Y 8002   3.728   4.173   9.211 -0.5457 -0.7133 -0.8561
   84SAPS  C316 8003   3.600   4.246   9.037  0.0819 -0.2240  0.1777
   84SAPS  H16X 8004   3.499   4.286   9.019  0.8329  2.3050  1.1695
   84SAPS  H16Y 8005   3.603   4.143   8.995  0.0053  0.5873 -1.8987
   84SAPS  C317 8006   3.695   4.330   8.950 -0.4672  0.6355  0.1043
   84SAPS  H17X 8007   3.804   4.319   8.967 -0.4592  2.6361  1.6359
   84SAPS  H17Y 8008   3.672   4.434   8.982 -1.9339  0.3627 -0.0106
   84SAPS  C318 8009   3.662   4.313   8.801  0.6595 -0.2530  0.0379
   84SAPS  H18X 8010   3.745   4.359   8.743  1.1581 -0.3752  0.6483
   84SAPS  H18Y 8011   3.571   4.371   8.774  1.3519 -0.0648 -2.0469
   84SAPS  H18Z 8012   3.665   4.204   8.783 -0.4921 -0.4046  0.6853
   85SAPS     N 8013   0.173   1.214  10.944 -0.7462 -0.1905 -0.3806
   85SAPS   HN1 8014   0.186   1.115  10.918  1.5370  0.3400 -1.5166
   85SAPS   HN2 8015   0.119   1.268  10.874  1.9193  1.8801 -1.0495
   85SAPS   HN3 8016   0.265   1.264  10.943  0.8084 -2.8988 -1.4119
   85SAPS   C12 8017   0.113   1.232  11.078 -0.4193 -0.3243  0.5099
   85SAPS  H12A 8018   0.181   1.182  11.145  0.3706 -0.4994 -0.4021
   85SAPS   C13 8019   0.080   1.384  11.106 -0.7207 -0.0850 -0.0462
   85SAPS  O13A 8020   0.095   1.482  11.027  0.5141 -0.2266  0.0554
   85SAPS  O13B 8021   0.041   1.410  11.222 -0.1930 -0.0264  0.5400
   85SAPS   C11 8022  -0.021   1.154  11.070  0.3050 -0.2533  0.5553
   85SAPS  H11A 8023  -0.075   1.183  11.163  1.3428 -0.5425  1.2682
   85SAPS  H11B 8024   0.011   1.048  11.071  1.1378 -0.0243 -0.5686
   85SAPS     P 8025  -0.230   1.128  10.905  0.3432 -0.3758  0.5875
   85SAPS   O13 8026  -0.203   1.027  10.798 -0.1487  0.3445  0.6256
   85SAPS   O14 8027  -0.307   1.086  11.029 -0.8178  0.2000  0.7319
   85SAPS   O12 8028  -0.094   1.188  10.951 -0.3831  0.1209  0.1441
   85SAPS   O11 8029  -0.321   1.246  10.840  0.3665  0.1611 -0.3981
   85SAPS    C1 8030  -0.283   1.325  10.724 -0.0922  0.5824 -0.0958
   85SAPS    HA 8031  -0.360   1.402  10.702 -2.0333 -1.6309 -1.6181
   85SAPS    HB 8032  -0.188   1.378  10.747  0.9787 -0.7117 -1.3500
   85SAPS    C2 8033  -0.270   1.244  10.594 -0.6065  0.1911  0.0075
   85SAPS    HS 8034  -0.179   1.181  10.600 -0.3444  0.6854  1.7613
   85SAPS   O21 8035  -0.276   1.338  10.480  0.0404 -0.1886  0.2070
   85SAPS   C21 8036  -0.161   1.398  10.457  0.2504  0.6614  0.1997
   85SAPS   O22 8037  -0.053   1.347  10.490  0.2379 -0.1726 -0.6903
   85SAPS   C22 8038  -0.189   1.528  10.380  0.2042 -0.6803 -0.1549
   85SAPS   H2R 8039  -0.294   1.560  10.395 -0.1281  0.0293 -3.2108
   85SAPS   H2S 8040  -0.120   1.604  10.423  1.3633 -1.0689 -1.2703
   85SAPS    C3 8041  -0.390   1.144  10.562  0.4427 -0.3607 -0.4436
   85SAPS    HX 8042  -0.479   1.209  10.559  1.9792  1.9020  0.6309
   85SAPS    HY 8043  -0.392   1.058  10.633 -0.1232 -1.1247 -1.3544
   85SAPS   O31 8044  -0.372   1.087  10.429  0.1725 -0.5087  1.0364
   85SAPS   C31 8045  -0.483   1.075  10.360  0.1362  0.0973 -0.1498
   85SAPS   O32 8046  -0.599   1.087  10.396  0.4560  0.0255 -0.0089
   85SAPS   C32 8047  -0.448   1.033  10.215 -0.2981 -0.0874 -0.3744
   85SAPS   H2X 8048  -0.479   1.123  10.158  0.3442 -0.2135 -0.9329
   85SAPS   H2Y 8049  -0.522   0.956  10.185  3.3421 -2.7662 -3.4416
   85SAPS   C23 8050  -0.163   1.525  10.227  0.5867 -0.7455 -0.2140
   85SAPS   H3R 8051  -0.061   1.489  10.203  0.4768 -0.5991 -0.9184
   85SAPS   H3S 8052  -0.173   1.627  10.185  0.8967  0.2861  2.0566
   85SAPS   C24 8053  -0.260   1.439  10.151  0.3244  0.1427  0.7387
   85SAPS   H4R 8054  -0.362   1.483  10.147  1.0814  1.9163 -0.1713
   85SAPS   H4S 8055  -0.268   1.347  10.212 -0.0545 -0.3500 -0.0265
   85SAPS   C25 8056  -0.230   1.397  10.008  0.0174  1.1674 -0.2400
   85SAPS   H5R 8057  -0.130   1.351  10.011 -0.4373  0.1145 -0.4340
   85SAPS   C26 8058  -0.308   1.410   9.897  0.4371 -0.0972 -0.0920
   85SAPS   H6R 8059  -0.266   1.374   9.802 -1.8439 -0.8289 -0.8965
   85SAPS   C27 8060  -0.449   1.466   9.887  0.3483  0.8398  0.8566
   85SAPS   H7R 8061  -0.488   1.480   9.990 -1.3111  0.3238  0.3247
   85SAPS   H7S 8062  -0.507   1.387   9.836  1.4245  0.2705  0.4960
   85SAPS   C28 8063  -0.466   1.598   9.816 -0.2732 -0.0126  0.0923
   85SAPS   H8R 8064  -0.517   1.677   9.873 -1.2806 -0.0346 -0.7507
   85SAPS   C29 8065  -0.449   1.626   9.688  0.6882 -0.3275  0.3464
   85SAPS   H9R 8066  -0.457   1.728   9.648  1.2604  0.1254  1.3429
   85SAPS  C210 8067  -0.398   1.523   9.589  0.9519 -0.1454  0.4925
   85SAPS  H10R 8068  -0.414   1.421   9.631 -0.0622  0.1986  0.9538
   85SAPS  H10S 8069  -0.292   1.551   9.570 -0.2017  2.8017 -2.4090
   85SAPS  C211 8070  -0.464   1.541   9.452  0.2442 -0.2409  0.8045
   85SAPS  H11R 8071  -0.545   1.467   9.439 -1.2150  1.3092  0.8237
   85SAPS  C212 8072  -0.442   1.636   9.350 -0.5429 -0.1086 -0.4227
   85SAPS  H12R 8073  -0.512   1.639   9.266 -0.7973  1.1735 -0.1834
   85SAPS  C213 8074  -0.330   1.743   9.339  0.8194 -0.0146 -0.7566
   85SAPS  H13R 8075  -0.311   1.807   9.428  0.7481  2.0326 -2.1395
   85SAPS  H13S 8076  -0.366   1.804   9.254 -2.5399 -3.3623 -1.9639
   85SAPS  C214 8077  -0.192   1.689   9.302 -0.1745 -0.2692  0.1490
   85SAPS  H14R 8078  -0.114   1.686   9.380  0.4251 -1.0499 -0.4654
   85SAPS  C215 8079  -0.146   1.674   9.176 -0.1313  0.2835 -0.0254
   85SAPS  H15R 8080  -0.040   1.649   9.163  0.0650  0.2992  1.3712
   85SAPS  C216 8081  -0.220   1.686   9.050  0.1250 -0.4983  0.8786
   85SAPS  H16R 8082  -0.328   1.708   9.064  0.4928  0.7039  1.9976
   85SAPS  H16S 8083  -0.211   1.590   8.996  2.1928 -1.7290  3.2452
   85SAPS  C217 8084  -0.163   1.801   8.957  0.2487 -0.1701 -0.3211
   85SAPS  H17R 8085  -0.066   1.758   8.924 -0.5772 -0.7672 -2.1466
   85SAPS  H17S 8086  -0.148   1.896   9.012 -1.4786 -0.9117  1.5670
   85SAPS  C218 8087  -0.249   1.817   8.831  0.3518 -0.3557  0.1342
   85SAPS  H18R 8088  -0.355   1.830   8.861  0.2176 -0.1946 -0.3920
   85SAPS  H18S 8089  -0.238   1.731   8.762  0.3756  0.8549 -1.4541
   85SAPS  C219 8090  -0.219   1.938   8.743  0.5867 -0.0994 -0.1356
   85SAPS  H19R 8091  -0.242   2.031   8.798  0.4314 -0.2239  0.0124
   85SAPS  H19S 8092  -0.301   1.933   8.669 -0.3905 -0.7972  0.9514
   85SAPS  C220 8093  -0.086   1.933   8.679 -0.2561 -0.7747  0.4260
   85SAPS  H20R 8094  -0.046   2.030   8.643  2.1762 -1.7444  0.3170
   85SAPS  H20S 8095  -0.088   1.867   8.589  4.6999 -2.4563  1.2337
   85SAPS  H20T 8096  -0.011   1.890   8.750 -0.8283 -0.4058  1.2553
   85SAPS   C33 8097  -0.302   1.001  10.177 -0.3314  0.9339  0.6903
   85SAPS   H3X 8098  -0.267   0.936  10.260 -2.7138  0.5697  1.4909
   85SAPS   H3Y 8099  -0.240   1.091  10.162  1.3087 -0.6872 -4.0475
   85SAPS   C34 8100  -0.284   0.926  10.042  0.3332 -0.1151  0.5684
   85SAPS   H4X 8101  -0.334   0.828  10.057  1.6221 -0.7944  0.6084
   85SAPS   H4Y 8102  -0.175   0.913  10.021 -0.0345 -0.9573 -0.9532
   85SAPS   C35 8103  -0.351   0.991   9.923 -0.6627 -0.1952 -0.5928
   85SAPS   H5X 8104  -0.293   1.084   9.907  0.7259 -1.0810 -0.9524
   85SAPS   H5Y 8105  -0.460   0.998   9.943 -0.5384  0.9750 -0.2825
   85SAPS   C36 8106  -0.345   0.921   9.781 -0.3911  1.2260 -1.8332
   85SAPS   H6X 8107  -0.388   0.819   9.788  1.3550  0.5640  1.0366
   85SAPS   H6Y 8108  -0.237   0.907   9.755 -0.3286 -0.7141 -0.7117
   85SAPS   C37 8109  -0.398   1.002   9.665 -0.1367  0.4769  0.5945
   85SAPS   H7X 8110  -0.377   0.942   9.574 -0.2759  0.5008  0.5456
   85SAPS   H7Y 8111  -0.340   1.097   9.661  0.1023  0.3520 -3.9413
   85SAPS   C38 8112  -0.547   1.029   9.672 -0.1520 -0.7280  0.4765
   85SAPS   H8X 8113  -0.580   1.084   9.762  0.0319  0.4930 -0.1723
   85SAPS   H8Y 8114  -0.593   0.928   9.671  0.9417 -1.2352 -0.2652
   85SAPS   C39 8115  -0.581   1.110   9.537  0.1119 -0.2250 -0.0948
   85SAPS   H9X 8116  -0.515   1.198   9.523  0.5457 -0.1913  1.8715
   85SAPS   H9Y 8117  -0.686   1.147   9.550 -0.1033 -1.3878  1.8034
   85SAPS  C310 8118  -0.594   1.015   9.417  1.0372  0.3977 -0.2668
   85SAPS  H10X 8119  -0.644   0.918   9.438 -0.9636  0.9363 -2.1040
   85SAPS  H10Y 8120  -0.493   0.999   9.375  0.7701  1.1142 -1.2331
   85SAPS  C311 8121  -0.679   1.075   9.313 -0.5774  0.4282 -0.3290
   85SAPS  H11X 8122  -0.785   1.071   9.346 -0.8928 -0.1441 -1.3580
   85SAPS  H11Y 8123  -0.686   0.993   9.238  0.1343 -0.0820  0.1459
   85SAPS  C312 8124  -0.624   1.204   9.257  0.3656  0.8572 -0.4557
   85SAPS  H12X 8125  -0.527   1.183   9.205  0.2341 -3.2098  0.6474
   85SAPS  H12Y 8126  -0.599   1.286   9.328 -1.7144  3.3844 -2.4208
   85SAPS  C313 8127  -0.727   1.256   9.158  0.8085  0.1489 -0.0223
   85SAPS  H13X 8128  -0.809   1.302   9.217  0.1561 -0.3263 -0.5459
   85SAPS  H13Y 8129  -0.767   1.177   9.092 -1.7277  0.4608  1.0335
   85SAPS  C314 8130  -0.662   1.364   9.068  0.0500 -0.6122  0.3640
   85SAPS  H14X 8131  -0.587   1.311   9.006  1.9441  1.6511  0.5773
   85SAPS  H14Y 8132  -0.599   1.427   9.135 -0.4638  0.1456  0.1419
   85SAPS  C315 8133  -0.772   1.442   9.003  0.2395  0.1245  0.8388
   85SAPS  H15X 8134  -0.834   1.500   9.074  0.6638 -1.1221  2.2745
   85SAPS  H15Y 8135  -0.839   1.374   8.945 -1.0653  0.5977  1.7482
   85SAPS  C316 8136  -0.717   1.548   8.898  0.0049  0.4548  0.3699
   85SAPS  H16X 8137  -0.642   1.496   8.836 -1.7330 -1.2731 -0.3895
   85SAPS  H16Y 8138  -0.659   1.620   8.959  1.4864 -0.6510  0.3170
   85SAPS  C317 8139  -0.825   1.620   8.816  0.0860 -0.7029  0.2265
   85SAPS  H17X 8140  -0.869   1.709   8.867 -3.3607 -0.4843 -2.6953
   85SAPS  H17Y 8141  -0.902   1.543   8.793 -0.7409  0.2396 -0.2477
   85SAPS  C318 8142  -0.764   1.680   8.687  0.2332 -0.2201 -0.1935
   85SAPS  H18X 8143  -0.703   1.770   8.711  0.5591 -0.3962 -0.3562
   85SAPS  H18Y 8144  -0.844   1.707   8.615 -0.6676 -0.5805  0.6366
   85SAPS  H18Z 8145  -0.683   1.612   8.655  0.2096  0.3848 -1.5795
   86SAPS     N 8146   3.220   6.582  10.616 -0.3480  0.4320  0.2802
   86SAPS   HN1 8147   3.153   6.630  10.679 -1.0227  1.0346 -0.8638
   86SAPS   HN2 8148   3.258   6.647  10.546 -0.5866 -0.5362 -0.7819
   86SAPS   HN3 8149   3.164   6.502  10.580  1.8524 -2.0213  1.9158
   86SAPS   C12 8150   3.332   6.520  10.693  0.2716  0.2892  0.0494
   86SAPS  H12A 8151   3.388   6.456  10.627  1.7705  1.7533 -0.1395
   86SAPS   C13 8152   3.445   6.613  10.739 -0.5733 -0.5471  0.2545
   86SAPS  O13A 8153   3.439   6.735  10.733 -0.6700  0.6481 -0.0522
   86SAPS  O13B 8154   3.548   6.553  10.789  0.5536 -0.1899  0.0165
   86SAPS   C11 8155   3.282   6.444  10.826  0.3518 -0.1651 -0.2502
   86SAPS  H11A 8156   3.218   6.518  10.879 -0.4229 -0.6842 -0.4342
   86SAPS  H11B 8157   3.371   6.421  10.887 -0.0418  1.7877  1.1753
   86SAPS     P 8158   3.178   6.209  10.866 -0.5535  0.1069 -0.4983
   86SAPS   O13 8159   3.305   6.175  10.928  0.3421 -0.1603  0.1564
   86SAPS   O14 8160   3.061   6.239  10.952 -0.1012  0.0488  0.2364
   86SAPS   O12 8161   3.208   6.334  10.777  0.6809  0.5820 -0.1771
   86SAPS   O11 8162   3.142   6.103  10.759  0.3216 -0.0015  0.2129
   86SAPS    C1 8163   3.060   6.133  10.644  0.0557 -0.6884 -0.2626
   86SAPS    HA 8164   2.976   6.060  10.644 -0.5480 -0.0296  1.3744
   86SAPS    HB 8165   3.008   6.230  10.661  0.9183 -0.4281  1.0042
   86SAPS    C2 8166   3.149   6.149  10.518 -0.3878  0.1102 -0.3742
   86SAPS    HS 8167   3.230   6.223  10.532 -0.3275 -0.2220  1.2723
   86SAPS   O21 8168   3.070   6.184  10.401  0.5836 -0.3763 -0.2309
   86SAPS   C21 8169   3.030   6.308  10.400 -1.1564 -0.0087 -0.0463
   86SAPS   O22 8170   3.065   6.397  10.481  0.5620  0.5027 -0.3469
   86SAPS   C22 8171   2.922   6.329  10.300 -0.3397  0.2250  0.3079
   86SAPS   H2R 8172   2.935   6.263  10.212  3.1202  1.3060 -0.1564
   86SAPS   H2S 8173   2.823   6.307  10.344 -0.9251  0.6630 -0.7501
   86SAPS    C3 8174   3.222   6.016  10.486  1.0102  0.5398  0.7405
   86SAPS    HX 8175   3.143   5.939  10.475  1.4803  0.1078  0.3849
   86SAPS    HY 8176   3.282   5.985  10.574  0.7541  0.1488  0.7816
   86SAPS   O31 8177   3.304   6.025  10.368 -0.1654 -0.0648 -0.1533
   86SAPS   C31 8178   3.362   5.908  10.338  0.3894 -0.0848  0.2244
   86SAPS   O32 8179   3.365   5.817  10.422  0.0528  0.2966  0.2004
   86SAPS   C32 8180   3.425   5.909  10.198  1.2257  0.3679  0.2228
   86SAPS   H2X 8181   3.521   5.965  10.201  1.1442  0.5830 -0.8550
   86SAPS   H2Y 8182   3.361   5.972  10.133  0.4398 -0.3218  0.3150
   86SAPS   C23 8183   2.910   6.471  10.248  0.0962  0.2046  0.3815
   86SAPS   H3R 8184   2.918   6.533  10.340 -1.5496 -0.5551  1.0695
   86SAPS   H3S 8185   2.810   6.485  10.203 -0.8242 -0.3791  2.1778
   86SAPS   C24 8186   3.022   6.501  10.144 -0.0995 -0.3029 -0.2524
   86SAPS   H4R 8187   3.021   6.427  10.061  2.7673  1.9869 -2.6034
   86SAPS   H4S 8188   3.126   6.485  10.181  0.3308 -0.1812 -1.3612
   86SAPS   C25 8189   3.005   6.648  10.108 -0.1049  0.4413 -0.2452
   86SAPS   H5R 8190   3.037   6.724  10.180 -0.0291 -0.5942  0.8300
   86SAPS   C26 8191   2.957   6.691   9.991  0.3117 -0.5477 -0.5827
   86SAPS   H6R 8192   2.973   6.798   9.971 -0.9318  0.1937  1.9993
   86SAPS   C27 8193   2.917   6.612   9.866 -0.6733  0.1937 -0.2385
   86SAPS   H7R 8194   2.880   6.683   9.789 -0.6559  1.3301  0.7642
   86SAPS   H7S 8195   2.825   6.549   9.873  0.1851 -0.9089  2.2421
   86SAPS   C28 8196   3.028   6.539   9.799 -0.5327 -0.3290 -0.4171
   86SAPS   H8R 8197   3.123   6.521   9.851 -1.2337 -2.8858  0.0935
   86SAPS   C29 8198   3.021   6.468   9.684 -0.0326 -0.3004  0.2546
   86SAPS   H9R 8199   3.115   6.431   9.643 -0.0849 -0.8451  0.6279
   86SAPS  C210 8200   2.904   6.451   9.592 -0.0888  0.2857 -0.5302
   86SAPS  H10R 8201   2.937   6.490   9.494  0.8734 -0.3397 -0.4723
   86SAPS  H10S 8202   2.825   6.520   9.629 -0.5526  1.1468 -2.9755
   86SAPS  C211 8203   2.848   6.305   9.592  0.3935 -0.9372  0.3116
   86SAPS  H11R 8204   2.800   6.274   9.686 -0.5882 -0.6072 -0.0587
   86SAPS  C212 8205   2.824   6.227   9.484 -0.3681 -0.8908 -0.6059
   86SAPS  H12R 8206   2.780   6.127   9.493 -1.7144 -0.5034 -2.2408
   86SAPS  C213 8207   2.859   6.263   9.344 -0.1044 -0.3600 -0.4675
   86SAPS  H13R 8208   2.953   6.209   9.320  1.1670  1.8012 -0.6142
   86SAPS  H13S 8209   2.871   6.373   9.332 -2.2040 -0.2824 -2.6096
   86SAPS  C214 8210   2.755   6.226   9.241 -1.0854  0.7442 -0.2308
   86SAPS  H14R 8211   2.660   6.180   9.273  0.0973 -1.4714  0.2426
   86SAPS  C215 8212   2.784   6.238   9.109 -0.6036  0.0495  0.1148
   86SAPS  H15R 8213   2.703   6.218   9.038 -2.7528 -0.3461  2.5510
   86SAPS  C216 8214   2.913   6.280   9.047 -0.1996  0.2758  0.0169
   86SAPS  H16R 8215   2.983   6.300   9.130 -0.8918 -3.6701  1.7927
   86SAPS  H16S 8216   2.891   6.371   8.987 -2.2279  0.2922  0.6982
   86SAPS  C217 8217   2.981   6.186   8.944 -1.0898  0.1094  0.1701
   86SAPS  H17R 8218   2.909   6.181   8.859 -2.0890 -0.2595  1.0139
   86SAPS  H17S 8219   2.991   6.086   8.991 -0.1659 -0.0285 -0.3144
   86SAPS  C218 8220   3.122   6.237   8.930 -0.0030 -0.1529 -0.1750
   86SAPS  H18R 8221   3.182   6.201   9.016  0.6929  1.0123 -0.1541
   86SAPS  H18S 8222   3.129   6.348   8.932 -1.5153  0.0143 -1.5029
   86SAPS  C219 8223   3.178   6.186   8.800 -0.9090  0.7036 -0.0773
   86SAPS  H19R 8224   3.111   6.199   8.712  0.4578  1.4211 -1.0616
   86SAPS  H19S 8225   3.188   6.076   8.808  1.6703  0.9017  0.4822
   86SAPS  C220 8226   3.314   6.243   8.763  0.6134  0.5257 -0.6722
   86SAPS  H20R 8227   3.364   6.190   8.680  3.6190  0.6264  0.9173
   86SAPS  H20S 8228   3.383   6.222   8.848 -0.6113 -1.8290 -0.1830
   86SAPS  H20T 8229   3.318   6.351   8.738  2.8846  0.5258 -0.5658
   86SAPS   C33 8230   3.453   5.766  10.123 -0.1308  0.5451 -0.6170
   86SAPS   H3X 8231   3.362   5.702  10.121 -0.1555  0.1910  3.6103
   86SAPS   H3Y 8232   3.524   5.706  10.183  0.1278  0.8280 -0.6394
   86SAPS   C34 8233   3.511   5.782   9.989 -0.2618  0.1171 -0.1417
   86SAPS   H4X 8234   3.530   5.683   9.941  1.9497  0.2479  0.3356
   86SAPS   H4Y 8235   3.611   5.828  10.003 -0.1322  0.4025 -1.8136
   86SAPS   C35 8236   3.433   5.872   9.885  0.2556  0.0376  0.2279
   86SAPS   H5X 8237   3.434   5.979   9.915 -0.5949 -0.1212  0.8762
   86SAPS   H5Y 8238   3.329   5.833   9.877  0.9045 -1.8061  0.4260
   86SAPS   C36 8239   3.498   5.863   9.744 -0.2798  0.4418  0.3983
   86SAPS   H6X 8240   3.431   5.902   9.664 -1.9103 -2.1393  0.3580
   86SAPS   H6Y 8241   3.506   5.753   9.730 -4.2172 -0.3168  2.6673
   86SAPS   C37 8242   3.636   5.924   9.725  0.2037  0.0044 -0.3792
   86SAPS   H7X 8243   3.706   5.895   9.806  1.7866  2.3533 -0.8344
   86SAPS   H7Y 8244   3.617   6.033   9.730 -1.3651 -0.2912  2.5544
   86SAPS   C38 8245   3.706   5.896   9.586  0.6053  0.1410 -0.8315
   86SAPS   H8X 8246   3.738   5.790   9.599  1.0977  0.2388 -1.2415
   86SAPS   H8Y 8247   3.799   5.956   9.590 -0.0944  1.2704 -1.2017
   86SAPS   C39 8248   3.634   5.947   9.459 -0.9901  0.2446  0.6568
   86SAPS   H9X 8249   3.570   6.038   9.466 -1.0362  0.3370 -0.6939
   86SAPS   H9Y 8250   3.561   5.867   9.435  0.1792 -0.0694 -2.3241
   86SAPS  C310 8251   3.724   5.973   9.337 -0.5181  0.8237 -0.1881
   86SAPS  H10X 8252   3.795   5.892   9.311 -0.6432  0.9466 -0.9258
   86SAPS  H10Y 8253   3.791   6.054   9.373  1.2424  0.9859 -3.5187
   86SAPS  C311 8254   3.657   6.015   9.206  0.0846  0.5886  0.7093
   86SAPS  H11X 8255   3.741   6.046   9.140  0.2066  1.6546  1.3462
   86SAPS  H11Y 8256   3.578   6.093   9.220 -0.6956 -0.4809  2.6337
   86SAPS  C312 8257   3.598   5.901   9.116  0.1296  0.6802  0.1295
   86SAPS  H12X 8258   3.511   5.859   9.170 -1.6755  2.1954 -1.4604
   86SAPS  H12Y 8259   3.672   5.817   9.117 -0.4937 -0.0290 -2.8067
   86SAPS  C313 8260   3.559   5.943   8.972  0.6427 -0.3196  0.6415
   86SAPS  H13X 8261   3.636   5.986   8.904  1.4566 -0.2828  1.5744
   86SAPS  H13Y 8262   3.481   6.019   8.995  1.3044  0.2682  0.9866
   86SAPS  C314 8263   3.491   5.827   8.889 -0.1810 -0.0473  0.2134
   86SAPS  H14X 8264   3.444   5.860   8.794 -3.7199 -2.2781  1.0172
   86SAPS  H14Y 8265   3.412   5.779   8.951  0.4130  0.6384  1.5382
   86SAPS  C315 8266   3.592   5.719   8.843  0.5865  0.2142 -0.9380
   86SAPS  H15X 8267   3.650   5.690   8.933 -1.4989  1.0687  0.7961
   86SAPS  H15Y 8268   3.664   5.761   8.770  1.9361 -0.9111 -0.2869
   86SAPS  C316 8269   3.523   5.610   8.785  0.2540 -0.4140 -0.1734
   86SAPS  H16X 8270   3.503   5.647   8.682  3.2263  0.9521 -0.3728
   86SAPS  H16Y 8271   3.425   5.584   8.831  0.1357 -0.1078 -0.2453
   86SAPS  C317 8272   3.595   5.484   8.745 -0.2632 -0.6208 -0.2096
   86SAPS  H17X 8273   3.642   5.444   8.838 -0.1293  1.6112  0.7527
   86SAPS  H17Y 8274   3.688   5.510   8.691  1.5603 -2.5520  1.7615
   86SAPS  C318 8275   3.506   5.379   8.679 -0.2862  0.1493  0.9971
   86SAPS  H18X 8276   3.420   5.341   8.738  0.9360 -3.3850  0.7690
   86SAPS  H18Y 8277   3.567   5.298   8.633 -0.7731 -0.4580  1.4081
   86SAPS  H18Z 8278   3.468   5.422   8.584 -1.9732 -0.4661  1.3662
   87SAPS     N 8279   2.893   6.683  11.007 -0.1003  0.3539  0.2406
   87SAPS   HN1 8280   2.985   6.684  11.056  1.7293  1.5997 -2.9132
   87SAPS   HN2 8281   2.817   6.699  11.075  0.9613  1.8693  1.1095
   87SAPS   HN3 8282   2.886   6.587  10.966 -0.7628 -0.3700  1.9378
   87SAPS   C12 8283   2.887   6.790  10.913 -0.1482 -0.4865 -0.1492
   87SAPS  H12A 8284   2.898   6.882  10.969 -0.1342  0.5065 -1.7233
   87SAPS   C13 8285   2.987   6.780  10.807 -0.7335  0.4782 -0.2098
   87SAPS  O13A 8286   3.065   6.681  10.793 -0.5021 -0.7354 -0.2182
   87SAPS  O13B 8287   3.007   6.889  10.738 -0.0797  0.2638 -0.6329
   87SAPS   C11 8288   2.747   6.799  10.848  0.6034 -0.0183  0.8071
   87SAPS  H11A 8289   2.726   6.717  10.776 -1.8604  0.6848  0.6208
   87SAPS  H11B 8290   2.753   6.880  10.772  2.0951 -1.8947 -1.1991
   87SAPS     P 8291   2.578   6.960  10.965 -0.0092 -0.0789 -0.1894
   87SAPS   O13 8292   2.472   6.957  11.067 -0.1276 -0.0487  0.6936
   87SAPS   O14 8293   2.695   7.049  11.002 -0.2442 -0.0548  0.4788
   87SAPS   O12 8294   2.637   6.813  10.947 -0.1613 -0.2399 -0.0221
   87SAPS   O11 8295   2.533   6.996  10.817  0.5595  0.5688 -0.1398
   87SAPS    C1 8296   2.415   6.932  10.757 -0.3155  0.6302 -0.1082
   87SAPS    HA 8297   2.355   6.866  10.823 -2.3849  1.9582 -0.5507
   87SAPS    HB 8298   2.344   7.008  10.718 -1.1310  0.2726  0.6483
   87SAPS    C2 8299   2.456   6.841  10.635 -0.0863  0.1857 -0.3655
   87SAPS    HS 8300   2.532   6.768  10.670 -0.1415 -1.1014 -2.7158
   87SAPS   O21 8301   2.532   6.918  10.540  0.2372 -0.4154 -0.0161
   87SAPS   C21 8302   2.622   6.857  10.458 -0.1453  0.0929  0.2200
   87SAPS   O22 8303   2.652   6.737  10.474  0.2213 -1.0492  0.5726
   87SAPS   C22 8304   2.677   6.952  10.354 -0.4563  0.3763 -0.6338
   87SAPS   H2R 8305   2.600   7.029  10.333  0.1889  1.4908  0.8729
   87SAPS   H2S 8306   2.758   7.007  10.407 -0.3072  1.6419 -2.1167
   87SAPS    C3 8307   2.338   6.770  10.566  0.9851  0.5019 -0.0638
   87SAPS    HX 8308   2.268   6.847  10.528 -1.1195 -0.3544  1.8149
   87SAPS    HY 8309   2.280   6.711  10.640  1.8335 -0.4011 -0.0933
   87SAPS   O31 8310   2.379   6.681  10.463 -0.2079 -0.1117 -0.2748
   87SAPS   C31 8311   2.402   6.557  10.493 -0.3467 -0.0412  0.2209
   87SAPS   O32 8312   2.397   6.497  10.600 -0.1584 -0.0486  0.2942
   87SAPS   C32 8313   2.435   6.476  10.360 -0.5477 -0.4557  0.1086
   87SAPS   H2X 8314   2.354   6.400  10.355  1.0854 -2.1818 -0.8303
   87SAPS   H2Y 8315   2.531   6.425  10.381 -1.6295 -1.8289  1.9953
   87SAPS   C23 8316   2.728   6.893  10.220 -0.7246  0.4628 -0.5372
   87SAPS   H3R 8317   2.649   6.849  10.155 -0.6056 -0.2024 -0.2326
   87SAPS   H3S 8318   2.802   6.821  10.261 -0.5634  1.5491  1.1992
   87SAPS   C24 8319   2.796   7.010  10.139  0.2421  0.3816 -0.3331
   87SAPS   H4R 8320   2.872   6.978  10.066 -1.0066 -0.3658 -1.3511
   87SAPS   H4S 8321   2.849   7.082  10.205 -0.3702  1.0254 -0.5270
   87SAPS   C25 8322   2.683   7.093  10.076 -0.0938  0.0115 -0.0021
   87SAPS   H5R 8323   2.584   7.108  10.123 -0.6934 -0.1251 -1.1894
   87SAPS   C26 8324   2.685   7.165   9.965 -0.5439 -0.2204  0.4914
   87SAPS   H6R 8325   2.596   7.221   9.932 -0.9207 -1.4951 -0.7882
   87SAPS   C27 8326   2.794   7.154   9.866  0.2045 -0.1420  0.2577
   87SAPS   H7R 8327   2.895   7.142   9.912  0.7888 -0.9812 -1.1443
   87SAPS   H7S 8328   2.795   7.251   9.811 -2.2602  0.8711  1.8534
   87SAPS   C28 8329   2.785   7.028   9.776 -0.9034  0.6244 -0.0695
   87SAPS   H8R 8330   2.796   6.935   9.833 -0.2009  1.1267  0.6552
   87SAPS   C29 8331   2.763   7.008   9.648  0.3198  0.6833  1.1274
   87SAPS   H9R 8332   2.767   6.903   9.615  0.0206  0.7078  1.0089
   87SAPS  C210 8333   2.734   7.106   9.540  0.2397 -0.1849 -0.7877
   87SAPS  H10R 8334   2.734   7.051   9.443  1.6318  2.3684 -2.3563
   87SAPS  H10S 8335   2.816   7.181   9.541 -0.3717  0.5219  1.5117
   87SAPS  C211 8336   2.597   7.170   9.562 -0.0024 -0.1296  0.0800
   87SAPS  H11R 8337   2.520   7.099   9.597  0.1528 -0.8981 -1.0883
   87SAPS  C212 8338   2.563   7.292   9.562  0.5135 -0.4207 -0.4660
   87SAPS  H12R 8339   2.463   7.317   9.601 -0.2846  2.2637 -3.6995
   87SAPS  C213 8340   2.656   7.407   9.533 -0.7243 -0.0064  0.3102
   87SAPS  H13R 8341   2.713   7.382   9.441  0.3111  1.2485  0.5665
   87SAPS  H13S 8342   2.733   7.415   9.613 -1.5446  2.3460  0.9502
   87SAPS  C214 8343   2.591   7.543   9.527  0.4318 -0.4428 -0.2118
   87SAPS  H14R 8344   2.630   7.611   9.604  1.0986 -0.9037 -0.1339
   87SAPS  C215 8345   2.500   7.596   9.441 -0.6878 -0.5818 -0.2107
   87SAPS  H15R 8346   2.475   7.703   9.442  0.6676 -0.2277 -1.0559
   87SAPS  C216 8347   2.454   7.524   9.316 -0.1068  0.8854 -0.5168
   87SAPS  H16R 8348   2.356   7.559   9.276 -2.0939 -1.1308  2.2276
   87SAPS  H16S 8349   2.438   7.415   9.328  1.5278  0.7966  1.4026
   87SAPS  C217 8350   2.561   7.537   9.209  0.5179 -0.2268 -0.6679
   87SAPS  H17R 8351   2.664   7.520   9.247 -0.0648  0.3747  1.3297
   87SAPS  H17S 8352   2.569   7.647   9.190 -0.5400 -0.0449 -0.1071
   87SAPS  C218 8353   2.529   7.464   9.079  0.3604 -0.6972 -0.4059
   87SAPS  H18R 8354   2.419   7.463   9.062  0.4286  2.4785 -1.6546
   87SAPS  H18S 8355   2.561   7.357   9.076  1.0478 -0.4826 -1.2168
   87SAPS  C219 8356   2.579   7.539   8.952  0.9912 -0.4375  0.2683
   87SAPS  H19R 8357   2.555   7.474   8.866 -2.5781  0.9223  0.0692
   87SAPS  H19S 8358   2.690   7.538   8.948  0.9835 -0.1698 -0.1738
   87SAPS  C220 8359   2.529   7.679   8.918 -0.1229  0.1409 -0.1565
   87SAPS  H20R 8360   2.578   7.726   8.830 -1.2658  0.3074 -0.7242
   87SAPS  H20S 8361   2.547   7.738   9.011  0.4974 -0.5786  0.1932
   87SAPS  H20T 8362   2.421   7.692   8.896 -1.3119 -2.9529  2.9128
   87SAPS   C33 8363   2.445   6.567  10.232  0.7262 -0.1481 -0.1914
   87SAPS   H3X 8364   2.510   6.655  10.249 -2.4282  2.6440 -1.5121
   87SAPS   H3Y 8365   2.339   6.590  10.211  0.0351 -2.3799  0.4939
   87SAPS   C34 8366   2.498   6.479  10.119  0.1054  0.2792 -0.2146
   87SAPS   H4X 8367   2.430   6.395  10.097  1.9577 -1.4171  0.2538
   87SAPS   H4Y 8368   2.598   6.442  10.151  0.2061  2.2586  2.0628
   87SAPS   C35 8369   2.494   6.557   9.984 -0.4475 -0.0060 -0.6784
   87SAPS   H5X 8370   2.579   6.629   9.991  0.4713 -0.9323 -1.8690
   87SAPS   H5Y 8371   2.407   6.625   9.996 -0.0214  0.7237 -1.5654
   87SAPS   C36 8372   2.486   6.474   9.860  0.1297  0.1243  0.3758
   87SAPS   H6X 8373   2.389   6.422   9.848  0.8312 -1.1111 -0.1317
   87SAPS   H6Y 8374   2.561   6.395   9.885  0.4285  0.2002 -0.2728
   87SAPS   C37 8375   2.526   6.560   9.735  0.3022 -0.7100  0.4866
   87SAPS   H7X 8376   2.613   6.623   9.766  1.2944 -1.6462 -0.3288
   87SAPS   H7Y 8377   2.452   6.641   9.717  0.3013 -0.9541 -0.6350
   87SAPS   C38 8378   2.548   6.499   9.598 -0.4860 -0.7235  0.0290
   87SAPS   H8X 8379   2.458   6.451   9.554  1.8884 -2.3920 -3.4907
   87SAPS   H8Y 8380   2.618   6.413   9.596 -0.0118 -0.4125  1.6217
   87SAPS   C39 8381   2.585   6.600   9.493  0.0335  0.3491 -0.5783
   87SAPS   H9X 8382   2.690   6.630   9.515  0.3421 -0.9119 -0.2986
   87SAPS   H9Y 8383   2.525   6.691   9.513  1.8825  1.6720 -0.7453
   87SAPS  C310 8384   2.575   6.552   9.352  0.0128 -0.0866 -0.4944
   87SAPS  H10X 8385   2.473   6.507   9.341 -0.4020  0.4606  0.8734
   87SAPS  H10Y 8386   2.652   6.472   9.346 -0.4746 -0.6712  0.6132
   87SAPS  C311 8387   2.603   6.665   9.266 -0.5450 -0.0500 -0.1017
   87SAPS  H11X 8388   2.699   6.718   9.285 -1.1993  0.7325  1.1121
   87SAPS  H11Y 8389   2.512   6.728   9.269 -0.6662 -0.1827 -0.6733
   87SAPS  C312 8390   2.614   6.623   9.116 -0.6703 -0.2989  0.0089
   87SAPS  H12X 8391   2.593   6.514   9.106 -2.0775  0.0001 -0.5410
   87SAPS  H12Y 8392   2.721   6.634   9.088 -1.2582  1.0600 -1.8790
   87SAPS  C313 8393   2.523   6.708   9.024  0.3092 -0.2312  0.0030
   87SAPS  H13X 8394   2.540   6.817   9.035 -1.6020  0.1439 -0.2690
   87SAPS  H13Y 8395   2.413   6.694   9.039  0.2522  0.5523  0.3904
   87SAPS  C314 8396   2.557   6.666   8.876 -0.5480 -0.5390  0.3960
   87SAPS  H14X 8397   2.557   6.555   8.874  0.4088 -0.5437 -0.0716
   87SAPS  H14Y 8398   2.667   6.676   8.864 -0.7110 -0.8168 -1.6552
   87SAPS  C315 8399   2.487   6.746   8.764 -0.4696  0.7131 -0.3606
   87SAPS  H15X 8400   2.427   6.822   8.820  3.8814  3.1094  1.6033
   87SAPS  H15Y 8401   2.409   6.686   8.713  0.4943  0.1168 -1.1634
   87SAPS  C316 8402   2.582   6.799   8.656  0.5272 -0.5846 -0.2175
   87SAPS  H16X 8403   2.636   6.715   8.608  0.4608 -0.5681 -0.3215
   87SAPS  H16Y 8404   2.643   6.880   8.700 -0.4727 -0.0711  0.2651
   87SAPS  C317 8405   2.520   6.869   8.535 -0.0473 -0.5211 -0.4167
   87SAPS  H17X 8406   2.415   6.893   8.564 -0.2668  0.0151 -1.5842
   87SAPS  H17Y 8407   2.515   6.798   8.449  1.1430 -0.0769 -0.8623
   87SAPS  C318 8408   2.593   6.992   8.482 -0.6711 -0.1208  0.8031
   87SAPS  H18X 8409   2.606   7.069   8.560 -1.3817 -0.3174  1.1268
   87SAPS  H18Y 8410   2.539   7.038   8.397  2.7232  1.9485 -0.4110
   87SAPS  H18Z 8411   2.689   6.962   8.436 -1.2949  1.1975 -1.4938
   88SAPS     N 8412   5.746   6.204  10.923  0.5937 -0.5778  0.5464
   88SAPS   HN1 8413   5.733   6.104  10.947  0.4925 -1.2037 -1.8951
   88SAPS   HN2 8414   5.694   6.225  10.836 -2.0728  1.2716  2.4166
   88SAPS   HN3 8415   5.849   6.218  10.922  0.3042  2.7378  1.9427
   88SAPS   C12 8416   5.683   6.309  11.014  0.0664  0.0468  0.1457
   88SAPS  H12A 8417   5.578   6.285  11.021 -0.6177  0.8055 -4.2316
   88SAPS   C13 8418   5.747   6.323  11.152 -0.0013 -0.6932  0.1460
   88SAPS  O13A 8419   5.828   6.233  11.188 -0.0857 -0.4503 -1.0012
   88SAPS  O13B 8420   5.719   6.422  11.227 -0.0063 -0.1635  0.0865
   88SAPS   C11 8421   5.686   6.451  10.948 -0.2909  0.8188 -0.1834
   88SAPS  H11A 8422   5.787   6.497  10.952 -0.6553  1.6161  0.1801
   88SAPS  H11B 8423   5.625   6.517  11.014 -3.4164 -0.0125 -2.0411
   88SAPS     P 8424   5.584   6.586  10.763 -0.5717 -0.3636  0.1234
   88SAPS   O13 8425   5.454   6.644  10.808 -0.0770  0.3699 -0.4756
   88SAPS   O14 8426   5.704   6.674  10.772  0.1122  0.7679  0.0984
   88SAPS   O12 8427   5.618   6.455  10.824  0.4721  0.5397 -0.4150
   88SAPS   O11 8428   5.571   6.549  10.607 -0.6840 -0.2249 -0.1242
   88SAPS    C1 8429   5.662   6.461  10.543 -0.1297 -0.0028 -0.2850
   88SAPS    HA 8430   5.754   6.521  10.522  0.4157 -0.1165  1.6262
   88SAPS    HB 8431   5.686   6.381  10.616 -1.3487 -0.7276 -0.6669
   88SAPS    C2 8432   5.595   6.403  10.415  0.5171 -0.0890  0.4853
   88SAPS    HS 8433   5.655   6.321  10.370  0.5046 -0.7579  1.6556
   88SAPS   O21 8434   5.579   6.509  10.314 -0.7844  0.2074 -0.0463
   88SAPS   C21 8435   5.698   6.545  10.264 -0.1878 -0.7346 -0.0517
   88SAPS   O22 8436   5.807   6.488  10.278  0.0074  0.5704 -0.8458
   88SAPS   C22 8437   5.680   6.666  10.183 -0.4237 -0.2191 -0.0694
   88SAPS   H2R 8438   5.699   6.761  10.238  1.0783 -0.7818  0.4525
   88SAPS   H2S 8439   5.748   6.670  10.095 -0.1419 -1.5081  0.0599
   88SAPS    C3 8440   5.458   6.353  10.446  0.0167 -1.0442  0.4209
   88SAPS    HX 8441   5.407   6.439  10.496  0.9490 -0.6436  0.7299
   88SAPS    HY 8442   5.457   6.267  10.516 -1.5695 -2.1369 -0.8979
   88SAPS   O31 8443   5.392   6.307  10.327  0.5329  0.1742  0.3689
   88SAPS   C31 8444   5.423   6.181  10.291 -0.1193 -0.7740  0.1398
   88SAPS   O32 8445   5.501   6.113  10.353  0.5462  0.0648  0.0988
   88SAPS   C32 8446   5.337   6.149  10.161 -0.8759 -0.4237 -0.3235
   88SAPS   H2X 8447   5.255   6.223  10.172  2.3863  3.1257  4.0687
   88SAPS   H2Y 8448   5.303   6.046  10.181  4.2883 -2.1728  1.0140
   88SAPS   C23 8449   5.541   6.669  10.111 -0.0949  0.5232 -0.6458
   88SAPS   H3R 8450   5.452   6.671  10.179  0.8335  0.0986  0.6116
   88SAPS   H3S 8451   5.536   6.576  10.052  1.1181 -0.0018  0.0532
   88SAPS   C24 8452   5.533   6.768   9.994  0.5771 -0.6736 -0.5800
   88SAPS   H4R 8453   5.595   6.747   9.904  0.7759  0.3981 -0.7036
   88SAPS   H4S 8454   5.558   6.862  10.048  0.5872 -1.0141  0.0230
   88SAPS   C25 8455   5.392   6.777   9.943  0.3754 -0.3984 -0.7806
   88SAPS   H5R 8456   5.326   6.777  10.031  1.6347 -0.6549  0.1794
   88SAPS   C26 8457   5.332   6.750   9.825 -0.2944  0.6648  0.3731
   88SAPS   H6R 8458   5.223   6.759   9.813 -0.1371  1.7050 -0.4721
   88SAPS   C27 8459   5.409   6.710   9.703 -0.0813  0.1264  0.3284
   88SAPS   H7R 8460   5.366   6.615   9.666 -1.8886  0.6913  0.8636
   88SAPS   H7S 8461   5.514   6.686   9.731  0.2093  0.7238 -0.2285
   88SAPS   C28 8462   5.388   6.825   9.602 -0.5161 -0.0042 -0.4040
   88SAPS   H8R 8463   5.410   6.926   9.639 -1.5173 -0.5685  1.8798
   88SAPS   C29 8464   5.371   6.816   9.469  0.2185  0.4147  0.1026
   88SAPS   H9R 8465   5.349   6.899   9.400 -0.8304 -0.3984 -0.5710
   88SAPS  C210 8466   5.363   6.683   9.391 -0.1993  0.3947 -0.1643
   88SAPS  H10R 8467   5.261   6.681   9.347 -0.8012  3.0932  0.9309
   88SAPS  H10S 8468   5.381   6.597   9.460  1.6932 -0.1669 -1.2941
   88SAPS  C211 8469   5.485   6.685   9.294 -0.5444 -0.2503  0.4007
   88SAPS  H11R 8470   5.580   6.698   9.348 -1.3946  0.6604  1.7433
   88SAPS  C212 8471   5.476   6.681   9.161  0.5167  0.2380  0.1636
   88SAPS  H12R 8472   5.572   6.696   9.109  0.0722 -2.9999 -1.9176
   88SAPS  C213 8473   5.369   6.680   9.058 -0.3750  0.5489 -0.5996
   88SAPS  H13R 8474   5.299   6.597   9.080  0.4587  0.2344  0.9718
   88SAPS  H13S 8475   5.412   6.674   8.956  0.3827  0.3955 -0.2696
   88SAPS  C214 8476   5.284   6.804   9.060  0.3379  0.5165 -1.3221
   88SAPS  H14R 8477   5.190   6.783   9.113  0.7355  1.8054 -0.0260
   88SAPS  C215 8478   5.321   6.922   9.002  0.4058  0.9822  0.2945
   88SAPS  H15R 8479   5.253   7.008   9.003 -0.1808  0.5754 -1.5224
   88SAPS  C216 8480   5.449   6.937   8.923  0.0057 -0.8183 -0.4587
   88SAPS  H16R 8481   5.522   6.862   8.961  2.7503  2.7344  1.9896
   88SAPS  H16S 8482   5.486   7.042   8.928  1.3082 -1.3141  1.2619
   88SAPS  C217 8483   5.431   6.909   8.770  0.4454 -0.2211  0.2587
   88SAPS  H17R 8484   5.508   6.965   8.713  0.9661 -0.7671  0.4192
   88SAPS  H17S 8485   5.326   6.939   8.746  0.5060 -1.1841 -1.3415
   88SAPS  C218 8486   5.439   6.766   8.707 -0.5638  0.3030  0.0815
   88SAPS  H18R 8487   5.420   6.777   8.598  0.1186  1.6146  0.0856
   88SAPS  H18S 8488   5.371   6.693   8.755  0.4016 -0.2820  0.6020
   88SAPS  C219 8489   5.587   6.706   8.720  0.5742 -0.2507 -0.8112
   88SAPS  H19R 8490   5.612   6.687   8.827 -1.4414  1.6794  0.0831
   88SAPS  H19S 8491   5.648   6.791   8.685 -4.1218  2.8682 -2.4321
   88SAPS  C220 8492   5.607   6.571   8.645  0.0837  0.7239 -0.1704
   88SAPS  H20R 8493   5.586   6.583   8.537 -0.8929 -0.4935 -0.1455
   88SAPS  H20S 8494   5.528   6.498   8.675 -0.3044  0.6371 -1.3591
   88SAPS  H20T 8495   5.708   6.524   8.648 -0.6583 -1.0148 -1.0934
   88SAPS   C33 8496   5.438   6.170  10.041 -0.4023 -0.5519 -0.4000
   88SAPS   H3X 8497   5.508   6.087  10.021 -1.2038 -0.9396 -1.7023
   88SAPS   H3Y 8498   5.498   6.263  10.053 -1.8885  0.3701  0.2171
   88SAPS   C34 8499   5.366   6.203   9.909 -0.3846  0.1315  0.2529
   88SAPS   H4X 8500   5.304   6.294   9.924 -0.5326 -0.0606  0.8517
   88SAPS   H4Y 8501   5.296   6.117   9.895 -0.0721 -0.1879  0.6190
   88SAPS   C35 8502   5.447   6.224   9.784 -0.0138  0.3571 -0.6107
   88SAPS   H5X 8503   5.518   6.139   9.779 -1.5768 -1.0712  0.3669
   88SAPS   H5Y 8504   5.511   6.314   9.797  1.2939 -0.5940 -0.2307
   88SAPS   C36 8505   5.360   6.230   9.654 -0.2334 -0.3022  0.2908
   88SAPS   H6X 8506   5.300   6.322   9.669 -0.3446  0.2433 -2.8889
   88SAPS   H6Y 8507   5.297   6.139   9.650 -2.0849  0.9570 -0.4999
   88SAPS   C37 8508   5.442   6.254   9.524  0.8952  0.5324  0.4246
   88SAPS   H7X 8509   5.521   6.178   9.509  2.2519  1.9348  0.1508
   88SAPS   H7Y 8510   5.487   6.353   9.548 -0.4276  1.8598 -2.0707
   88SAPS   C38 8511   5.350   6.250   9.406  0.7187 -0.1899  0.3415
   88SAPS   H8X 8512   5.289   6.343   9.396 -0.8315 -1.1951  0.1241
   88SAPS   H8Y 8513   5.274   6.170   9.415  0.7965 -0.3281 -0.2022
   88SAPS   C39 8514   5.431   6.268   9.275  0.0161  0.7140  0.3139
   88SAPS   H9X 8515   5.514   6.196   9.258  0.3658  1.1573  0.1296
   88SAPS   H9Y 8516   5.469   6.371   9.290 -1.8865  1.4448  0.3613
   88SAPS  C310 8517   5.330   6.262   9.152  0.4744 -0.1108 -0.1621
   88SAPS  H10X 8518   5.248   6.333   9.177  1.3530  1.2730 -1.0459
   88SAPS  H10Y 8519   5.291   6.160   9.133 -2.5180  1.0209 -0.6944
   88SAPS  C311 8520   5.403   6.312   9.022  0.3221  0.6970 -0.2399
   88SAPS  H11X 8521   5.463   6.399   9.056  1.4651 -0.1899  0.0880
   88SAPS  H11Y 8522   5.318   6.334   8.954  0.0254 -4.0756 -1.8257
   88SAPS  C312 8523   5.505   6.206   8.969 -0.8377 -0.0850  0.2622
   88SAPS  H12X 8524   5.442   6.116   8.955  0.2972 -0.8818  0.1831
   88SAPS  H12Y 8525   5.591   6.183   9.035 -2.4077 -0.0208  2.4363
   88SAPS  C313 8526   5.564   6.249   8.836  0.5132  0.1410  0.5085
   88SAPS  H13X 8527   5.634   6.334   8.849  1.8963  0.1164 -4.5212
   88SAPS  H13Y 8528   5.491   6.288   8.761  0.0838 -2.7753 -0.7053
   88SAPS  C314 8529   5.639   6.138   8.771  0.3067 -0.5268  0.8962
   88SAPS  H14X 8530   5.563   6.065   8.737 -0.9859  0.9175  0.5551
   88SAPS  H14Y 8531   5.706   6.087   8.843  0.0895  0.8106  2.1055
   88SAPS  C315 8532   5.723   6.185   8.645 -0.2166 -0.0805 -0.4891
   88SAPS  H15X 8533   5.783   6.273   8.675 -2.5496  1.0375  1.1557
   88SAPS  H15Y 8534   5.652   6.212   8.563  0.7066 -0.6217 -1.5007
   88SAPS  C316 8535   5.819   6.078   8.590  0.5533 -0.1618  0.8381
   88SAPS  H16X 8536   5.864   6.018   8.672  0.6488 -1.3760 -0.0757
   88SAPS  H16Y 8537   5.894   6.140   8.537 -2.0087  3.0220  0.6157
   88SAPS  C317 8538   5.745   5.994   8.485 -0.2039 -0.1637  0.2022
   88SAPS  H17X 8539   5.741   6.054   8.391  0.3397 -3.2197 -1.9378
   88SAPS  H17Y 8540   5.638   5.972   8.508 -0.2215 -0.7536 -0.3875
   88SAPS  C318 8541   5.819   5.866   8.452 -0.1508 -0.1666  0.2619
   88SAPS  H18X 8542   5.757   5.811   8.379  1.2799  0.3960 -1.4513
   88SAPS  H18Y 8543   5.830   5.811   8.548 -2.2819  0.8705  1.1732
   88SAPS  H18Z 8544   5.919   5.888   8.409  0.9056 -1.6427  1.8482
   89SAPS     N 8545   6.193   2.171  10.637 -0.2649 -0.3132  0.1165
   89SAPS   HN1 8546   6.209   2.272  10.657 -0.3570 -0.3274  0.2655
   89SAPS   HN2 8547   6.271   2.125  10.586  0.0012 -0.1905  0.4066
   89SAPS   HN3 8548   6.106   2.170  10.581  0.2657 -1.0845 -0.7162
   89SAPS   C12 8549   6.183   2.096  10.769  0.5187 -0.3392 -0.0069
   89SAPS  H12A 8550   6.182   1.989  10.753 -0.9993 -0.5775  1.4331
   89SAPS   C13 8551   6.305   2.129  10.857  0.0743 -0.0491  0.2743
   89SAPS  O13A 8552   6.394   2.202  10.811 -0.1040 -0.5525 -0.1433
   89SAPS  O13B 8553   6.325   2.063  10.960  0.3303 -0.1261 -0.4423
   89SAPS   C11 8554   6.048   2.128  10.838 -0.6263 -0.3413 -0.9574
   89SAPS  H11A 8555   6.070   2.236  10.853 -0.2514 -0.3481 -1.3988
   89SAPS  H11B 8556   6.034   2.082  10.938  0.8028 -1.2739 -1.1533
   89SAPS     P 8557   5.837   1.988  10.766 -0.3509 -0.4150 -0.4993
   89SAPS   O13 8558   5.898   1.861  10.806  0.4890  0.1399  0.2223
   89SAPS   O14 8559   5.733   2.046  10.853 -0.2367  0.5077 -0.7523
   89SAPS   O12 8560   5.945   2.099  10.746 -0.8796  0.0397  0.0122
   89SAPS   O11 8561   5.779   1.978  10.618 -0.5177 -0.2391 -0.6725
   89SAPS    C1 8562   5.743   2.096  10.544 -0.1776 -0.1213 -0.6310
   89SAPS    HA 8563   5.711   2.184  10.603  2.0956 -0.2161  0.8736
   89SAPS    HB 8564   5.817   2.140  10.474 -1.9411 -0.5927 -2.9189
   89SAPS    C2 8565   5.622   2.052  10.460  0.2154  0.0542 -0.2343
   89SAPS    HS 8566   5.553   2.006  10.534 -0.9589  0.3440 -1.1232
   89SAPS   O21 8567   5.676   1.956  10.367  0.3488 -0.4773 -0.2053
   89SAPS   C21 8568   5.588   1.872  10.307  0.3387 -0.2466  0.3054
   89SAPS   O22 8569   5.470   1.879  10.324 -0.2779  0.2479  0.1289
   89SAPS   C22 8570   5.668   1.775  10.215 -0.1364 -0.5427  0.1060
   89SAPS   H2R 8571   5.669   1.831  10.119 -0.2882 -0.2594  0.2690
   89SAPS   H2S 8572   5.773   1.750  10.242 -1.6190 -4.5325  3.3406
   89SAPS    C3 8573   5.539   2.168  10.388 -0.5492  0.3481 -0.4029
   89SAPS    HX 8574   5.476   2.212  10.469  0.0364 -1.1204  0.8897
   89SAPS    HY 8575   5.470   2.121  10.315  0.7220  1.6594 -2.5402
   89SAPS   O31 8576   5.622   2.272  10.332 -0.3878 -0.3124 -0.4010
   89SAPS   C31 8577   5.625   2.274  10.194  0.9332 -0.0166  1.1574
   89SAPS   O32 8578   5.545   2.207  10.123  0.1296  0.4122  0.1865
   89SAPS   C32 8579   5.728   2.370  10.141 -0.3951  0.4367  0.0767
   89SAPS   H2X 8580   5.787   2.406  10.227  0.4579 -1.5736  0.3952
   89SAPS   H2Y 8581   5.673   2.463  10.113  0.7323  1.6125  1.5878
   89SAPS   C23 8582   5.608   1.628  10.203 -0.6646 -0.1538  0.3639
   89SAPS   H3R 8583   5.506   1.626  10.157 -0.7270 -0.7808  0.5133
   89SAPS   H3S 8584   5.587   1.589  10.305 -0.7930 -1.4731 -0.1381
   89SAPS   C24 8585   5.700   1.527  10.133 -0.4049 -0.4659 -0.3153
   89SAPS   H4R 8586   5.798   1.526  10.185 -0.5454 -0.6881 -0.0542
   89SAPS   H4S 8587   5.728   1.560  10.030 -1.2409  1.2527 -0.0262
   89SAPS   C25 8588   5.637   1.388  10.147 -0.0775  0.3160  0.6028
   89SAPS   H5R 8589   5.662   1.336  10.241  0.3344  0.9699  0.8601
   89SAPS   C26 8590   5.556   1.328  10.053 -0.4203 -0.3040 -0.6103
   89SAPS   H6R 8591   5.501   1.240  10.091  0.6567  0.4965  3.1993
   89SAPS   C27 8592   5.520   1.392   9.921 -0.2863  0.2998  0.0701
   89SAPS   H7R 8593   5.496   1.311   9.848 -0.4448 -1.5701  2.1023
   89SAPS   H7S 8594   5.604   1.459   9.891 -0.2923  1.7071  2.9001
   89SAPS   C28 8595   5.386   1.468   9.934  0.1723 -0.6271  0.0537
   89SAPS   H8R 8596   5.301   1.410   9.973 -0.1994  0.0933  0.3583
   89SAPS   C29 8597   5.363   1.596   9.899  0.2305  1.0018  0.3351
   89SAPS   H9R 8598   5.266   1.644   9.918  0.6951  2.5723 -1.0911
   89SAPS  C210 8599   5.476   1.689   9.851  0.1523 -0.8017 -0.6248
   89SAPS  H10R 8600   5.459   1.695   9.742 -1.4262  1.6517 -0.3222
   89SAPS  H10S 8601   5.580   1.663   9.880  0.2307 -1.4174 -1.4292
   89SAPS  C211 8602   5.460   1.826   9.917  0.8926  0.5258  0.0038
   89SAPS  H11R 8603   5.393   1.815  10.004  0.3341 -0.3981 -0.5229
   89SAPS  C212 8604   5.507   1.940   9.870 -0.0493  0.5158 -0.2795
   89SAPS  H12R 8605   5.486   2.033   9.925  0.8706 -0.4257  1.7525
   89SAPS  C213 8606   5.600   1.948   9.748  0.2487  0.2635 -0.3779
   89SAPS  H13R 8607   5.649   1.851   9.726 -0.4946 -0.0177 -0.8291
   89SAPS  H13S 8608   5.680   2.020   9.776 -1.2238  0.9327  2.5297
   89SAPS  C214 8609   5.521   2.002   9.623 -0.7005 -0.0132  0.4000
   89SAPS  H14R 8610   5.467   1.925   9.564 -1.6272 -0.1543  1.4026
   89SAPS  C215 8611   5.520   2.128   9.575 -0.2646  0.0281 -1.2818
   89SAPS  H15R 8612   5.467   2.162   9.485 -1.2958  0.1095 -0.6579
   89SAPS  C216 8613   5.589   2.243   9.645 -0.5925 -0.3133 -0.5877
   89SAPS  H16R 8614   5.615   2.220   9.751 -0.5319  0.9742 -0.3093
   89SAPS  H16S 8615   5.520   2.327   9.665 -0.9250  0.0909 -3.1722
   89SAPS  C217 8616   5.717   2.298   9.564  0.0215  0.1168 -0.5495
   89SAPS  H17R 8617   5.812   2.246   9.588  1.5211  2.0691 -1.9347
   89SAPS  H17S 8618   5.741   2.399   9.601 -2.5778  0.3027  0.9054
   89SAPS  C218 8619   5.704   2.289   9.410  0.4874  0.2953  1.0906
   89SAPS  H18R 8620   5.599   2.307   9.380 -0.4580  0.2577  4.0709
   89SAPS  H18S 8621   5.719   2.188   9.368  0.3149  0.6872  0.0554
   89SAPS  C219 8622   5.807   2.384   9.341  0.0650  0.2060  0.2411
   89SAPS  H19R 8623   5.819   2.470   9.411  1.6320 -1.4876  2.1907
   89SAPS  H19S 8624   5.783   2.423   9.240 -0.2289  0.9536  0.5871
   89SAPS  C220 8625   5.949   2.321   9.316  0.8742  0.1583 -0.6627
   89SAPS  H20R 8626   6.014   2.386   9.255 -1.1268  1.6301 -1.3458
   89SAPS  H20S 8627   5.937   2.224   9.264 -2.3621  0.0290  0.1059
   89SAPS  H20T 8628   5.982   2.300   9.420 -1.2931 -0.9195 -0.1236
   89SAPS   C33 8629   5.799   2.317  10.019 -0.5482 -0.6170  0.4377
   89SAPS   H3X 8630   5.870   2.399   9.993 -2.9054  0.7481 -2.2927
   89SAPS   H3Y 8631   5.741   2.319   9.925 -2.1642  3.1367  1.3185
   89SAPS   C34 8632   5.871   2.187  10.017 -0.0504  0.1617  0.5298
   89SAPS   H4X 8633   5.793   2.111  10.039 -0.4416 -0.2138 -1.9051
   89SAPS   H4Y 8634   5.950   2.187  10.096 -0.2146 -1.4038  0.7192
   89SAPS   C35 8635   5.923   2.156   9.876 -0.4442 -0.5118  0.1167
   89SAPS   H5X 8636   6.011   2.222   9.862 -0.9387  0.8316  2.7071
   89SAPS   H5Y 8637   5.844   2.183   9.803 -0.1057  0.2500  0.0153
   89SAPS   C36 8638   5.951   2.009   9.858  0.3207  0.2374 -0.2161
   89SAPS   H6X 8639   5.868   1.942   9.888  1.0025 -0.9216 -0.8268
   89SAPS   H6Y 8640   6.031   1.977   9.928 -1.2097 -1.5048  0.8417
   89SAPS   C37 8641   5.973   1.978   9.715 -0.1130  0.3133  0.0208
   89SAPS   H7X 8642   6.046   2.054   9.681 -0.8936  0.9065 -0.3381
   89SAPS   H7Y 8643   5.878   1.983   9.657 -2.0220 -0.4611  2.8718
   89SAPS   C38 8644   6.024   1.832   9.686  0.2341 -0.7019  0.3001
   89SAPS   H8X 8645   5.933   1.772   9.706 -0.3576  0.3496  0.8747
   89SAPS   H8Y 8646   6.100   1.811   9.764  0.6364  1.9429  0.7375
   89SAPS   C39 8647   6.085   1.807   9.548 -0.0564  0.1905  0.7972
   89SAPS   H9X 8648   6.102   1.700   9.524 -1.9782 -0.0781  0.4746
   89SAPS   H9Y 8649   6.187   1.849   9.552 -1.1324  2.9159  2.5593
   89SAPS  C310 8650   6.009   1.869   9.427  0.3736 -0.1545  0.0541
   89SAPS  H10X 8651   6.022   1.979   9.423  0.2762 -0.1721 -0.9342
   89SAPS  H10Y 8652   5.902   1.845   9.439 -0.0429  1.9040  0.8555
   89SAPS  C311 8653   6.079   1.828   9.295 -0.4442 -0.3037  0.0204
   89SAPS  H11X 8654   6.044   1.728   9.260 -0.7562 -0.3337  0.4278
   89SAPS  H11Y 8655   6.190   1.834   9.298 -0.4778  0.6430 -0.2309
   89SAPS  C312 8656   6.033   1.936   9.192  0.0888 -0.1488  0.3965
   89SAPS  H12X 8657   6.042   2.038   9.236 -1.8090  0.0702  0.3492
   89SAPS  H12Y 8658   5.926   1.916   9.169  0.3163  0.0254 -0.8721
   89SAPS  C313 8659   6.103   1.939   9.062  0.0575 -0.0199  0.3871
   89SAPS  H13X 8660   6.074   1.847   9.006  0.0769 -0.8720  1.7055
   89SAPS  H13Y 8661   6.210   1.917   9.081 -0.1237 -0.1987  1.2332
   89SAPS  C314 8662   6.086   2.067   8.988  0.4556 -0.2584 -0.3556
   89SAPS  H14X 8663   6.153   2.074   8.899 -1.0751 -0.4445 -1.5634
   89SAPS  H14Y 8664   6.127   2.141   9.060 -1.2865  1.6101 -1.1770
   89SAPS  C315 8665   5.944   2.100   8.940  0.1563 -0.9141 -0.2747
   89SAPS  H15X 8666   5.902   2.185   8.999 -1.3988 -0.7574 -1.5430
   89SAPS  H15Y 8667   5.890   2.005   8.959  2.4435 -2.4187 -0.8640
   89SAPS  C316 8668   5.927   2.141   8.785  0.0963 -0.2514 -0.3665
   89SAPS  H16X 8669   5.821   2.170   8.769  0.3130 -0.1847 -1.8199
   89SAPS  H16Y 8670   5.947   2.050   8.724 -0.1346 -0.5691  0.0273
   89SAPS  C317 8671   6.018   2.254   8.753  0.7237 -0.4357  0.3451
   89SAPS  H17X 8672   6.109   2.222   8.698 -1.2035 -1.4609 -2.4857
   89SAPS  H17Y 8673   6.053   2.306   8.845  2.3641  1.0486 -1.0348
   89SAPS  C318 8674   5.958   2.359   8.656  0.3013  0.0152 -0.0516
   89SAPS  H18X 8675   5.892   2.434   8.704 -0.2493  2.1192 -3.6662
   89SAPS  H18Y 8676   5.896   2.312   8.576 -1.0810  0.6045  0.6454
   89SAPS  H18Z 8677   6.041   2.425   8.622  1.3892 -1.6197 -0.7630
   90SAPS     N 8678   6.616   2.003  10.893 -0.0118 -0.6228  0.0995
   90SAPS   HN1 8679   6.537   2.067  10.872 -0.1943 -1.0727 -0.6316
   90SAPS   HN2 8680   6.625   1.948  10.805  0.1510  0.9427 -0.9007
   90SAPS   HN3 8681   6.593   1.937  10.970 -0.1057  1.6401  2.1422
   90SAPS   C12 8682   6.745   2.072  10.925  0.1788  0.2981  0.2378
   90SAPS  H12A 8683   6.727   2.149  10.999 -0.4668 -0.0786  0.4767
   90SAPS   C13 8684   6.855   1.979  10.989  0.1885 -0.5385  0.0868
   90SAPS  O13A 8685   6.818   1.857  11.017 -0.2931 -0.3822  0.1099
   90SAPS  O13B 8686   6.957   2.032  11.045  0.5802  0.5215 -0.4771
   90SAPS   C11 8687   6.813   2.139  10.801 -0.2923 -0.0713  0.2578
   90SAPS  H11A 8688   6.832   2.064  10.722 -0.3267  0.4264 -0.2335
   90SAPS  H11B 8689   6.902   2.196  10.833 -0.5990 -0.4380  1.8500
   90SAPS     P 8690   6.733   2.315  10.604 -0.3850  0.0173 -0.2968
   90SAPS   O13 8691   6.626   2.418  10.603  0.1598 -0.1744  0.0465
   90SAPS   O14 8692   6.873   2.352  10.588 -1.0712  0.2274 -0.0553
   90SAPS   O12 8693   6.722   2.234  10.745  0.0884  0.8585 -0.0741
   90SAPS   O11 8694   6.685   2.194  10.508 -0.2372 -0.2248 -0.0481
   90SAPS    C1 8695   6.732   2.180  10.375 -0.2766  0.2931 -0.9433
   90SAPS    HA 8696   6.639   2.155  10.319 -1.3264 -1.6254  1.4783
   90SAPS    HB 8697   6.788   2.270  10.340  0.1502  2.1393  3.7705
   90SAPS    C2 8698   6.828   2.060  10.355  0.1307 -0.0871 -0.0980
   90SAPS    HS 8699   6.925   2.085  10.403  1.3169  1.1098 -2.8706
   90SAPS   O21 8700   6.841   2.036  10.219  0.6422  0.0315  0.3304
   90SAPS   C21 8701   6.925   2.119  10.159 -0.7999  0.0132  0.4923
   90SAPS   O22 8702   7.005   2.197  10.218  0.1261 -0.2745 -0.3614
   90SAPS   C22 8703   6.922   2.093  10.001 -0.4189 -0.0789  0.6043
   90SAPS   H2R 8704   7.016   2.038   9.978 -0.2361  0.0315  1.0830
   90SAPS   H2S 8705   6.838   2.023   9.987 -0.1031 -0.3585  0.0661
   90SAPS    C3 8706   6.774   1.934  10.436  0.0401 -1.3486  0.0725
   90SAPS    HX 8707   6.666   1.929  10.415 -0.2889 -0.8083  1.4996
   90SAPS    HY 8708   6.803   1.950  10.542 -1.2681 -1.0461  0.3986
   90SAPS   O31 8709   6.832   1.811  10.380 -0.2498 -0.0285  0.6914
   90SAPS   C31 8710   6.920   1.749  10.466  0.4049  0.1488 -0.2368
   90SAPS   O32 8711   6.955   1.788  10.573 -0.1263 -0.0764 -0.4252
   90SAPS   C32 8712   6.950   1.609  10.408  0.1054 -0.3979 -1.3738
   90SAPS   H2X 8713   6.864   1.550  10.372  3.3918 -4.4275 -3.5519
   90SAPS   H2Y 8714   6.983   1.561  10.502 -1.7864  0.3224 -0.2895
   90SAPS   C23 8715   6.906   2.223   9.911  0.2207  0.1779 -0.2981
   90SAPS   H3R 8716   6.954   2.310   9.960  0.3251 -1.4793  2.8314
   90SAPS   H3S 8717   6.800   2.247   9.889 -0.0419  1.4193  1.9822
   90SAPS   C24 8718   6.965   2.215   9.770 -0.4600 -0.2431 -0.0025
   90SAPS   H4R 8719   7.071   2.181   9.773 -0.1025  0.8712  2.2011
   90SAPS   H4S 8720   6.965   2.319   9.730 -0.4925 -0.7040 -1.2132
   90SAPS   C25 8721   6.899   2.114   9.681  0.3736 -0.3206 -0.3825
   90SAPS   H5R 8722   6.846   2.031   9.730 -2.5040  1.4903 -0.2071
   90SAPS   C26 8723   6.885   2.116   9.543 -0.4624  0.2434 -0.2079
   90SAPS   H6R 8724   6.842   2.033   9.485  0.2952 -0.4972  0.2658
   90SAPS   C27 8725   6.952   2.214   9.460  0.7457 -0.8626  0.0682
   90SAPS   H7R 8726   7.014   2.165   9.383 -0.9064 -3.1762  0.1124
   90SAPS   H7S 8727   7.011   2.280   9.528  0.2057  0.0548 -0.3422
   90SAPS   C28 8728   6.846   2.307   9.393 -0.8540 -0.8881 -0.1426
   90SAPS   H8R 8729   6.774   2.353   9.462 -0.4840 -1.5800  0.7192
   90SAPS   C29 8730   6.834   2.323   9.256  0.4759 -0.8091 -0.4624
   90SAPS   H9R 8731   6.741   2.369   9.220  0.6359 -1.6354 -2.0089
   90SAPS  C210 8732   6.910   2.243   9.155  0.6721 -0.0384 -0.9171
   90SAPS  H10R 8733   6.961   2.152   9.193 -1.0729 -0.7831 -0.2759
   90SAPS  H10S 8734   6.997   2.307   9.128  1.0630 -0.3427 -0.3948
   90SAPS  C211 8735   6.840   2.205   9.026  0.1608 -0.3822 -0.2833
   90SAPS  H11R 8736   6.731   2.193   9.032  0.1835 -0.1168  0.8357
   90SAPS  C212 8737   6.903   2.182   8.910  0.4150  0.1738  0.1926
   90SAPS  H12R 8738   6.850   2.152   8.818  0.3699  0.0076  0.2730
   90SAPS  C213 8739   7.056   2.183   8.889 -0.4632  0.5368 -0.0685
   90SAPS  H13R 8740   7.114   2.239   8.966 -1.3943  0.4153  0.7473
   90SAPS  H13S 8741   7.090   2.233   8.797  1.9423  1.9807  1.4952
   90SAPS  C214 8742   7.116   2.045   8.901 -0.2538  0.0925  0.6195
   90SAPS  H14R 8743   7.073   1.979   8.978 -1.8961 -0.5786 -0.8064
   90SAPS  C215 8744   7.221   1.992   8.834  0.2572 -0.0068  0.0982
   90SAPS  H15R 8745   7.246   1.886   8.850 -2.7677 -0.8505 -0.0950
   90SAPS  C216 8746   7.292   2.063   8.719  0.3942  0.1583 -0.4314
   90SAPS  H16R 8747   7.301   2.174   8.728  0.0631  0.2091 -0.6652
   90SAPS  H16S 8748   7.229   2.048   8.628  0.0595  0.8822 -0.3273
   90SAPS  C217 8749   7.436   2.019   8.697 -0.6011 -0.8685  0.2361
   90SAPS  H17R 8750   7.477   2.018   8.801 -1.3346  1.0471  0.5838
   90SAPS  H17S 8751   7.488   2.110   8.660  0.8891 -1.8412 -0.1396
   90SAPS  C218 8752   7.467   1.891   8.620 -0.4303 -0.2646  0.8446
   90SAPS  H18R 8753   7.434   1.901   8.515  2.8392  2.3354 -0.1081
   90SAPS  H18S 8754   7.409   1.809   8.668  0.5178 -0.5476  1.5493
   90SAPS  C219 8755   7.620   1.864   8.620 -0.5108  0.0704 -0.0013
   90SAPS  H19R 8756   7.657   1.857   8.724 -0.7708 -2.2194 -0.0167
   90SAPS  H19S 8757   7.661   1.959   8.579 -1.1353  0.9517  1.3598
   90SAPS  C220 8758   7.653   1.741   8.535  0.2374 -0.8756 -0.0724
   90SAPS  H20R 8759   7.615   1.655   8.594  0.0524  0.0372  1.1826
   90SAPS  H20S 8760   7.762   1.724   8.540 -0.1026 -2.8735  1.5303
   90SAPS  H20T 8761   7.613   1.767   8.434  1.9484  1.8958 -0.1507
   90SAPS   C33 8762   7.055   1.607  10.295  1.0042 -0.0826  0.0686
   90SAPS   H3X 8763   7.083   1.501  10.276  1.8061  0.0571  0.4160
   90SAPS   H3Y 8764   7.150   1.657  10.324  0.3561 -0.0567  2.4066
   90SAPS   C34 8765   7.002   1.667  10.165 -0.5530  0.6779 -0.1789
   90SAPS   H4X 8766   7.024   1.775  10.177 -0.7783  0.6739  0.3156
   90SAPS   H4Y 8767   6.893   1.650  10.152 -0.5452  1.4675 -1.3752
   90SAPS   C35 8768   7.091   1.624  10.043  0.0150 -0.0687  0.7672
   90SAPS   H5X 8769   7.067   1.521  10.010 -1.4205  0.2845  0.6433
   90SAPS   H5Y 8770   7.200   1.637  10.061 -0.0683  0.1846  1.0923
   90SAPS   C36 8771   7.049   1.707   9.919  0.6182 -0.0840  0.0808
   90SAPS   H6X 8772   7.076   1.815   9.927 -0.6961  0.2283  0.7250
   90SAPS   H6Y 8773   6.938   1.701   9.910  0.6406  1.7238 -2.4268
   90SAPS   C37 8774   7.108   1.659   9.784  0.4703 -0.4839 -0.1964
   90SAPS   H7X 8775   7.096   1.549   9.778  1.5637 -0.5553 -1.9818
   90SAPS   H7Y 8776   7.219   1.664   9.779  0.4435  0.2357 -4.4946
   90SAPS   C38 8777   7.048   1.720   9.662  0.1500  0.4468 -0.2088
   90SAPS   H8X 8778   7.039   1.831   9.659 -2.3608  0.3144  0.3315
   90SAPS   H8Y 8779   6.942   1.686   9.654  0.1208  0.3848  0.4346
   90SAPS   C39 8780   7.114   1.669   9.524  0.3300  0.5359 -0.5286
   90SAPS   H9X 8781   7.077   1.564   9.524 -1.2979  1.0512 -2.1796
   90SAPS   H9Y 8782   7.224   1.673   9.533  0.3940 -1.0494 -0.2080
   90SAPS  C310 8783   7.068   1.737   9.394  0.1152 -0.6434 -0.6820
   90SAPS  H10X 8784   7.096   1.845   9.397 -0.3921 -0.3544 -3.3546
   90SAPS  H10Y 8785   6.957   1.737   9.393 -0.0046  2.6535  0.0500
   90SAPS  C311 8786   7.123   1.654   9.277  0.3810 -0.2446 -1.0110
   90SAPS  H11X 8787   7.089   1.549   9.290 -0.6575  0.1844 -0.0741
   90SAPS  H11Y 8788   7.234   1.654   9.276  0.3788 -0.3765 -1.6440
   90SAPS  C312 8789   7.087   1.720   9.151 -0.0529 -0.1103 -0.3092
   90SAPS  H12X 8790   7.114   1.828   9.153 -1.9241  0.3906 -0.5006
   90SAPS  H12Y 8791   6.978   1.712   9.133 -0.3025 -1.6582  1.5736
   90SAPS  C313 8792   7.158   1.640   9.046 -0.3381  0.4914 -0.3382
   90SAPS  H13X 8793   7.197   1.539   9.074  0.1488  1.1762  1.5806
   90SAPS  H13Y 8794   7.249   1.683   8.999  1.8096 -1.7991  1.4226
   90SAPS  C314 8795   7.073   1.613   8.923  0.8661  0.1883  0.0091
   90SAPS  H14X 8796   7.007   1.701   8.905 -3.4492 -2.9695 -1.1527
   90SAPS  H14Y 8797   7.012   1.526   8.954  1.2684 -0.7152 -1.6476
   90SAPS  C315 8798   7.142   1.586   8.795  0.2328 -0.2131  0.1600
   90SAPS  H15X 8799   7.192   1.486   8.804  1.1408  0.0173 -1.8428
   90SAPS  H15Y 8800   7.224   1.660   8.782  0.0049  0.0057 -0.0454
   90SAPS  C316 8801   7.051   1.595   8.669 -0.6777  0.0201 -0.5709
   90SAPS  H16X 8802   6.948   1.555   8.679 -1.5658  2.1394 -0.7530
   90SAPS  H16Y 8803   7.110   1.526   8.604 -0.1604 -0.8212  0.7583
   90SAPS  C317 8804   7.054   1.732   8.605  0.3989 -0.5040 -0.2508
   90SAPS  H17X 8805   7.155   1.771   8.581  0.2092 -0.0786 -0.3764
   90SAPS  H17Y 8806   7.009   1.804   8.677 -1.7914 -0.7040 -1.3225
   90SAPS  C318 8807   6.976   1.734   8.476 -0.1672  0.6399 -0.3463
   90SAPS  H18X 8808   6.878   1.683   8.487 -1.5885  2.7278 -2.5060
   90SAPS  H18Y 8809   7.031   1.675   8.400 -0.3214  0.0589 -0.0156
   90SAPS  H18Z 8810   6.962   1.836   8.434  1.1528  0.3606 -1.5395
   91SAPS     N 8811   5.823   5.153   6.319 -0.2598  0.4757  0.0501
   91SAPS   HN1 8812   5.779   5.092   6.392  2.0397 -0.4117  0.8260
   91SAPS   HN2 8813   5.918   5.167   6.360  0.4798 -0.4054 -1.2986
   91SAPS   HN3 8814   5.784   5.249   6.313 -0.0190  0.4775 -2.5892
   91SAPS   C12 8815   5.844   5.080   6.200 -0.7126  0.9298 -0.0682
   91SAPS  H12A 8816   5.747   5.081   6.153 -0.5288 -2.7269 -0.8546
   91SAPS   C13 8817   5.948   5.133   6.093  0.0940  0.1665 -0.0283
   91SAPS  O13A 8818   5.994   5.248   6.106 -0.7124  0.2582  0.3177
   91SAPS  O13B 8819   5.963   5.072   5.988  0.6460 -0.3473  0.4267
   91SAPS   C11 8820   5.887   4.936   6.235  0.0874 -0.5206 -0.7075
   91SAPS  H11A 8821   5.908   4.878   6.142  1.3395  1.0034 -1.4320
   91SAPS  H11B 8822   5.802   4.886   6.286 -0.8406  0.1540 -1.5597
   91SAPS     P 8823   6.047   4.803   6.397 -0.0983 -0.1170 -0.4700
   91SAPS   O13 8824   5.987   4.684   6.335 -0.1262  0.1182  0.0735
   91SAPS   O14 8825   6.195   4.807   6.406 -0.2847 -0.3737  0.2218
   91SAPS   O12 8826   6.011   4.939   6.316  0.4974  0.2567 -0.1516
   91SAPS   O11 8827   5.979   4.823   6.543  0.2624 -0.8245 -0.5657
   91SAPS    C1 8828   6.034   4.936   6.620  0.4518  0.6233 -0.5076
   91SAPS    HA 8829   6.145   4.935   6.630  0.2803  2.5973  3.3337
   91SAPS    HB 8830   6.003   5.028   6.567  1.0455  0.4906 -1.0929
   91SAPS    C2 8831   5.970   4.946   6.762  0.3078  0.0187 -0.7071
   91SAPS    HS 8832   5.859   4.938   6.756  0.1591  0.0718  1.3840
   91SAPS   O21 8833   6.006   5.068   6.825 -0.2262 -0.0962 -0.6044
   91SAPS   C21 8834   5.939   5.175   6.786  0.5499  0.5423 -0.3164
   91SAPS   O22 8835   5.862   5.180   6.693  0.1743 -0.7089 -0.6415
   91SAPS   C22 8836   5.968   5.287   6.888 -0.5846  0.0405 -0.5209
   91SAPS   H2R 8837   6.074   5.314   6.875 -0.7029  0.3713 -0.8054
   91SAPS   H2S 8838   5.910   5.380   6.869  0.5999  1.1129  0.8565
   91SAPS    C3 8839   6.015   4.823   6.846 -0.2857 -0.8800  0.2902
   91SAPS    HX 8840   6.123   4.832   6.869 -0.4889 -1.8441  1.7580
   91SAPS    HY 8841   5.990   4.738   6.778 -0.7372  2.1042 -3.6461
   91SAPS   O31 8842   5.955   4.818   6.975 -0.5409  0.5332  0.4991
   91SAPS   C31 8843   5.945   4.689   7.026  0.0088 -0.7229 -0.0946
   91SAPS   O32 8844   5.989   4.592   6.974 -0.1879 -0.1772  0.0464
   91SAPS   C32 8845   5.859   4.691   7.149 -0.2361  0.8160 -0.3060
   91SAPS   H2X 8846   5.791   4.779   7.148 -2.2143 -0.5196  2.6190
   91SAPS   H2Y 8847   5.915   4.694   7.245  0.1524 -1.7863 -0.3798
   91SAPS   C23 8848   5.949   5.237   7.038  0.6281  0.5084  0.2964
   91SAPS   H3R 8849   5.869   5.160   7.037  0.9287  0.1844  0.7344
   91SAPS   H3S 8850   5.917   5.325   7.097  1.4489 -0.1878  1.8339
   91SAPS   C24 8851   6.083   5.186   7.099 -0.2000 -0.4383  0.1637
   91SAPS   H4R 8852   6.133   5.277   7.138  0.1558 -0.6319  0.1619
   91SAPS   H4S 8853   6.151   5.142   7.023  1.4024 -0.8902  1.7918
   91SAPS   C25 8854   6.061   5.097   7.213 -0.3019 -0.4287 -0.5561
   91SAPS   H5R 8855   6.075   4.992   7.183  1.4600 -0.2477 -0.4697
   91SAPS   C26 8856   6.046   5.125   7.347  0.0995  0.3340 -0.6384
   91SAPS   H6R 8857   6.049   5.041   7.417  2.1991  0.4100 -0.5525
   91SAPS   C27 8858   6.046   5.255   7.416  0.0798 -0.2991 -0.6347
   91SAPS   H7R 8859   6.121   5.320   7.365  0.6081  1.4111  2.1104
   91SAPS   H7S 8860   6.077   5.248   7.523  0.2563  1.2928 -0.5509
   91SAPS   C28 8861   5.913   5.324   7.411  0.4720 -0.2078  0.4230
   91SAPS   H8R 8862   5.882   5.340   7.307  2.7742  0.9020 -0.1509
   91SAPS   C29 8863   5.832   5.385   7.503 -0.4407 -0.1576  0.5132
   91SAPS   H9R 8864   5.744   5.438   7.464  1.9374  1.9428 -2.4821
   91SAPS  C210 8865   5.864   5.394   7.652  0.0535 -0.5675 -1.0002
   91SAPS  H10R 8866   5.952   5.331   7.678 -0.8318 -1.8585 -1.0734
   91SAPS  H10S 8867   5.774   5.361   7.708  0.2235 -2.4614 -1.7817
   91SAPS  C211 8868   5.888   5.537   7.680 -0.2504 -0.1777 -0.5462
   91SAPS  H11R 8869   5.800   5.603   7.679 -0.2234 -0.0755  1.2987
   91SAPS  C212 8870   6.010   5.590   7.718  0.1926  0.0784 -0.0726
   91SAPS  H12R 8871   6.014   5.698   7.739  1.1725  0.5233 -2.3065
   91SAPS  C213 8872   6.146   5.519   7.724  0.1644 -0.1555  0.8909
   91SAPS  H13R 8873   6.167   5.444   7.645  0.2679  0.6522  0.1359
   91SAPS  H13S 8874   6.147   5.465   7.821 -1.1520 -0.7695  0.5908
   91SAPS  C214 8875   6.260   5.616   7.722 -0.4870 -0.1546  0.6806
   91SAPS  H14R 8876   6.308   5.637   7.820  0.8262 -4.0394  1.0478
   91SAPS  C215 8877   6.329   5.672   7.616 -1.1073  0.3106  0.4413
   91SAPS  H15R 8878   6.402   5.749   7.646  0.9005 -1.9184  1.5930
   91SAPS  C216 8879   6.308   5.651   7.468 -0.1243 -0.5761  0.3789
   91SAPS  H16R 8880   6.307   5.542   7.449 -1.9893 -0.0476 -3.4107
   91SAPS  H16S 8881   6.385   5.705   7.409  0.0712 -2.0795 -0.8004
   91SAPS  C217 8882   6.176   5.709   7.411  0.0743 -0.2674 -0.2870
   91SAPS  H17R 8883   6.170   5.813   7.448  1.2434 -0.4051  0.3425
   91SAPS  H17S 8884   6.086   5.661   7.455 -0.5968  0.5582 -0.7456
   91SAPS  C218 8885   6.176   5.711   7.252  0.0465 -0.2636 -0.2542
   91SAPS  H18R 8886   6.247   5.787   7.211 -2.1005  2.8885  1.4062
   91SAPS  H18S 8887   6.075   5.747   7.225  0.0792 -0.7280 -1.0317
   91SAPS  C219 8888   6.194   5.570   7.210 -0.1428  0.7388 -0.1353
   91SAPS  H19R 8889   6.126   5.496   7.258 -1.5193  1.1344 -1.3734
   91SAPS  H19S 8890   6.300   5.539   7.222 -0.4332 -1.6466 -2.6927
   91SAPS  C220 8891   6.159   5.548   7.061  0.0289 -0.4449 -0.4375
   91SAPS  H20R 8892   6.069   5.605   7.031  0.1011 -0.4447 -0.6625
   91SAPS  H20S 8893   6.162   5.442   7.027  3.1038 -0.6532  0.1920
   91SAPS  H20T 8894   6.245   5.596   7.008  1.3845 -1.7266  0.5228
   91SAPS   C33 8895   5.763   4.564   7.156  0.0430  0.1764 -0.8791
   91SAPS   H3X 8896   5.737   4.525   7.055  1.4918  0.5944 -1.4367
   91SAPS   H3Y 8897   5.660   4.575   7.196 -0.8881  1.4876 -3.4269
   91SAPS   C34 8898   5.828   4.452   7.235 -0.4945 -0.3986 -0.2150
   91SAPS   H4X 8899   5.929   4.443   7.189  0.1451  0.7043  0.9155
   91SAPS   H4Y 8900   5.780   4.352   7.223  0.9395 -1.0291 -0.9769
   91SAPS   C35 8901   5.833   4.477   7.382 -0.4977 -0.6041 -0.0117
   91SAPS   H5X 8902   5.733   4.502   7.424 -0.4997  0.3549 -0.5674
   91SAPS   H5Y 8903   5.898   4.563   7.406  1.1176 -0.5568 -3.7845
   91SAPS   C36 8904   5.893   4.355   7.461 -0.2059 -0.5791  0.1137
   91SAPS   H6X 8905   5.974   4.325   7.391  1.6215  0.8930  1.5001
   91SAPS   H6Y 8906   5.825   4.266   7.460 -0.4519 -0.4034 -1.2293
   91SAPS   C37 8907   5.954   4.382   7.597 -0.2114 -0.0711 -0.2413
   91SAPS   H7X 8908   6.040   4.449   7.575  0.5679 -1.0763 -0.3401
   91SAPS   H7Y 8909   5.998   4.289   7.640 -0.4026  0.1693  0.4949
   91SAPS   C38 8910   5.865   4.441   7.711 -0.0708  0.3921 -0.5738
   91SAPS   H8X 8911   5.782   4.374   7.741  0.7913 -0.2547  0.4655
   91SAPS   H8Y 8912   5.820   4.534   7.670  0.8789  0.3901 -1.6835
   91SAPS   C39 8913   5.951   4.460   7.837 -0.7051  0.0481 -0.3132
   91SAPS   H9X 8914   6.024   4.538   7.810 -0.4868 -0.1279 -0.2338
   91SAPS   H9Y 8915   6.016   4.373   7.860 -0.4848  0.3237  0.1166
   91SAPS  C310 8916   5.871   4.503   7.962  0.2262  0.0429  0.1226
   91SAPS  H10X 8917   5.778   4.441   7.962  0.0617  0.2528  1.3444
   91SAPS  H10Y 8918   5.852   4.611   7.949  1.9656  0.1125 -2.3744
   91SAPS  C311 8919   5.955   4.477   8.091  0.6436  0.1752 -0.4180
   91SAPS  H11X 8920   5.908   4.536   8.173 -2.1006 -1.3485 -0.7798
   91SAPS  H11Y 8921   6.053   4.527   8.074 -0.3482  1.8878 -1.3599
   91SAPS  C312 8922   5.954   4.333   8.124 -0.1493  0.6595 -0.1546
   91SAPS  H12X 8923   6.023   4.277   8.057 -0.8720  0.2068 -0.5385
   91SAPS  H12Y 8924   5.851   4.291   8.122 -0.4442  1.2831  1.3123
   91SAPS  C313 8925   6.002   4.293   8.266  0.7516 -0.4620 -0.4267
   91SAPS  H13X 8926   6.102   4.342   8.266  0.0890  1.0189  1.6505
   91SAPS  H13Y 8927   6.004   4.182   8.263 -2.4979 -0.7514  2.3362
   91SAPS  C314 8928   5.918   4.346   8.387  0.9080  0.5070  0.1166
   91SAPS  H14X 8929   5.909   4.456   8.375  1.7589  0.7299  1.3540
   91SAPS  H14Y 8930   5.971   4.325   8.482 -0.5996  0.4447  0.9741
   91SAPS  C315 8931   5.776   4.293   8.406 -0.2489 -0.8418 -0.4123
   91SAPS  H15X 8932   5.790   4.183   8.413 -0.3977 -0.7858  1.0748
   91SAPS  H15Y 8933   5.720   4.311   8.312 -0.4940  0.5180 -0.0158
   91SAPS  C316 8934   5.695   4.353   8.527  0.1839  0.7089 -0.0812
   91SAPS  H16X 8935   5.687   4.464   8.522  0.4221  0.7002 -0.7607
   91SAPS  H16Y 8936   5.754   4.336   8.620  1.4524  0.6693 -0.8695
   91SAPS  C317 8937   5.556   4.297   8.544  0.0111  0.0652  0.2624
   91SAPS  H17X 8938   5.491   4.327   8.630  1.5547  0.4456  1.3455
   91SAPS  H17Y 8939   5.583   4.191   8.563  0.4499  0.2420  0.6673
   91SAPS  C318 8940   5.463   4.291   8.420 -0.1731 -0.0355 -0.5884
   91SAPS  H18X 8941   5.407   4.195   8.432  1.7570 -1.4987 -2.4757
   91SAPS  H18Y 8942   5.515   4.288   8.322  1.7328 -2.1648  0.4020
   91SAPS  H18Z 8943   5.402   4.383   8.406 -0.0429  0.1287 -0.0891
   92SAPS     N 8944   4.921   1.952   6.225 -0.1077  0.3950 -0.0081
   92SAPS   HN1 8945   4.903   1.976   6.126 -0.4667 -0.5233 -0.1691
   92SAPS   HN2 8946   4.973   1.862   6.226  1.2351  1.0951  2.3738
   92SAPS   HN3 8947   4.825   1.936   6.260  0.3917 -0.0530  1.2194
   92SAPS   C12 8948   4.996   2.067   6.293  0.2526  0.2776 -0.3599
   92SAPS  H12A 8949   5.087   2.091   6.239 -0.1117  2.2750 -0.1806
   92SAPS   C13 8950   4.913   2.200   6.294 -0.0511 -0.4286  0.2317
   92SAPS  O13A 8951   4.787   2.190   6.283  0.4825  0.0641  1.0176
   92SAPS  O13B 8952   4.973   2.307   6.297  0.3258  0.3311 -0.4375
   92SAPS   C11 8953   5.040   2.015   6.433 -0.0862 -0.9532  0.6418
   92SAPS  H11A 8954   4.951   1.989   6.495 -1.1019  2.2897  0.7494
   92SAPS  H11B 8955   5.071   2.109   6.484 -1.8618  0.7447 -1.2246
   92SAPS     P 8956   5.285   1.940   6.427 -0.4207  0.4352  0.0402
   92SAPS   O13 8957   5.354   1.810   6.422  0.1155 -0.3689 -0.3539
   92SAPS   O14 8958   5.317   2.030   6.314  0.0534  0.1420 -0.2801
   92SAPS   O12 8959   5.128   1.907   6.431 -0.1509 -0.1922  0.4636
   92SAPS   O11 8960   5.304   2.003   6.570 -0.7383 -0.2325 -1.3421
   92SAPS    C1 8961   5.248   1.944   6.692  0.3314  0.1067 -0.0143
   92SAPS    HA 8962   5.229   2.024   6.767 -3.9450 -0.0549 -0.6922
   92SAPS    HB 8963   5.144   1.912   6.671  0.9405 -1.8250 -0.3561
   92SAPS    C2 8964   5.346   1.836   6.747 -0.4110  0.1716 -0.8539
   92SAPS    HS 8965   5.354   1.759   6.667  0.1949  0.5795 -1.1923
   92SAPS   O21 8966   5.292   1.800   6.870  0.9056  0.3563 -0.2962
   92SAPS   C21 8967   5.340   1.699   6.930  0.5551 -0.3889  0.6471
   92SAPS   O22 8968   5.420   1.620   6.891  0.1901  0.6777 -0.0567
   92SAPS   C22 8969   5.265   1.697   7.065 -0.0846 -0.1694 -0.0172
   92SAPS   H2R 8970   5.266   1.805   7.091  0.7366  1.0040 -4.1447
   92SAPS   H2S 8971   5.162   1.657   7.058 -0.3257  0.1617  1.4033
   92SAPS    C3 8972   5.481   1.906   6.778 -0.5028  0.1555 -0.2818
   92SAPS    HX 8973   5.533   1.928   6.682 -0.6577 -0.7660 -0.5887
   92SAPS    HY 8974   5.544   1.841   6.843 -0.8461  0.8872  0.8041
   92SAPS   O31 8975   5.454   2.033   6.839 -0.1599 -0.1164 -0.2022
   92SAPS   C31 8976   5.475   2.036   6.968 -0.3754 -0.0033  0.0002
   92SAPS   O32 8977   5.512   1.949   7.038 -0.1844 -0.3038 -0.5414
   92SAPS   C32 8978   5.434   2.174   7.026  0.2279  0.4777 -0.0068
   92SAPS   H2X 8979   5.327   2.188   6.998  0.7014  0.1430 -2.1685
   92SAPS   H2Y 8980   5.472   2.271   6.989  0.2192  1.3823  2.1756
   92SAPS   C23 8981   5.337   1.606   7.171 -0.2940 -0.5841 -0.5596
   92SAPS   H3R 8982   5.342   1.500   7.139  1.0257 -0.3827 -1.0943
   92SAPS   H3S 8983   5.274   1.619   7.262 -1.9498 -1.0788 -1.6091
   92SAPS   C24 8984   5.472   1.660   7.218  0.6155 -0.2690 -0.8162
   92SAPS   H4R 8985   5.462   1.762   7.263 -1.6204 -0.3241 -1.0715
   92SAPS   H4S 8986   5.541   1.684   7.135  0.6837  1.8412 -0.2081
   92SAPS   C25 8987   5.527   1.563   7.317 -0.8082  0.2932  0.0650
   92SAPS   H5R 8988   5.607   1.499   7.277 -0.1594  0.6970  0.6949
   92SAPS   C26 8989   5.506   1.550   7.444 -0.4511 -0.7677 -0.3508
   92SAPS   H6R 8990   5.563   1.472   7.497  2.5423  0.1925 -1.8942
   92SAPS   C27 8991   5.423   1.639   7.528  0.2056 -0.1743 -0.5482
   92SAPS   H7R 8992   5.388   1.582   7.616  1.2052  0.2229  0.1247
   92SAPS   H7S 8993   5.326   1.672   7.484 -0.2584  1.2175  1.3682
   92SAPS   C28 8994   5.494   1.761   7.576 -0.5181 -0.0158  0.0655
   92SAPS   H8R 8995   5.512   1.844   7.505  1.6735 -0.1976  0.3406
   92SAPS   C29 8996   5.544   1.792   7.703  0.0191  0.2834 -0.3704
   92SAPS   H9R 8997   5.589   1.890   7.729 -2.3598  0.8940  1.8727
   92SAPS  C210 8998   5.526   1.699   7.824 -0.1847  0.5112  0.2596
   92SAPS  H10R 8999   5.437   1.633   7.821  1.6387 -2.1171  0.3008
   92SAPS  H10S 9000   5.512   1.751   7.921  0.1730  0.7425  0.1893
   92SAPS  C211 9001   5.651   1.610   7.833  1.1174  0.2182  0.7021
   92SAPS  H11R 9002   5.678   1.553   7.743 -1.5529 -1.9408  1.1071
   92SAPS  C212 9003   5.705   1.561   7.939 -0.5919 -0.0434 -1.1270
   92SAPS  H12R 9004   5.802   1.508   7.934 -0.7948 -0.9049  2.1489
   92SAPS  C213 9005   5.661   1.580   8.086 -0.6104 -0.1687  0.3757
   92SAPS  H13R 9006   5.569   1.526   8.118 -1.0481 -0.7935 -1.7481
   92SAPS  H13S 9007   5.632   1.687   8.091  0.3383  0.0937  0.4821
   92SAPS  C214 9008   5.778   1.564   8.178 -0.8517  0.1016  0.2518
   92SAPS  H14R 9009   5.869   1.618   8.149  0.0116 -0.6320  1.4829
   92SAPS  C215 9010   5.789   1.509   8.298  0.3954 -0.4749  0.3575
   92SAPS  H15R 9011   5.887   1.515   8.348  0.6384 -0.1155 -0.1591
   92SAPS  C216 9012   5.682   1.437   8.373 -0.3069 -0.6364 -0.5071
   92SAPS  H16R 9013   5.714   1.334   8.401  0.6262 -0.0415  0.6898
   92SAPS  H16S 9014   5.598   1.423   8.302 -1.0953  0.7341  0.1201
   92SAPS  C217 9015   5.630   1.506   8.499  0.1679  0.1793  0.3718
   92SAPS  H17R 9016   5.606   1.611   8.470 -1.4492 -0.1906  0.2476
   92SAPS  H17S 9017   5.709   1.514   8.576  0.5474  0.8793 -0.0773
   92SAPS  C218 9018   5.493   1.441   8.543 -0.9750 -0.3149  0.9937
   92SAPS  H18R 9019   5.517   1.337   8.571  1.5777  0.0658  0.5024
   92SAPS  H18S 9020   5.420   1.459   8.460 -1.0483  0.3174  1.1888
   92SAPS  C219 9021   5.438   1.514   8.662  0.5476  0.0982 -0.2144
   92SAPS  H19R 9022   5.333   1.489   8.691  0.7034 -0.7418 -0.3524
   92SAPS  H19S 9023   5.425   1.621   8.634  0.2608  0.8107  2.3677
   92SAPS  C220 9024   5.524   1.495   8.791 -0.8942 -0.0374  0.3348
   92SAPS  H20R 9025   5.629   1.529   8.801 -0.3438 -1.3058 -0.8296
   92SAPS  H20S 9026   5.516   1.393   8.833  0.0460 -0.5632 -0.7229
   92SAPS  H20T 9027   5.488   1.565   8.870  1.3138 -0.0544  1.4263
   92SAPS   C33 9028   5.444   2.185   7.180  0.5435  0.1063  0.0732
   92SAPS   H3X 9029   5.421   2.288   7.214  0.1110 -1.1491  4.1019
   92SAPS   H3Y 9030   5.550   2.181   7.214  0.3625 -0.7076  0.5577
   92SAPS   C34 9031   5.358   2.097   7.264 -0.5426 -0.0055 -0.7229
   92SAPS   H4X 9032   5.375   1.996   7.221  2.3094 -0.2129  0.7002
   92SAPS   H4Y 9033   5.250   2.119   7.252 -1.1703 -1.5351  1.4969
   92SAPS   C35 9034   5.374   2.095   7.418 -0.3972 -0.7772 -0.5529
   92SAPS   H5X 9035   5.480   2.069   7.439 -0.7459 -0.1684  2.4374
   92SAPS   H5Y 9036   5.317   2.012   7.465  0.2402 -0.0423  1.6680
   92SAPS   C36 9037   5.344   2.228   7.484 -0.1512 -1.4482 -0.7657
   92SAPS   H6X 9038   5.238   2.250   7.460 -0.1990 -1.6939 -0.7845
   92SAPS   H6Y 9039   5.408   2.309   7.443  0.9601 -1.5435  0.6903
   92SAPS   C37 9040   5.344   2.235   7.641 -0.2324 -0.3151 -0.0838
   92SAPS   H7X 9041   5.252   2.187   7.681 -0.6434  1.3502  1.0824
   92SAPS   H7Y 9042   5.353   2.340   7.674  2.4345  0.0569 -1.7158
   92SAPS   C38 9043   5.461   2.164   7.693  0.2400  0.5452 -0.3530
   92SAPS   H8X 9044   5.543   2.217   7.641 -0.8038  0.7930 -1.8000
   92SAPS   H8Y 9045   5.469   2.059   7.660  4.9722 -0.0296  1.8413
   92SAPS   C39 9046   5.464   2.175   7.845 -0.1622  0.7450 -0.1135
   92SAPS   H9X 9047   5.446   2.283   7.866 -0.4887  0.7352 -0.3429
   92SAPS   H9Y 9048   5.562   2.143   7.888  0.0600  1.2771 -0.2116
   92SAPS  C310 9049   5.361   2.089   7.920 -0.5241 -0.7452 -0.3896
   92SAPS  H10X 9050   5.369   1.985   7.884  3.6861 -1.2996  1.4958
   92SAPS  H10Y 9051   5.260   2.130   7.900 -0.4128 -0.4742 -0.4139
   92SAPS  C311 9052   5.366   2.102   8.073 -0.5178  0.4453 -0.0577
   92SAPS  H11X 9053   5.264   2.090   8.114 -2.0207  1.3129 -3.2431
   92SAPS  H11Y 9054   5.394   2.206   8.102 -4.0566  1.5402 -0.1929
   92SAPS  C312 9055   5.459   2.002   8.139  0.4451  0.3812 -0.0555
   92SAPS  H12X 9056   5.559   2.017   8.094  1.0829  0.7767  1.4277
   92SAPS  H12Y 9057   5.424   1.900   8.113 -0.6766  0.7034  0.1321
   92SAPS  C313 9058   5.452   2.018   8.293  0.5420 -0.6645 -0.0674
   92SAPS  H13X 9059   5.352   1.992   8.334  1.4477  0.1607  2.9310
   92SAPS  H13Y 9060   5.488   2.120   8.318 -1.6777 -0.1754  1.3932
   92SAPS  C314 9061   5.544   1.904   8.350  0.3512 -0.7670 -0.2498
   92SAPS  H14X 9062   5.625   1.874   8.281 -0.6256 -1.3702 -1.1519
   92SAPS  H14Y 9063   5.492   1.807   8.350  1.1796 -1.2481  1.1413
   92SAPS  C315 9064   5.597   1.932   8.492  0.6124 -0.6595  0.1357
   92SAPS  H15X 9065   5.662   2.023   8.492 -1.1267  0.6511 -0.6431
   92SAPS  H15Y 9066   5.666   1.850   8.521  0.5235 -0.9455 -0.4424
   92SAPS  C316 9067   5.487   1.966   8.592 -0.5653  0.1436 -0.2603
   92SAPS  H16X 9068   5.427   1.872   8.600 -1.3122  0.6917  1.0210
   92SAPS  H16Y 9069   5.430   2.053   8.553 -1.2853  0.2037  0.8690
   92SAPS  C317 9070   5.554   1.985   8.733  0.4296  0.0700  0.5735
   92SAPS  H17X 9071   5.475   1.981   8.810 -0.2917 -1.0545 -0.1992
   92SAPS  H17Y 9072   5.590   2.090   8.736 -0.0946  0.2596  0.3242
   92SAPS  C318 9073   5.663   1.883   8.769 -0.1618  0.0753  0.3154
   92SAPS  H18X 9074   5.643   1.777   8.743  0.9513 -0.2738  0.8620
   92SAPS  H18Y 9075   5.686   1.885   8.877 -0.5913 -1.9784  0.4764
   92SAPS  H18Z 9076   5.757   1.900   8.713 -0.2220 -1.8346 -0.4333
   93SAPS     N 9077   5.366   2.586   6.303 -0.8062 -0.0244 -0.2012
   93SAPS   HN1 9078   5.333   2.621   6.211  2.8646  0.0413 -1.6661
   93SAPS   HN2 9079   5.320   2.502   6.343  1.8664 -0.8613  1.4361
   93SAPS   HN3 9080   5.341   2.659   6.372  3.8338 -0.1003  1.9260
   93SAPS   C12 9081   5.509   2.556   6.315 -0.1761  0.4929  0.1101
   93SAPS  H12A 9082   5.533   2.493   6.399  1.1541 -0.7678 -1.1485
   93SAPS   C13 9083   5.585   2.505   6.188 -0.4468  0.2875  0.1747
   93SAPS  O13A 9084   5.536   2.514   6.075  0.0794  0.1272 -0.7137
   93SAPS  O13B 9085   5.703   2.457   6.199  0.0703 -0.3180 -0.1709
   93SAPS   C11 9086   5.586   2.692   6.349 -0.1600 -0.3612 -0.0138
   93SAPS  H11A 9087   5.545   2.772   6.284  0.6585 -1.0997 -1.5005
   93SAPS  H11B 9088   5.694   2.682   6.323 -0.6122 -1.9665 -1.5199
   93SAPS     P 9089   5.606   2.877   6.541  0.3747  0.0984  0.0393
   93SAPS   O13 9090   5.553   2.964   6.433 -0.5617  0.1832  0.2107
   93SAPS   O14 9091   5.548   2.884   6.678 -0.6885  0.0040  0.0387
   93SAPS   O12 9092   5.572   2.730   6.488 -0.8549 -0.8959  0.0520
   93SAPS   O11 9093   5.758   2.868   6.546  0.0828 -0.0758 -0.0850
   93SAPS    C1 9094   5.818   2.745   6.575 -0.0497  0.6262 -0.1293
   93SAPS    HA 9095   5.775   2.664   6.513 -0.0742  1.3681 -1.1059
   93SAPS    HB 9096   5.917   2.750   6.525 -0.5208  1.0159 -1.0453
   93SAPS    C2 9097   5.840   2.716   6.721  0.0257  0.1600 -0.4369
   93SAPS    HS 9098   5.738   2.707   6.765  0.0415 -2.3064 -0.7757
   93SAPS   O21 9099   5.907   2.835   6.776  0.2602  0.2076 -0.1034
   93SAPS   C21 9100   5.897   2.844   6.907  0.5536 -0.1067 -0.2291
   93SAPS   O22 9101   5.825   2.782   6.984 -0.3403  0.4438 -0.0067
   93SAPS   C22 9102   5.986   2.960   6.951 -0.2671  0.7189 -0.1999
   93SAPS   H2R 9103   6.077   2.940   6.892  1.2763  0.3396  2.1689
   93SAPS   H2S 9104   5.937   3.055   6.921 -0.6440  0.5995  0.0259
   93SAPS    C3 9105   5.922   2.589   6.736 -0.5236 -0.5361  0.3958
   93SAPS    HX 9106   6.022   2.605   6.690 -0.0603  0.3002  1.6369
   93SAPS    HY 9107   5.874   2.518   6.666  1.1270 -2.1412  0.8084
   93SAPS   O31 9108   5.949   2.539   6.870 -0.8708 -0.0724  0.1411
   93SAPS   C31 9109   5.842   2.493   6.925  0.9472  0.0670  0.0914
   93SAPS   O32 9110   5.734   2.475   6.872 -0.2360 -0.1058 -0.2483
   93SAPS   C32 9111   5.881   2.471   7.073 -0.1720 -0.2232 -0.6731
   93SAPS   H2X 9112   5.934   2.564   7.101  0.7627 -1.0743  0.5006
   93SAPS   H2Y 9113   5.949   2.383   7.083 -0.1567 -0.0849  0.4872
   93SAPS   C23 9114   6.016   2.958   7.100  0.0662 -0.0465  0.0397
   93SAPS   H3R 9115   6.028   2.857   7.145  0.1282  0.6265  1.6091
   93SAPS   H3S 9116   5.932   3.003   7.158  0.3197  0.7512 -0.1935
   93SAPS   C24 9117   6.143   3.038   7.136 -0.2583  0.0201  0.1719
   93SAPS   H4R 9118   6.126   3.136   7.088 -0.7846 -0.9104 -1.6096
   93SAPS   H4S 9119   6.216   2.984   7.072 -0.3241  0.2401 -0.0883
   93SAPS   C25 9120   6.175   3.036   7.281 -0.3149  0.0783  0.0872
   93SAPS   H5R 9121   6.108   3.097   7.343  0.2749 -0.6963  1.5510
   93SAPS   C26 9122   6.259   2.955   7.354  0.0482 -0.8207  0.2032
   93SAPS   H6R 9123   6.269   2.963   7.463 -0.1247 -1.7413  0.2910
   93SAPS   C27 9124   6.344   2.847   7.297  0.7499  0.1920 -0.0847
   93SAPS   H7R 9125   6.410   2.805   7.376 -0.3107 -2.3973 -0.4541
   93SAPS   H7S 9126   6.419   2.905   7.240  3.1425 -3.1086 -0.6336
   93SAPS   C28 9127   6.294   2.722   7.224  0.2144  0.1653  0.4532
   93SAPS   H8R 9128   6.264   2.748   7.121  0.1625  0.8760  0.6390
   93SAPS   C29 9129   6.275   2.597   7.267 -0.2397  0.2423  0.0918
   93SAPS   H9R 9130   6.224   2.522   7.205 -1.3350  0.5401  0.6073
   93SAPS  C210 9131   6.304   2.550   7.410  0.5770 -0.5341 -0.0639
   93SAPS  H10R 9132   6.326   2.628   7.486 -1.1005 -3.6756  4.0237
   93SAPS  H10S 9133   6.396   2.487   7.406  0.2479 -1.2647  2.2698
   93SAPS  C211 9134   6.189   2.465   7.460  0.1875  0.4142 -1.1686
   93SAPS  H11R 9135   6.112   2.431   7.388 -0.8600 -1.4008  0.7093
   93SAPS  C212 9136   6.162   2.441   7.593  0.0109  0.1075  0.3440
   93SAPS  H12R 9137   6.062   2.400   7.610 -1.2886  3.1337  0.5946
   93SAPS  C213 9138   6.247   2.482   7.712  0.1695 -0.0485  0.2669
   93SAPS  H13R 9139   6.209   2.575   7.760  2.3352  0.9063  0.2343
   93SAPS  H13S 9140   6.350   2.510   7.680 -1.4574  3.3722 -2.7678
   93SAPS  C214 9141   6.255   2.368   7.813  0.1679 -0.6165 -0.2324
   93SAPS  H14R 9142   6.338   2.297   7.797  0.9801  0.3676 -0.4837
   93SAPS  C215 9143   6.165   2.353   7.914 -0.6205  0.3650 -0.1268
   93SAPS  H15R 9144   6.178   2.268   7.982  1.5020  1.2550  0.6990
   93SAPS  C216 9145   6.050   2.433   7.963  0.1341 -0.4871  0.0542
   93SAPS  H16R 9146   5.953   2.388   7.931 -0.3330  1.2015 -1.0370
   93SAPS  H16S 9147   6.046   2.531   7.912 -2.4286 -1.6001 -2.1601
   93SAPS  C217 9148   6.045   2.429   8.120 -0.3711 -0.0360  0.1099
   93SAPS  H17R 9149   6.037   2.321   8.141 -0.2633 -0.1227 -0.3017
   93SAPS  H17S 9150   5.949   2.475   8.152 -2.0509 -0.4710 -3.7623
   93SAPS  C218 9151   6.164   2.497   8.191 -0.2979  0.3852  0.0024
   93SAPS  H18R 9152   6.178   2.600   8.152  1.3111  0.8717  1.7120
   93SAPS  H18S 9153   6.252   2.433   8.170 -0.7048 -0.2180  0.1042
   93SAPS  C219 9154   6.138   2.493   8.347 -0.6688  0.0723  0.4466
   93SAPS  H19R 9155   6.118   2.388   8.376 -0.4586  0.2115  1.1004
   93SAPS  H19S 9156   6.048   2.548   8.384 -1.8555 -0.0946 -1.9793
   93SAPS  C220 9157   6.260   2.542   8.419 -0.3617 -0.5353 -0.3834
   93SAPS  H20R 9158   6.329   2.457   8.401  0.0995 -0.3383  0.3904
   93SAPS  H20S 9159   6.250   2.549   8.529 -0.3206 -1.2879 -0.3244
   93SAPS  H20T 9160   6.299   2.634   8.369  0.1989  0.7618  2.2912
   93SAPS   C33 9161   5.765   2.437   7.164 -0.3086  0.5718  0.5471
   93SAPS   H3X 9162   5.752   2.327   7.175  0.1245  0.3892 -0.6101
   93SAPS   H3Y 9163   5.667   2.480   7.134 -0.3527 -0.0335 -0.2019
   93SAPS   C34 9164   5.795   2.487   7.306  0.5044 -0.4915 -0.4299
   93SAPS   H4X 9165   5.899   2.453   7.327  1.1010  0.1827 -2.0866
   93SAPS   H4Y 9166   5.731   2.430   7.377 -1.5087  2.3476  0.2047
   93SAPS   C35 9167   5.761   2.638   7.335 -0.1861 -0.2284 -0.7065
   93SAPS   H5X 9168   5.656   2.658   7.306  0.7312  2.9706 -2.2519
   93SAPS   H5Y 9169   5.825   2.690   7.260 -0.4946 -1.2427 -1.7038
   93SAPS   C36 9170   5.786   2.681   7.487 -0.3456  0.2514  0.3896
   93SAPS   H6X 9171   5.769   2.791   7.488 -0.0857  0.3483  3.7544
   93SAPS   H6Y 9172   5.890   2.658   7.516  0.0520  0.6291 -0.7065
   93SAPS   C37 9173   5.697   2.622   7.590  0.0584  0.5033 -0.3687
   93SAPS   H7X 9174   5.679   2.517   7.556 -0.0401  0.9477 -1.7584
   93SAPS   H7Y 9175   5.597   2.669   7.602 -0.5806 -1.4151  3.3007
   93SAPS   C38 9176   5.746   2.629   7.734 -0.4243  0.1356  0.4150
   93SAPS   H8X 9177   5.782   2.731   7.758  0.8881  0.4749 -2.5119
   93SAPS   H8Y 9178   5.834   2.564   7.753 -2.4229 -2.2753  2.0966
   93SAPS   C39 9179   5.632   2.581   7.832 -0.1479  0.2016 -0.0454
   93SAPS   H9X 9180   5.586   2.490   7.788  0.9407 -0.5825  0.3745
   93SAPS   H9Y 9181   5.551   2.657   7.830  1.1015  1.6488  1.4534
   93SAPS  C310 9182   5.673   2.554   7.974  0.1381 -0.0677  0.0582
   93SAPS  H10X 9183   5.701   2.656   8.008 -1.3363  0.4846 -0.3208
   93SAPS  H10Y 9184   5.758   2.486   7.996 -0.7161 -0.6941  1.5796
   93SAPS  C311 9185   5.561   2.503   8.065  0.2695  0.3915  0.2547
   93SAPS  H11X 9186   5.534   2.399   8.038 -0.5515  0.0399  2.2124
   93SAPS  H11Y 9187   5.472   2.565   8.044 -0.4667  0.0975  2.2301
   93SAPS  C312 9188   5.603   2.514   8.214 -0.0069  0.1912 -0.3725
   93SAPS  H12X 9189   5.642   2.616   8.232  1.3490 -0.9109  4.1977
   93SAPS  H12Y 9190   5.687   2.442   8.221 -0.9334 -0.9387 -0.4594
   93SAPS  C313 9191   5.492   2.484   8.321  0.2014  0.1198  0.1674
   93SAPS  H13X 9192   5.537   2.511   8.419  1.3292  0.1510 -0.3385
   93SAPS  H13Y 9193   5.470   2.375   8.325 -1.2642  0.3832 -0.1596
   93SAPS  C314 9194   5.355   2.554   8.302  0.3159  0.3216  0.0139
   93SAPS  H14X 9195   5.307   2.530   8.205 -2.6532 -1.3509  1.7228
   93SAPS  H14Y 9196   5.363   2.664   8.302  0.5832  0.3018 -0.1184
   93SAPS  C315 9197   5.262   2.513   8.419 -0.0003  0.8814 -0.6046
   93SAPS  H15X 9198   5.174   2.580   8.429  1.0293  3.0613 -4.2246
   93SAPS  H15Y 9199   5.331   2.522   8.507 -0.0414 -0.5665 -0.4057
   93SAPS  C316 9200   5.214   2.373   8.421 -0.0666  0.3785 -0.0719
   93SAPS  H16X 9201   5.297   2.301   8.432 -0.1420  0.4356  0.9459
   93SAPS  H16Y 9202   5.162   2.352   8.325 -1.1000 -1.4990  0.8448
   93SAPS  C317 9203   5.103   2.338   8.518 -0.3190  0.2724 -0.0921
   93SAPS  H17X 9204   5.130   2.382   8.617 -2.3802  1.6620 -0.0839
   93SAPS  H17Y 9205   5.102   2.227   8.525  0.8293  0.1028 -2.1046
   93SAPS  C318 9206   4.961   2.380   8.473 -0.5464 -0.9804  0.5990
   93SAPS  H18X 9207   4.898   2.375   8.564  0.9056 -3.0594  1.5678
   93SAPS  H18Y 9208   4.917   2.305   8.403 -1.5063 -1.6275  1.8515
   93SAPS  H18Z 9209   4.984   2.476   8.422 -0.7917 -0.6031  1.1874
   94SAPS     N 9210   5.230   6.180   6.013 -0.2986  0.2705 -0.2123
   94SAPS   HN1 9211   5.214   6.079   6.034  3.4989  0.0407  2.7515
   94SAPS   HN2 9212   5.231   6.193   5.910 -1.3706  0.6515 -0.1821
   94SAPS   HN3 9213   5.321   6.207   6.055  0.1519 -3.2263  1.4064
   94SAPS   C12 9214   5.128   6.282   6.061  0.3932  0.6609  0.3957
   94SAPS  H12A 9215   5.104   6.250   6.162  0.1832  0.2071  0.2060
   94SAPS   C13 9216   5.189   6.423   6.060  0.0160 -0.1861 -0.3378
   94SAPS  O13A 9217   5.308   6.444   6.035 -0.2898  0.4085  0.5759
   94SAPS  O13B 9218   5.104   6.514   6.072  0.4206 -0.6423  0.4608
   94SAPS   C11 9219   5.008   6.256   5.969  0.2058 -0.6298 -0.7344
   94SAPS  H11A 9220   5.032   6.278   5.863 -0.2527  1.8788 -0.3960
   94SAPS  H11B 9221   4.933   6.333   5.998  0.8651  0.1339 -1.0043
   94SAPS     P 9222   4.798   6.105   6.004  0.1258  0.0504  0.9632
   94SAPS   O13 9223   4.728   6.174   5.891  0.2595 -0.4498  0.2652
   94SAPS   O14 9224   4.759   5.966   6.022  0.2322  0.6319  0.2201
   94SAPS   O12 9225   4.958   6.121   5.985 -0.6744 -0.0744 -0.3632
   94SAPS   O11 9226   4.779   6.178   6.135 -0.0823  0.7175  0.2468
   94SAPS    C1 9227   4.843   6.134   6.256 -0.3371  0.7491 -0.0749
   94SAPS    HA 9228   4.932   6.070   6.236  0.3265  2.1145 -1.8395
   94SAPS    HB 9229   4.867   6.225   6.315 -2.2557  0.5888  1.0028
   94SAPS    C2 9230   4.757   6.047   6.357  0.5898 -0.0959 -0.9106
   94SAPS    HS 9231   4.728   5.952   6.309  1.0613  0.3263 -2.0588
   94SAPS   O21 9232   4.651   6.128   6.420 -0.1818  0.1874 -0.2022
   94SAPS   C21 9233   4.552   6.140   6.334 -0.2204  0.6829  0.7363
   94SAPS   O22 9234   4.524   6.068   6.239 -0.4327 -0.2191  0.0257
   94SAPS   C22 9235   4.455   6.251   6.383 -0.4735  0.5382 -0.3526
   94SAPS   H2R 9236   4.482   6.269   6.489  0.5764  0.8059 -0.6562
   94SAPS   H2S 9237   4.479   6.346   6.332  1.5782 -0.5957 -1.6072
   94SAPS    C3 9238   4.857   6.012   6.466  0.3076  0.1314 -0.4542
   94SAPS    HX 9239   4.849   6.103   6.529 -2.8567  1.1050 -2.0459
   94SAPS    HY 9240   4.961   5.997   6.430  0.7135 -0.0687  0.7471
   94SAPS   O31 9241   4.824   5.886   6.537  0.2072  0.0098 -0.8625
   94SAPS   C31 9242   4.824   5.889   6.666  0.1361 -0.7173  1.4433
   94SAPS   O32 9243   4.853   5.985   6.731 -0.0125 -0.3471 -0.4091
   94SAPS   C32 9244   4.787   5.759   6.729 -0.3005  0.5257 -0.9873
   94SAPS   H2X 9245   4.871   5.687   6.716  2.3450  3.1620  0.0951
   94SAPS   H2Y 9246   4.698   5.720   6.675 -1.5918 -1.4241  2.2375
   94SAPS   C23 9247   4.306   6.212   6.370 -1.0590  0.2944  0.0454
   94SAPS   H3R 9248   4.295   6.170   6.268  3.7560  1.1188 -1.0686
   94SAPS   H3S 9249   4.239   6.299   6.384 -1.0183  0.2446  0.6089
   94SAPS   C24 9250   4.253   6.114   6.480  0.1494  0.3499 -0.7146
   94SAPS   H4R 9251   4.144   6.105   6.458  0.6017  0.8208 -3.5455
   94SAPS   H4S 9252   4.269   6.164   6.578  0.4881  0.4081 -0.7989
   94SAPS   C25 9253   4.308   5.973   6.474 -1.2417  0.8137  0.0571
   94SAPS   H5R 9254   4.300   5.931   6.373  4.3518 -1.6451  0.2476
   94SAPS   C26 9255   4.373   5.909   6.574  0.8006  0.1521  0.0364
   94SAPS   H6R 9256   4.400   5.803   6.569 -1.9506 -0.6503  0.6365
   94SAPS   C27 9257   4.408   5.949   6.712  0.1621 -1.0510  0.9856
   94SAPS   H7R 9258   4.448   5.861   6.766  1.0135 -1.2115  0.1151
   94SAPS   H7S 9259   4.315   5.971   6.770  1.1570  0.8713  1.9723
   94SAPS   C28 9260   4.499   6.067   6.719  0.2364 -0.4478  0.1494
   94SAPS   H8R 9261   4.563   6.090   6.633  0.6788  0.0995  0.6160
   94SAPS   C29 9262   4.517   6.154   6.819  0.1885 -0.6488 -0.4456
   94SAPS   H9R 9263   4.569   6.250   6.801 -2.5868  1.1506  0.4339
   94SAPS  C210 9264   4.441   6.147   6.955 -0.1665  0.0292  0.7909
   94SAPS  H10R 9265   4.344   6.095   6.943  0.0542 -0.5399  1.3739
   94SAPS  H10S 9266   4.421   6.252   6.984  2.0530  1.5442 -2.4822
   94SAPS  C211 9267   4.514   6.076   7.066 -0.2535  0.4178  0.0195
   94SAPS  H11R 9268   4.565   5.986   7.029 -1.9468 -1.4033  1.8050
   94SAPS  C212 9269   4.505   6.088   7.196  0.1202  0.9298 -0.4203
   94SAPS  H12R 9270   4.575   6.022   7.248 -0.9464 -0.0160 -0.1604
   94SAPS  C213 9271   4.410   6.190   7.263 -0.3588 -0.0183 -0.2784
   94SAPS  H13R 9272   4.326   6.135   7.310  1.0156 -1.6319  0.4411
   94SAPS  H13S 9273   4.367   6.267   7.197 -0.7102  1.3717  1.4909
   94SAPS  C214 9274   4.487   6.265   7.369  0.1773  0.7318 -0.4110
   94SAPS  H14R 9275   4.592   6.284   7.344  0.7905 -3.9625 -2.4720
   94SAPS  C215 9276   4.443   6.303   7.493  0.9410 -0.2782  0.4962
   94SAPS  H15R 9277   4.513   6.361   7.554  2.1583 -0.8741 -0.2911
   94SAPS  C216 9278   4.306   6.271   7.556  0.1671  0.2885 -0.0673
   94SAPS  H16R 9279   4.321   6.206   7.645  2.5434  0.8604  0.0092
   94SAPS  H16S 9280   4.244   6.212   7.485  2.6407 -3.5831  0.6796
   94SAPS  C217 9281   4.224   6.389   7.601 -0.2329 -0.0009  0.2504
   94SAPS  H17R 9282   4.115   6.366   7.598 -0.4291  1.0197 -2.0876
   94SAPS  H17S 9283   4.242   6.479   7.539  0.7979  0.9490  1.8590
   94SAPS  C218 9284   4.263   6.435   7.747 -0.2259  0.1249  0.7997
   94SAPS  H18R 9285   4.369   6.468   7.750  0.0517 -0.5409 -0.6246
   94SAPS  H18S 9286   4.258   6.355   7.824  2.8599  1.4540  2.5573
   94SAPS  C219 9287   4.172   6.550   7.801 -0.4264  0.3112 -0.1636
   94SAPS  H19R 9288   4.088   6.494   7.850 -1.2008  0.3736 -1.3875
   94SAPS  H19S 9289   4.131   6.613   7.720 -0.1871 -0.5164 -0.9420
   94SAPS  C220 9290   4.239   6.625   7.914  0.0074 -0.3001 -0.9709
   94SAPS  H20R 9291   4.234   6.568   8.009  0.7795  0.3457 -0.5261
   94SAPS  H20S 9292   4.169   6.706   7.945 -0.1799 -1.2147  1.1268
   94SAPS  H20T 9293   4.340   6.667   7.894 -0.2363 -0.1231 -1.9053
   94SAPS   C33 9294   4.759   5.771   6.883 -0.5437 -0.5851 -0.2421
   94SAPS   H3X 9295   4.685   5.850   6.907  0.3069 -0.1595  1.0756
   94SAPS   H3Y 9296   4.851   5.809   6.933 -0.6211  1.7098 -1.7244
   94SAPS   C34 9297   4.712   5.637   6.939  0.7479  1.2425  0.4194
   94SAPS   H4X 9298   4.790   5.561   6.917 -0.4095  0.0049  0.4831
   94SAPS   H4Y 9299   4.621   5.606   6.883  1.6769 -2.1220  0.5685
   94SAPS   C35 9300   4.690   5.625   7.088  0.2921  0.3786  0.0573
   94SAPS   H5X 9301   4.782   5.635   7.151  0.5110 -0.8019 -0.0390
   94SAPS   H5Y 9302   4.636   5.530   7.108 -1.5650  0.7289 -2.8453
   94SAPS   C36 9303   4.594   5.736   7.135 -0.8023 -0.0681 -0.3111
   94SAPS   H6X 9304   4.516   5.748   7.057  0.1452  0.2254 -1.2338
   94SAPS   H6Y 9305   4.651   5.832   7.134 -0.9729  0.0398  0.1835
   94SAPS   C37 9306   4.542   5.721   7.286  0.5887  1.0404  0.4385
   94SAPS   H7X 9307   4.504   5.618   7.300  2.9321  0.2449  1.3325
   94SAPS   H7Y 9308   4.457   5.793   7.299  1.3830  1.6117  3.1234
   94SAPS   C38 9309   4.654   5.753   7.381 -0.3530  0.0553 -0.6868
   94SAPS   H8X 9310   4.702   5.850   7.354 -0.0555 -0.1150 -0.7702
   94SAPS   H8Y 9311   4.720   5.664   7.375 -1.7245 -0.9529 -1.4981
   94SAPS   C39 9312   4.616   5.757   7.530 -0.9102  0.4280  0.1783
   94SAPS   H9X 9313   4.708   5.722   7.582 -0.3403  2.1747  0.3882
   94SAPS   H9Y 9314   4.539   5.678   7.548 -1.1047 -0.4080 -3.4059
   94SAPS  C310 9315   4.589   5.896   7.593  0.4030 -0.1125 -0.0375
   94SAPS  H10X 9316   4.485   5.934   7.584 -0.1585 -1.8677 -1.7898
   94SAPS  H10Y 9317   4.664   5.967   7.552 -0.3174  1.1186  0.7317
   94SAPS  C311 9318   4.596   5.909   7.753  0.2484 -0.3059  0.0176
   94SAPS  H11X 9319   4.692   5.867   7.792  0.1904 -1.2076 -0.7869
   94SAPS  H11Y 9320   4.510   5.854   7.796  0.9648 -1.4795 -0.0018
   94SAPS  C312 9321   4.588   6.058   7.794  0.5053 -0.5048  1.1610
   94SAPS  H12X 9322   4.500   6.103   7.745  1.4152  0.0966  0.0223
   94SAPS  H12Y 9323   4.680   6.111   7.762  0.8318 -0.0500  2.7580
   94SAPS  C313 9324   4.574   6.071   7.946 -0.0253  0.1051  0.6222
   94SAPS  H13X 9325   4.650   6.011   7.999  1.2385  2.0877  1.1676
   94SAPS  H13Y 9326   4.471   6.039   7.973 -0.6875  1.0918 -0.6206
   94SAPS  C314 9327   4.570   6.216   7.981  0.1910 -0.3983 -0.8578
   94SAPS  H14X 9328   4.482   6.276   7.951  0.3986  2.2717  3.0442
   94SAPS  H14Y 9329   4.657   6.257   7.924  1.2211  0.6291  1.2973
   94SAPS  C315 9330   4.600   6.239   8.128  0.5982  0.5505 -0.0390
   94SAPS  H15X 9331   4.693   6.184   8.154  0.8708  1.2019  0.3894
   94SAPS  H15Y 9332   4.517   6.202   8.192 -0.7862  1.3545 -1.2872
   94SAPS  C316 9333   4.622   6.385   8.154  0.2243 -0.1344  0.0337
   94SAPS  H16X 9334   4.534   6.438   8.111 -0.5285 -0.3334  1.2498
   94SAPS  H16Y 9335   4.714   6.410   8.097 -1.1919  0.1366 -2.2538
   94SAPS  C317 9336   4.646   6.411   8.302  0.1861 -0.4742  0.1850
   94SAPS  H17X 9337   4.745   6.364   8.320  0.9906  0.5978 -1.2242
   94SAPS  H17Y 9338   4.560   6.370   8.360 -1.1023 -0.3508 -1.5392
   94SAPS  C318 9339   4.649   6.563   8.332 -0.1087 -0.3382  0.6855
   94SAPS  H18X 9340   4.549   6.612   8.328  0.3493  0.5929  0.0287
   94SAPS  H18Y 9341   4.716   6.617   8.261  0.1943 -2.7550 -0.9766
   94SAPS  H18Z 9342   4.683   6.577   8.437  1.6767 -0.1428  0.1187
   95SAPS     N 9343   2.606   3.477   6.274 -0.3878 -0.2175  0.1723
   95SAPS   HN1 9344   2.700   3.436   6.255 -1.3656 -1.6953 -1.8367
   95SAPS   HN2 9345   2.609   3.512   6.372 -1.1216  1.9147 -0.5084
   95SAPS   HN3 9346   2.533   3.407   6.252  0.2434 -0.4164 -1.4639
   95SAPS   C12 9347   2.595   3.597   6.182  0.4605 -0.2810 -0.8224
   95SAPS  H12A 9348   2.685   3.655   6.194  1.2007 -1.7643  1.4489
   95SAPS   C13 9349   2.571   3.564   6.037 -0.0014  0.1605 -0.0116
   95SAPS  O13A 9350   2.529   3.447   6.014  0.2630 -0.5958 -0.0525
   95SAPS  O13B 9351   2.546   3.651   5.952  0.1862  0.4147  0.1353
   95SAPS   C11 9352   2.478   3.677   6.243 -0.5325  0.3762  0.3458
   95SAPS  H11A 9353   2.390   3.611   6.262 -0.3255 -0.7543 -2.2515
   95SAPS  H11B 9354   2.454   3.758   6.172 -1.9096 -2.9369 -3.3328
   95SAPS     P 9355   2.451   3.846   6.455 -0.3434  0.3909 -0.2174
   95SAPS   O13 9356   2.536   3.968   6.432  0.0556 -0.3533 -0.3524
   95SAPS   O14 9357   2.306   3.855   6.422 -0.1207 -0.1390  0.2131
   95SAPS   O12 9358   2.517   3.719   6.378 -0.2836  0.1377 -0.4299
   95SAPS   O11 9359   2.476   3.786   6.607  0.1095  0.1696 -0.0015
   95SAPS    C1 9360   2.607   3.781   6.663 -0.3376  0.0314  0.0649
   95SAPS    HA 9361   2.656   3.681   6.652  0.1714  0.4256 -1.5068
   95SAPS    HB 9362   2.674   3.843   6.601 -2.8811  0.3585 -2.5720
   95SAPS    C2 9363   2.605   3.868   6.804  0.4405  0.8025 -0.0822
   95SAPS    HS 9364   2.709   3.850   6.839  0.0416  1.3254  1.4322
   95SAPS   O21 9365   2.514   3.805   6.893  0.3585  0.2382 -0.1585
   95SAPS   C21 9366   2.559   3.702   6.956 -0.7722  0.0412  0.1766
   95SAPS   O22 9367   2.679   3.661   6.968 -0.4216 -0.1689  0.2085
   95SAPS   C22 9368   2.437   3.621   7.004 -0.0556  0.2603 -0.0162
   95SAPS   H2R 9369   2.403   3.683   7.089 -0.1324  0.5062 -0.2235
   95SAPS   H2S 9370   2.358   3.629   6.926  0.0954 -0.4410 -0.2494
   95SAPS    C3 9371   2.585   4.018   6.793  0.6321 -0.1592 -0.2285
   95SAPS    HX 9372   2.481   4.037   6.756  0.0552  1.9508  2.1945
   95SAPS    HY 9373   2.665   4.065   6.732  0.9388  0.3435  0.5471
   95SAPS   O31 9374   2.598   4.072   6.933 -0.9576  0.0861  0.6165
   95SAPS   C31 9375   2.565   4.194   6.955 -1.2001 -0.0256  0.1231
   95SAPS   O32 9376   2.507   4.266   6.879  0.2195  0.1025  0.0406
   95SAPS   C32 9377   2.596   4.236   7.101  0.0557  0.6133  0.0206
   95SAPS   H2X 9378   2.704   4.221   7.117 -0.0052 -0.0329 -0.1168
   95SAPS   H2Y 9379   2.542   4.163   7.165 -0.4104  0.2949 -0.7146
   95SAPS   C23 9380   2.450   3.478   7.052  0.4180 -0.0548 -0.2959
   95SAPS   H3R 9381   2.529   3.483   7.130 -1.2730  2.0821  1.4073
   95SAPS   H3S 9382   2.469   3.407   6.969 -0.2208 -0.2728 -0.2653
   95SAPS   C24 9383   2.317   3.433   7.116 -0.5768 -0.7060  0.2918
   95SAPS   H4R 9384   2.237   3.440   7.039 -2.1757  0.4880  1.9898
   95SAPS   H4S 9385   2.283   3.504   7.194 -0.7989  1.8740 -2.0157
   95SAPS   C25 9386   2.342   3.295   7.170 -0.6346 -0.4662 -0.0956
   95SAPS   H5R 9387   2.326   3.217   7.094  1.7956 -0.0583 -1.1259
   95SAPS   C26 9388   2.383   3.261   7.294  0.5152  0.2356  0.3482
   95SAPS   H6R 9389   2.397   3.156   7.320  1.9428 -0.5887 -3.1175
   95SAPS   C27 9390   2.403   3.353   7.414  0.0021 -0.6900 -0.5149
   95SAPS   H7R 9391   2.467   3.437   7.380 -1.6435  1.0703  0.5663
   95SAPS   H7S 9392   2.453   3.306   7.501 -2.7547 -1.0477  1.0233
   95SAPS   C28 9393   2.273   3.424   7.466 -0.3577  0.3970 -0.2072
   95SAPS   H8R 9394   2.210   3.464   7.385 -2.1613 -1.7410  0.0385
   95SAPS   C29 9395   2.236   3.432   7.599 -0.8961  0.1653 -0.0771
   95SAPS   H9R 9396   2.143   3.489   7.616 -0.7304 -0.0104  1.5856
   95SAPS  C210 9397   2.311   3.377   7.715 -0.0531 -0.8418 -0.7598
   95SAPS  H10R 9398   2.391   3.304   7.692  1.3040 -0.1130  1.3541
   95SAPS  H10S 9399   2.237   3.314   7.768  0.4944 -1.8838 -1.2192
   95SAPS  C211 9400   2.366   3.475   7.827 -0.0543 -0.3243  0.1893
   95SAPS  H11R 9401   2.475   3.491   7.824 -0.2498  1.1318  0.2820
   95SAPS  C212 9402   2.296   3.519   7.936 -0.0088 -0.5794 -0.3433
   95SAPS  H12R 9403   2.352   3.590   8.000  1.0048 -1.2036 -0.5238
   95SAPS  C213 9404   2.149   3.500   7.980 -0.3553  0.0348  0.0154
   95SAPS  H13R 9405   2.096   3.426   7.916 -0.9524 -1.4675  2.1394
   95SAPS  H13S 9406   2.100   3.596   7.952  0.1828  0.2815 -0.0966
   95SAPS  C214 9407   2.137   3.465   8.129  0.1899  0.6217  0.5212
   95SAPS  H14R 9408   2.217   3.488   8.201 -0.5849 -1.4169  2.1413
   95SAPS  C215 9409   2.042   3.390   8.181  0.3682 -0.4214  0.4982
   95SAPS  H15R 9410   2.044   3.385   8.291  0.2514  0.2915  0.5360
   95SAPS  C216 9411   1.911   3.340   8.113  0.5160  0.1045  0.6724
   95SAPS  H16R 9412   1.877   3.417   8.041 -1.4619 -0.8092  0.5915
   95SAPS  H16S 9413   1.830   3.323   8.187 -0.4144  2.5076  0.3040
   95SAPS  C217 9414   1.932   3.204   8.041 -0.1092 -0.5600  0.4051
   95SAPS  H17R 9415   1.941   3.115   8.107 -0.4032  0.3729  1.7468
   95SAPS  H17S 9416   2.019   3.219   7.973  0.1255  2.5866  1.2281
   95SAPS  C218 9417   1.813   3.164   7.939  0.2476  0.2481  0.8630
   95SAPS  H18R 9418   1.830   3.064   7.894 -1.0264  0.6697 -0.6550
   95SAPS  H18S 9419   1.807   3.241   7.859 -0.1172 -0.5257  0.1356
   95SAPS  C219 9420   1.679   3.169   8.001  0.3855 -0.3412  0.7465
   95SAPS  H19R 9421   1.660   3.270   8.041  1.4782  1.3781 -2.6824
   95SAPS  H19S 9422   1.661   3.088   8.075  0.7938 -0.3542  0.8391
   95SAPS  C220 9423   1.566   3.150   7.892  0.4657 -0.0179 -0.0218
   95SAPS  H20R 9424   1.600   3.089   7.806  0.8621  0.1246  0.0319
   95SAPS  H20S 9425   1.522   3.245   7.857 -1.5476 -0.3215  1.5001
   95SAPS  H20T 9426   1.486   3.091   7.942  0.1494  0.5046  0.0860
   95SAPS   C33 9427   2.565   4.383   7.124 -0.5104  0.3717  0.4086
   95SAPS   H3X 9428   2.460   4.395   7.091 -0.1039 -0.3211 -1.2424
   95SAPS   H3Y 9429   2.628   4.450   7.061  0.4492 -1.1638 -0.3498
   95SAPS   C34 9430   2.590   4.429   7.267  0.1502  0.3033 -0.0660
   95SAPS   H4X 9431   2.570   4.538   7.272  1.6104  0.6380 -0.7187
   95SAPS   H4Y 9432   2.699   4.421   7.290 -0.0755  1.3537  1.5195
   95SAPS   C35 9433   2.516   4.349   7.377 -0.1502  1.0240 -0.0441
   95SAPS   H5X 9434   2.544   4.242   7.384 -3.1203  0.2454  1.4225
   95SAPS   H5Y 9435   2.410   4.344   7.344  0.0879 -1.3066 -0.6339
   95SAPS   C36 9436   2.531   4.407   7.515  0.1337 -0.7527  0.7768
   95SAPS   H6X 9437   2.497   4.510   7.492  0.2790 -1.2355 -1.9731
   95SAPS   H6Y 9438   2.635   4.404   7.553 -0.5629 -1.8643  2.7006
   95SAPS   C37 9439   2.440   4.353   7.627 -0.1398 -0.4308 -0.1513
   95SAPS   H7X 9440   2.476   4.248   7.643  1.7720  0.3771  1.2389
   95SAPS   H7Y 9441   2.340   4.343   7.579 -0.1878 -1.7498  0.1690
   95SAPS   C38 9442   2.448   4.429   7.763  0.5671  0.7892 -0.0780
   95SAPS   H8X 9443   2.439   4.539   7.748 -0.6423  0.5990 -0.8678
   95SAPS   H8Y 9444   2.543   4.407   7.817 -0.0773  0.0298  0.7845
   95SAPS   C39 9445   2.340   4.391   7.874 -0.9306 -0.1851  0.6569
   95SAPS   H9X 9446   2.330   4.281   7.871 -2.0257 -0.0787 -0.3725
   95SAPS   H9Y 9447   2.238   4.427   7.850 -1.5479 -0.5509  2.5649
   95SAPS  C310 9448   2.363   4.448   8.013  0.8333  0.1247  0.1268
   95SAPS  H10X 9449   2.391   4.555   7.998  2.0370 -0.1015  0.6145
   95SAPS  H10Y 9450   2.451   4.407   8.067  3.0489  3.3205 -0.7603
   95SAPS  C311 9451   2.242   4.448   8.104 -0.5758 -0.2839 -0.3860
   95SAPS  H11X 9452   2.187   4.353   8.090  0.1999 -0.8520  0.3111
   95SAPS  H11Y 9453   2.172   4.530   8.077  0.5748 -0.1135 -3.1667
   95SAPS  C312 9454   2.283   4.443   8.258  0.7773 -0.3594  0.1827
   95SAPS  H12X 9455   2.322   4.545   8.278  0.3001 -0.1825  0.2238
   95SAPS  H12Y 9456   2.359   4.362   8.261 -0.2414 -1.3354  0.3630
   95SAPS  C313 9457   2.162   4.383   8.344  0.5182 -0.2236 -1.0030
   95SAPS  H13X 9458   2.154   4.286   8.292 -3.8100  0.3962 -1.8414
   95SAPS  H13Y 9459   2.066   4.436   8.325 -0.9834 -1.8717  1.5302
   95SAPS  C314 9460   2.194   4.377   8.489 -0.0705 -0.4858  0.0012
   95SAPS  H14X 9461   2.171   4.479   8.528  1.2151  0.7867 -2.3344
   95SAPS  H14Y 9462   2.298   4.350   8.517 -0.3009  0.2228  1.6354
   95SAPS  C315 9463   2.106   4.278   8.567  0.2551 -0.6583  0.6006
   95SAPS  H15X 9464   2.122   4.177   8.523 -2.0852 -0.7107 -0.2598
   95SAPS  H15Y 9465   2.000   4.304   8.549  0.7589  0.8964 -0.3387
   95SAPS  C316 9466   2.122   4.279   8.715 -0.6830  0.0030 -0.5677
   95SAPS  H16X 9467   2.036   4.219   8.752 -0.1973  0.5892  1.6926
   95SAPS  H16Y 9468   2.111   4.379   8.760 -0.0038 -0.0484 -0.2710
   95SAPS  C317 9469   2.257   4.219   8.764 -0.7524 -0.6374  0.4892
   95SAPS  H17X 9470   2.345   4.274   8.723 -1.2818 -0.4820 -0.4807
   95SAPS  H17Y 9471   2.263   4.121   8.711  1.8803  0.2041 -0.9373
   95SAPS  C318 9472   2.287   4.202   8.916 -0.0844  0.0638  0.0459
   95SAPS  H18X 9473   2.207   4.144   8.967 -1.9000  1.2229 -1.3650
   95SAPS  H18Y 9474   2.292   4.306   8.955  0.3222 -0.0088  0.1956
   95SAPS  H18Z 9475   2.386   4.153   8.933 -0.3551 -0.4473  0.1807
   96SAPS     N 9476   3.205   5.111   6.389 -0.0244  0.4846  0.1425
   96SAPS   HN1 9477   3.297   5.150   6.362 -0.3768  1.5816  0.4275
   96SAPS   HN2 9478   3.133   5.152   6.325 -0.2024 -0.0629 -0.0091
   96SAPS   HN3 9479   3.172   5.144   6.483 -0.6129  0.0478  0.0936
   96SAPS   C12 9480   3.209   4.960   6.378  0.0778  0.4573  0.0362
   96SAPS  H12A 9481   3.132   4.908   6.433  2.0322 -2.3868  0.3395
   96SAPS   C13 9482   3.221   4.897   6.232  0.9773  0.3973 -0.4146
   96SAPS  O13A 9483   3.199   4.969   6.135  0.6483 -0.0876  0.4337
   96SAPS  O13B 9484   3.209   4.774   6.221 -0.2487  0.2944  0.0895
   96SAPS   C11 9485   3.344   4.920   6.445 -0.3006 -0.5890 -0.2189
   96SAPS  H11A 9486   3.359   4.810   6.434  0.3349 -0.3942 -1.5221
   96SAPS  H11B 9487   3.326   4.944   6.552 -1.4136  0.7614 -0.6691
   96SAPS     P 9488   3.600   4.920   6.360  0.2157 -0.2069  0.0800
   96SAPS   O13 9489   3.593   4.834   6.246 -0.5350  0.0490 -0.1054
   96SAPS   O14 9490   3.709   5.015   6.357 -0.0082 -0.1925  0.0814
   96SAPS   O12 9491   3.464   4.990   6.407 -0.4981  0.0868 -0.2541
   96SAPS   O11 9492   3.623   4.828   6.485 -0.2999 -0.1534 -0.1953
   96SAPS    C1 9493   3.649   4.889   6.612  0.1134  0.0163  1.0696
   96SAPS    HA 9494   3.713   4.980   6.603  0.2119  0.1371  2.7628
   96SAPS    HB 9495   3.554   4.933   6.651  0.7288  2.0974  0.3795
   96SAPS    C2 9496   3.715   4.786   6.696 -0.0728 -0.1235 -0.3141
   96SAPS    HS 9497   3.653   4.694   6.699 -1.0191  0.4024 -2.2523
   96SAPS   O21 9498   3.739   4.849   6.826  0.3331 -0.5811 -0.2204
   96SAPS   C21 9499   3.648   4.819   6.911  0.2315  0.7606 -0.7206
   96SAPS   O22 9500   3.539   4.759   6.895 -0.1243  0.3341  0.2456
   96SAPS   C22 9501   3.686   4.869   7.048 -0.1925  0.1681  0.3115
   96SAPS   H2R 9502   3.790   4.909   7.057  0.0241 -0.5223  0.9550
   96SAPS   H2S 9503   3.617   4.953   7.069 -1.6437 -1.0050  0.4331
   96SAPS    C3 9504   3.848   4.753   6.636 -0.1465  0.6833 -0.0794
   96SAPS    HX 9505   3.890   4.855   6.621 -0.4566  0.7105 -0.8038
   96SAPS    HY 9506   3.837   4.694   6.542  0.9088 -0.3377  0.4151
   96SAPS   O31 9507   3.925   4.685   6.739 -0.4381  0.3152  0.8220
   96SAPS   C31 9508   4.025   4.622   6.697 -0.2271  0.4895  0.0684
   96SAPS   O32 9509   4.071   4.637   6.579 -0.4624 -0.5673 -1.1581
   96SAPS   C32 9510   4.091   4.550   6.820 -0.0768 -0.0465 -0.3276
   96SAPS   H2X 9511   4.181   4.609   6.847  0.2488  0.4427 -2.3660
   96SAPS   H2Y 9512   4.131   4.449   6.794 -0.5353 -0.3301  0.0324
   96SAPS   C23 9513   3.668   4.759   7.161  0.7178 -0.2648  0.5779
   96SAPS   H3R 9514   3.734   4.675   7.132  0.4276 -0.9293  1.8047
   96SAPS   H3S 9515   3.562   4.726   7.160  0.6775 -0.1622  1.0952
   96SAPS   C24 9516   3.687   4.815   7.306 -0.2692  0.1836  0.5692
   96SAPS   H4R 9517   3.630   4.910   7.314  1.1976  1.4315 -2.3774
   96SAPS   H4S 9518   3.790   4.855   7.305 -0.5594  1.0525 -2.0220
   96SAPS   C25 9519   3.665   4.707   7.408  0.6658 -0.4129 -0.1936
   96SAPS   H5R 9520   3.573   4.650   7.389  0.0261  0.3444  0.5364
   96SAPS   C26 9521   3.712   4.702   7.532 -0.2496 -0.6902 -0.4333
   96SAPS   H6R 9522   3.681   4.622   7.601 -3.2049  1.3121  0.7341
   96SAPS   C27 9523   3.821   4.799   7.581 -0.4014 -0.4616  0.2083
   96SAPS   H7R 9524   3.780   4.902   7.585 -0.3286 -0.3805 -0.9291
   96SAPS   H7S 9525   3.908   4.792   7.512 -0.7100  1.6177 -0.4357
   96SAPS   C28 9526   3.862   4.770   7.724  0.2721 -0.3374 -0.3549
   96SAPS   H8R 9527   3.958   4.721   7.742  2.3632  3.2905 -0.6763
   96SAPS   C29 9528   3.788   4.787   7.841 -0.6252  0.4612  0.0826
   96SAPS   H9R 9529   3.843   4.770   7.935  0.7976  0.1865 -0.7669
   96SAPS  C210 9530   3.642   4.840   7.852  1.0346 -0.0747 -0.4415
   96SAPS  H10R 9531   3.594   4.868   7.756 -1.1134  1.3074  0.9637
   96SAPS  H10S 9532   3.633   4.913   7.935  2.4608 -2.0548  1.5948
   96SAPS  C211 9533   3.573   4.710   7.902 -0.4575 -0.1196 -0.1463
   96SAPS  H11R 9534   3.545   4.654   7.812  1.2201 -0.8701 -0.2254
   96SAPS  C212 9535   3.576   4.650   8.027 -0.5457  0.2773  0.5879
   96SAPS  H12R 9536   3.533   4.550   8.042  0.8582 -0.4028  0.2443
   96SAPS  C213 9537   3.630   4.704   8.157 -0.0375 -0.2939 -0.9310
   96SAPS  H13R 9538   3.714   4.774   8.140  0.6654 -0.4720  1.4381
   96SAPS  H13S 9539   3.678   4.621   8.212  4.1974  1.8419 -1.0572
   96SAPS  C214 9540   3.526   4.771   8.250 -0.5146  0.2004 -0.5843
   96SAPS  H14R 9541   3.509   4.878   8.233  1.3949  0.6673  0.1710
   96SAPS  C215 9542   3.469   4.710   8.355 -0.8076 -0.2857  0.1817
   96SAPS  H15R 9543   3.398   4.776   8.405  0.9008  0.0382  2.3342
   96SAPS  C216 9544   3.493   4.568   8.397  0.1302  0.1852  0.1111
   96SAPS  H16R 9545   3.544   4.514   8.314 -1.0279  0.3207 -0.7254
   96SAPS  H16S 9546   3.398   4.512   8.413 -0.5497  0.4713 -2.4119
   96SAPS  C217 9547   3.580   4.556   8.530  0.4209  0.4351  0.1466
   96SAPS  H17R 9548   3.575   4.449   8.560  2.8541  0.4613  0.8911
   96SAPS  H17S 9549   3.545   4.620   8.614 -1.7442 -1.4306  0.7789
   96SAPS  C218 9550   3.726   4.583   8.510 -0.9130  0.9267  0.1476
   96SAPS  H18R 9551   3.757   4.549   8.408 -1.5379 -0.5435  0.4186
   96SAPS  H18S 9552   3.788   4.511   8.568 -2.0891  0.8508  1.3521
   96SAPS  C219 9553   3.766   4.724   8.556 -0.0455  0.1283 -0.1135
   96SAPS  H19R 9554   3.712   4.756   8.648  0.5239  1.3437 -0.1758
   96SAPS  H19S 9555   3.720   4.783   8.474 -0.6981 -1.4355 -0.9173
   96SAPS  C220 9556   3.917   4.753   8.562 -0.0730 -0.1085 -0.1142
   96SAPS  H20R 9557   3.971   4.699   8.481 -0.3574 -0.0872 -0.3208
   96SAPS  H20S 9558   3.964   4.707   8.651  1.9791  1.3547 -0.3561
   96SAPS  H20T 9559   3.941   4.861   8.571 -2.3535  0.2908  2.7741
   96SAPS   C33 9560   4.002   4.514   6.932 -1.2815 -0.5639 -0.4266
   96SAPS   H3X 9561   3.922   4.442   6.903  0.1046 -2.2019 -0.3332
   96SAPS   H3Y 9562   3.954   4.611   6.957 -0.1199 -0.1794  0.4410
   96SAPS   C34 9563   4.075   4.458   7.061 -0.7839  0.1224 -0.5993
   96SAPS   H4X 9564   4.160   4.528   7.081 -0.6467  0.6978 -2.9115
   96SAPS   H4Y 9565   4.116   4.358   7.034 -1.5288  0.1962 -2.1232
   96SAPS   C35 9566   3.975   4.444   7.176 -0.4287  0.6344 -0.4226
   96SAPS   H5X 9567   3.890   4.376   7.155 -0.7852 -0.3030  3.3325
   96SAPS   H5Y 9568   3.932   4.545   7.196 -1.2666 -0.0020  1.1294
   96SAPS   C36 9569   4.036   4.410   7.318  0.1324 -0.0869  0.0360
   96SAPS   H6X 9570   4.122   4.478   7.334  0.6902 -1.1957  2.0505
   96SAPS   H6Y 9571   4.078   4.308   7.309 -2.2416 -1.1260 -0.0689
   96SAPS   C37 9572   3.940   4.424   7.439  0.1308 -0.3132 -0.4927
   96SAPS   H7X 9573   3.853   4.355   7.435  0.8392 -1.4874  2.0996
   96SAPS   H7Y 9574   3.908   4.530   7.450 -2.9975 -1.3314  1.4190
   96SAPS   C38 9575   4.010   4.379   7.568  0.3780  0.2673  0.2370
   96SAPS   H8X 9576   4.101   4.443   7.568  0.6475 -0.0517  2.2166
   96SAPS   H8Y 9577   4.048   4.276   7.551 -0.6670 -0.0358 -0.4059
   96SAPS   C39 9578   3.940   4.383   7.700 -0.2708 -0.2708 -0.1014
   96SAPS   H9X 9579   3.841   4.335   7.688  0.2453 -1.0852 -1.2202
   96SAPS   H9Y 9580   3.932   4.492   7.719  1.5747 -0.3317  1.3799
   96SAPS  C310 9581   4.018   4.325   7.817 -0.0182 -0.5260  0.4452
   96SAPS  H10X 9582   4.118   4.374   7.819 -0.6452  0.7775  1.4437
   96SAPS  H10Y 9583   4.031   4.217   7.795  0.6347 -0.3858  0.1040
   96SAPS  C311 9584   3.947   4.344   7.951  0.3246 -0.9723 -0.2152
   96SAPS  H11X 9585   3.887   4.438   7.953 -0.2830 -1.3684  1.2089
   96SAPS  H11Y 9586   4.029   4.353   8.025 -1.1481  1.0257  1.3139
   96SAPS  C312 9587   3.842   4.235   7.984 -0.2064  0.4401 -0.1116
   96SAPS  H12X 9588   3.897   4.146   8.020 -2.0969 -0.0015  1.8645
   96SAPS  H12Y 9589   3.803   4.206   7.884  1.5082  2.4551 -1.4728
   96SAPS  C313 9590   3.739   4.269   8.088 -0.3489 -0.0355 -0.2815
   96SAPS  H13X 9591   3.660   4.192   8.077  0.4714 -1.0996  0.9086
   96SAPS  H13Y 9592   3.695   4.365   8.056  0.6915  1.5013  2.5117
   96SAPS  C314 9593   3.780   4.278   8.237 -0.3970 -0.1866  0.5020
   96SAPS  H14X 9594   3.691   4.302   8.300 -0.9306 -0.9875  0.0746
   96SAPS  H14Y 9595   3.861   4.352   8.250 -0.7923  0.0275  2.0532
   96SAPS  C315 9596   3.830   4.143   8.295  0.7146  0.5877 -0.4523
   96SAPS  H15X 9597   3.921   4.099   8.248  0.2022 -0.5591 -0.4114
   96SAPS  H15Y 9598   3.749   4.071   8.268  0.5115  0.5601  0.2160
   96SAPS  C316 9599   3.844   4.163   8.443  0.4719  0.2741  0.3752
   96SAPS  H16X 9600   3.886   4.075   8.497  0.9375 -0.0652 -0.5263
   96SAPS  H16Y 9601   3.743   4.179   8.487  0.7847 -0.9682  1.6177
   96SAPS  C317 9602   3.953   4.268   8.490  0.7180 -0.2930  0.6148
   96SAPS  H17X 9603   3.967   4.262   8.600 -1.3030 -1.4065  0.8764
   96SAPS  H17Y 9604   3.898   4.363   8.471 -1.6305 -1.4625  1.1128
   96SAPS  C318 9605   4.098   4.281   8.425 -0.1713 -0.3138  0.7346
   96SAPS  H18X 9606   4.160   4.193   8.452  1.1340  0.1534 -0.5822
   96SAPS  H18Y 9607   4.153   4.369   8.465 -0.5233 -0.3309  1.2751
   96SAPS  H18Z 9608   4.079   4.288   8.316  1.7572 -1.7195  0.2415
   97SAPS     N 9609   4.528   2.934   6.315 -0.1742 -0.2709 -0.0713
   97SAPS   HN1 9610   4.466   2.939   6.398 -0.7603 -1.6549 -0.3960
   97SAPS   HN2 9611   4.611   2.888   6.359  0.6269  1.9820  0.9298
   97SAPS   HN3 9612   4.558   3.027   6.279 -1.1536 -0.6835 -2.0702
   97SAPS   C12 9613   4.460   2.848   6.219 -0.0514 -0.4637 -0.1133
   97SAPS  H12A 9614   4.357   2.879   6.228  0.0377  0.6314 -2.3090
   97SAPS   C13 9615   4.492   2.871   6.072  0.4725 -0.0522  0.6907
   97SAPS  O13A 9616   4.573   2.963   6.034  0.7922 -0.3317  0.3806
   97SAPS  O13B 9617   4.422   2.808   5.983 -0.2167 -0.3460 -0.2088
   97SAPS   C11 9618   4.488   2.695   6.253 -0.5964 -0.2081  0.5941
   97SAPS  H11A 9619   4.594   2.679   6.225 -1.1231 -1.0403 -1.0068
   97SAPS  H11B 9620   4.417   2.642   6.186  0.6014 -0.0031 -0.8745
   97SAPS     P 9621   4.412   2.509   6.409  0.4351 -0.1831 -0.2454
   97SAPS   O13 9622   4.279   2.510   6.349 -0.1252 -0.2844 -0.2629
   97SAPS   O14 9623   4.498   2.397   6.362 -0.2065 -0.2876  0.1207
   97SAPS   O12 9624   4.475   2.647   6.387 -0.4298 -0.0042  0.0399
   97SAPS   O11 9625   4.378   2.504   6.557 -0.0565 -0.5011 -0.2615
   97SAPS    C1 9626   4.461   2.557   6.658 -0.1379  0.4098  0.0729
   97SAPS    HA 9627   4.530   2.635   6.617 -0.0277 -0.5539 -1.6881
   97SAPS    HB 9628   4.396   2.615   6.727 -0.8107 -0.3131  0.0577
   97SAPS    C2 9629   4.532   2.448   6.728  0.2945 -0.0318  0.2490
   97SAPS    HS 9630   4.525   2.476   6.835 -2.5126  3.6073 -0.7133
   97SAPS   O21 9631   4.675   2.441   6.680 -0.0208 -0.2459 -0.1186
   97SAPS   C21 9632   4.755   2.542   6.719 -0.2628 -0.7154  0.5110
   97SAPS   O22 9633   4.724   2.638   6.786 -0.6491  1.1139  0.2252
   97SAPS   C22 9634   4.892   2.527   6.674  0.1953 -0.2298 -0.0664
   97SAPS   H2R 9635   4.895   2.501   6.566 -1.4144 -2.0650  0.2633
   97SAPS   H2S 9636   4.951   2.619   6.688 -1.4068  0.7085  0.8217
   97SAPS    C3 9637   4.463   2.298   6.730  0.4809  0.3454 -0.4314
   97SAPS    HX 9638   4.451   2.258   6.627 -0.2951 -1.5215  0.3336
   97SAPS    HY 9639   4.361   2.319   6.766  0.2820  0.2616 -0.9382
   97SAPS   O31 9640   4.530   2.216   6.820  0.0022 -1.0599  0.0346
   97SAPS   C31 9641   4.607   2.120   6.774 -0.1685 -0.0099  0.4030
   97SAPS   O32 9642   4.619   2.090   6.655 -0.0222  0.9284  0.4855
   97SAPS   C32 9643   4.679   2.052   6.894  0.6542  0.1805 -0.0697
   97SAPS   H2X 9644   4.624   1.955   6.896 -1.1096  1.1530  0.9120
   97SAPS   H2Y 9645   4.660   2.103   6.991 -1.7635  0.0754 -0.4132
   97SAPS   C23 9646   4.949   2.409   6.762 -0.6215  1.0084  0.3701
   97SAPS   H3R 9647   5.042   2.371   6.713 -0.0605  0.4487  1.8075
   97SAPS   H3S 9648   4.877   2.325   6.770  0.0451  0.2826 -0.8692
   97SAPS   C24 9649   4.987   2.457   6.908 -0.4165 -0.6584 -0.1165
   97SAPS   H4R 9650   4.891   2.491   6.952 -0.3271 -1.0921  0.4236
   97SAPS   H4S 9651   5.054   2.545   6.904 -1.5344  0.2504  0.6340
   97SAPS   C25 9652   5.045   2.351   6.990  0.4658  0.2743 -0.0167
   97SAPS   H5R 9653   5.127   2.310   6.930  0.6908  1.1315 -0.3172
   97SAPS   C26 9654   5.015   2.321   7.118  0.2470 -1.0705  0.0281
   97SAPS   H6R 9655   5.064   2.235   7.166  1.3568 -1.0469 -1.0099
   97SAPS   C27 9656   4.910   2.392   7.207  0.1261  0.6102 -0.3958
   97SAPS   H7R 9657   4.898   2.500   7.183  1.6115  0.8829  0.0454
   97SAPS   H7S 9658   4.956   2.397   7.308 -0.0847  0.0409 -0.2658
   97SAPS   C28 9659   4.785   2.306   7.198 -0.3599  0.2240 -0.3904
   97SAPS   H8R 9660   4.742   2.311   7.097  1.7240 -0.8422 -1.3835
   97SAPS   C29 9661   4.723   2.236   7.295  0.4692 -0.3671 -0.7529
   97SAPS   H9R 9662   4.630   2.180   7.281  0.0709  0.2223 -0.5415
   97SAPS  C210 9663   4.776   2.242   7.437  0.4818  0.4018 -0.8537
   97SAPS  H10R 9664   4.695   2.202   7.502 -0.5432  2.6287 -0.6915
   97SAPS  H10S 9665   4.788   2.348   7.466 -0.7005 -0.0183  1.4465
   97SAPS  C211 9666   4.902   2.171   7.466 -0.3568 -0.2920  0.6886
   97SAPS  H11R 9667   4.953   2.141   7.373  0.5486  1.8115  0.4524
   97SAPS  C212 9668   4.961   2.151   7.582 -0.3165 -0.0401  0.8580
   97SAPS  H12R 9669   5.057   2.099   7.589  1.7195  3.0314 -1.6999
   97SAPS  C213 9670   4.912   2.204   7.718 -0.0422 -1.0956  0.6101
   97SAPS  H13R 9671   4.887   2.119   7.786 -2.2661 -0.4122  0.7252
   97SAPS  H13S 9672   4.812   2.253   7.717 -0.0478 -1.0173  2.2470
   97SAPS  C214 9673   5.004   2.304   7.782 -0.1590 -0.3186 -0.1011
   97SAPS  H14R 9674   5.057   2.369   7.712 -0.1245 -1.0427 -0.7567
   97SAPS  C215 9675   5.006   2.324   7.912 -0.4857 -0.1289 -0.3655
   97SAPS  H15R 9676   5.082   2.394   7.950  0.1301 -0.7577 -0.4056
   97SAPS  C216 9677   4.923   2.253   8.019 -0.3697 -0.4395 -0.5729
   97SAPS  H16R 9678   4.828   2.206   7.985 -0.2022  0.3810 -2.2928
   97SAPS  H16S 9679   4.893   2.332   8.092  0.5525  0.5423 -1.2245
   97SAPS  C217 9680   5.008   2.149   8.093  0.7113  0.2973  0.1739
   97SAPS  H17R 9681   5.074   2.201   8.166 -0.4432  0.9025  0.8116
   97SAPS  H17S 9682   5.069   2.087   8.024 -1.7737 -2.2982  0.1368
   97SAPS  C218 9683   4.929   2.038   8.172  0.3561  0.1036  0.3260
   97SAPS  H18R 9684   4.858   1.983   8.106  1.3475 -2.7340  1.4948
   97SAPS  H18S 9685   4.855   2.090   8.237 -1.2606  0.0067 -1.3516
   97SAPS  C219 9686   5.018   1.949   8.255 -0.3568 -0.2528 -0.1591
   97SAPS  H19R 9687   5.078   1.999   8.334 -0.8715  0.4440 -0.1977
   97SAPS  H19S 9688   5.092   1.890   8.197  0.7749  0.1962  0.7866
   97SAPS  C220 9689   4.935   1.842   8.324  0.1849  0.4409  0.5072
   97SAPS  H20R 9690   4.848   1.876   8.384 -0.3641  1.2660 -0.7199
   97SAPS  H20S 9691   5.005   1.783   8.387 -2.0404 -3.3821 -0.2878
   97SAPS  H20T 9692   4.901   1.770   8.247  2.2370  1.4422 -1.4458
   97SAPS   C33 9693   4.830   2.011   6.873  0.3146 -0.1218 -0.4344
   97SAPS   H3X 9694   4.898   2.098   6.887  0.1458  0.0112 -0.4419
   97SAPS   H3Y 9695   4.839   1.970   6.770  0.7595 -0.7254 -0.1612
   97SAPS   C34 9696   4.880   1.892   6.952  0.3594 -0.4410 -0.3944
   97SAPS   H4X 9697   4.989   1.876   6.946  0.5772  1.1103 -0.9835
   97SAPS   H4Y 9698   4.834   1.801   6.907  0.8021  0.0988 -2.0076
   97SAPS   C35 9699   4.859   1.912   7.109 -0.2092  0.2276 -0.7180
   97SAPS   H5X 9700   4.753   1.907   7.142 -0.8330 -1.6056 -2.7381
   97SAPS   H5Y 9701   4.893   2.017   7.125 -2.4366  0.9217 -0.2348
   97SAPS   C36 9702   4.955   1.823   7.190 -0.2784 -0.0701  0.2408
   97SAPS   H6X 9703   5.059   1.858   7.171  0.3446  1.4576  5.0116
   97SAPS   H6Y 9704   4.944   1.720   7.151 -2.0771 -0.0276  0.5646
   97SAPS   C37 9705   4.921   1.833   7.348 -0.9991  0.2546 -0.0840
   97SAPS   H7X 9706   4.833   1.770   7.372 -1.5351  1.5374  1.5386
   97SAPS   H7Y 9707   4.894   1.941   7.353  0.8121  0.7726 -0.6416
   97SAPS   C38 9708   5.032   1.786   7.446 -0.3718  0.2844  0.9413
   97SAPS   H8X 9709   5.131   1.833   7.427 -0.9505  0.4241 -2.2792
   97SAPS   H8Y 9710   5.051   1.686   7.402  0.2141  1.1229 -0.8171
   97SAPS   C39 9711   4.991   1.778   7.588 -0.0365 -0.6653 -0.2475
   97SAPS   H9X 9712   4.919   1.693   7.593  0.9093 -1.5477 -1.2143
   97SAPS   H9Y 9713   4.934   1.870   7.614  2.2338  0.6193  0.4228
   97SAPS  C310 9714   5.102   1.770   7.687  0.3183  0.8531 -0.3477
   97SAPS  H10X 9715   5.173   1.855   7.681 -1.1968  2.0365 -3.1449
   97SAPS  H10Y 9716   5.148   1.672   7.665 -0.9618 -0.2869  1.6658
   97SAPS  C311 9717   5.055   1.754   7.834 -0.1778 -0.4595 -0.1757
   97SAPS  H11X 9718   4.972   1.681   7.831 -0.1953 -0.4231 -0.7585
   97SAPS  H11Y 9719   5.021   1.857   7.859 -1.5050 -0.0698 -3.1483
   97SAPS  C312 9720   5.159   1.698   7.930  0.0792 -0.1475  0.3632
   97SAPS  H12X 9721   5.149   1.741   8.032 -2.1545  1.1603 -0.3254
   97SAPS  H12Y 9722   5.259   1.730   7.893 -0.3085 -0.1539 -0.7160
   97SAPS  C313 9723   5.165   1.546   7.941  0.0727  0.3528 -0.5253
   97SAPS  H13X 9724   5.185   1.501   7.842 -0.5007 -0.8549 -0.1189
   97SAPS  H13Y 9725   5.068   1.506   7.976  1.0269 -0.1428  1.7289
   97SAPS  C314 9726   5.274   1.497   8.031  0.6520  0.6158 -0.7261
   97SAPS  H14X 9727   5.368   1.555   8.018  0.8538 -0.2772 -4.2429
   97SAPS  H14Y 9728   5.292   1.389   8.014 -0.2166  0.4920 -0.9288
   97SAPS  C315 9729   5.246   1.507   8.186 -0.7860 -0.1057 -0.1851
   97SAPS  H15X 9730   5.238   1.613   8.217  1.5126  0.0199  0.1840
   97SAPS  H15Y 9731   5.331   1.454   8.234 -0.9277  0.8662  1.1769
   97SAPS  C316 9732   5.115   1.433   8.230  0.0514 -0.5128  0.5727
   97SAPS  H16X 9733   5.104   1.341   8.169 -0.2072  0.4848 -0.9509
   97SAPS  H16Y 9734   5.036   1.508   8.207  1.4958  0.4618 -1.5916
   97SAPS  C317 9735   5.131   1.399   8.379  0.1896  0.1625 -0.2391
   97SAPS  H17X 9736   5.137   1.490   8.442  2.6841 -0.1454  0.0890
   97SAPS  H17Y 9737   5.229   1.350   8.400  0.0742 -0.6603 -1.5435
   97SAPS  C318 9738   5.019   1.312   8.427  0.5782  0.0900 -0.4523
   97SAPS  H18X 9739   5.039   1.205   8.409  2.3843  0.4479 -0.7101
   97SAPS  H18Y 9740   4.921   1.344   8.384 -0.1528 -0.3243  0.8384
   97SAPS  H18Z 9741   4.999   1.321   8.536 -1.9359  1.0376 -0.8960
   98SAPS     N 9742   0.630   2.778   6.155  0.6471 -0.1929  0.2725
   98SAPS   HN1 9743   0.545   2.719   6.164  1.1335 -0.7254  1.4994
   98SAPS   HN2 9744   0.710   2.723   6.118  1.9682  1.8908 -0.1443
   98SAPS   HN3 9745   0.652   2.812   6.250 -1.2648  1.9606  0.0502
   98SAPS   C12 9746   0.603   2.897   6.067 -0.0981  0.7916  0.8222
   98SAPS  H12A 9747   0.571   2.855   5.973  1.4940 -1.5707  1.2556
   98SAPS   C13 9748   0.503   3.009   6.114 -0.0064  1.0453  0.4778
   98SAPS  O13A 9749   0.446   2.996   6.223  0.4256  0.4860 -0.0064
   98SAPS  O13B 9750   0.468   3.093   6.031 -0.2510  0.9124  0.4044
   98SAPS   C11 9751   0.739   2.957   6.032  0.0763  0.0136  0.5724
   98SAPS  H11A 9752   0.777   3.009   6.123 -1.3618  0.6715  0.8155
   98SAPS  H11B 9753   0.723   3.029   5.949  0.1266 -1.4416 -0.7467
   98SAPS     P 9754   0.989   2.887   5.995 -0.0359  0.3638  0.0396
   98SAPS   O13 9755   1.068   2.766   5.964 -0.8702  0.3317 -0.3190
   98SAPS   O14 9756   1.022   2.999   5.911  0.6195  0.2019  0.1404
   98SAPS   O12 9757   0.830   2.851   5.985 -0.1505 -0.0178  0.1181
   98SAPS   O11 9758   1.016   2.933   6.140 -0.4970  0.6327 -0.7236
   98SAPS    C1 9759   0.983   2.851   6.261  0.1408 -0.2939  0.1130
   98SAPS    HA 9760   0.901   2.779   6.242  1.0483 -1.1135 -0.8155
   98SAPS    HB 9761   1.081   2.803   6.282 -0.2214 -0.1686  2.3199
   98SAPS    C2 9762   0.957   2.940   6.386  0.3985 -0.8084  0.2085
   98SAPS    HS 9763   0.971   2.881   6.479  1.2004  0.3112  0.8257
   98SAPS   O21 9764   0.829   3.004   6.372 -0.2530  0.0090 -0.8547
   98SAPS   C21 9765   0.780   3.039   6.494  0.3736 -0.8360 -1.1335
   98SAPS   O22 9766   0.825   3.004   6.603 -0.0698  0.2608  0.0439
   98SAPS   C22 9767   0.665   3.138   6.464 -0.1012 -0.4731  0.1837
   98SAPS   H2R 9768   0.726   3.218   6.418  0.1464 -0.2267  0.9235
   98SAPS   H2S 9769   0.596   3.096   6.388  1.9256 -3.5088 -0.1475
   98SAPS    C3 9770   1.062   3.057   6.402 -0.1421  0.1985  1.1642
   98SAPS    HX 9771   1.031   3.126   6.321  1.3306 -1.3271 -0.8116
   98SAPS    HY 9772   1.163   3.025   6.370  0.6774  2.7935  0.9139
   98SAPS   O31 9773   1.062   3.126   6.528  0.1933 -0.2703  0.3633
   98SAPS   C31 9774   1.132   3.069   6.627  0.2449 -0.3546  0.7779
   98SAPS   O32 9775   1.202   2.970   6.617  0.2396 -0.2722  0.3695
   98SAPS   C32 9776   1.099   3.145   6.747 -0.2172  0.4856  0.4139
   98SAPS   H2X 9777   0.993   3.123   6.773  0.0341  0.0164  1.0828
   98SAPS   H2Y 9778   1.130   3.251   6.745  1.7372 -0.0621 -1.0226
   98SAPS   C23 9779   0.579   3.174   6.586  0.0866 -0.3643 -0.6835
   98SAPS   H3R 9780   0.581   3.088   6.657  2.4232  1.6617  1.9129
   98SAPS   H3S 9781   0.470   3.189   6.566 -0.1052  1.1304  1.1736
   98SAPS   C24 9782   0.622   3.304   6.654 -0.0284 -0.1511  0.0105
   98SAPS   H4R 9783   0.542   3.346   6.719  0.9128  1.3367  0.2648
   98SAPS   H4S 9784   0.643   3.380   6.576  1.3279  1.4677  1.8299
   98SAPS   C25 9785   0.753   3.295   6.740  0.5567 -0.7502 -0.0010
   98SAPS   H5R 9786   0.841   3.246   6.696  1.7142 -0.2154  1.6366
   98SAPS   C26 9787   0.763   3.336   6.868  0.1576 -0.1860  0.1403
   98SAPS   H6R 9788   0.855   3.316   6.924 -0.8815 -1.3226  1.5422
   98SAPS   C27 9789   0.655   3.400   6.956 -0.8429 -0.5040  0.2005
   98SAPS   H7R 9790   0.577   3.331   6.996 -0.7684 -0.0398  1.1657
   98SAPS   H7S 9791   0.605   3.471   6.887 -0.9871  0.3169  1.1288
   98SAPS   C28 9792   0.705   3.489   7.067 -0.2597 -0.5501 -0.1331
   98SAPS   H8R 9793   0.791   3.552   7.041 -0.2582 -0.9823 -1.2300
   98SAPS   C29 9794   0.659   3.500   7.193  0.2781 -0.4353  0.1752
   98SAPS   H9R 9795   0.695   3.582   7.257 -0.7985 -2.1515  3.1895
   98SAPS  C210 9796   0.553   3.413   7.254  0.3955  0.4867  0.0797
   98SAPS  H10R 9797   0.602   3.325   7.302 -0.6465  1.0505  2.3131
   98SAPS  H10S 9798   0.479   3.395   7.173  0.4262  2.8405 -0.5373
   98SAPS  C211 9799   0.474   3.490   7.354  0.0946 -0.5348 -0.0131
   98SAPS  H11R 9800   0.402   3.549   7.295  1.9255 -0.0113 -1.8206
   98SAPS  C212 9801   0.490   3.502   7.486  0.0896  0.3004 -0.3740
   98SAPS  H12R 9802   0.417   3.557   7.547  0.0630 -1.3810  1.1991
   98SAPS  C213 9803   0.587   3.430   7.573 -0.4406  0.0204 -0.7383
   98SAPS  H13R 9804   0.669   3.498   7.606  2.2309 -2.4405 -1.9294
   98SAPS  H13S 9805   0.642   3.349   7.522 -0.0173 -0.6676  0.7416
   98SAPS  C214 9806   0.516   3.361   7.686  0.1187 -0.7237  0.3430
   98SAPS  H14R 9807   0.410   3.337   7.665  0.3114 -0.3777 -1.1664
   98SAPS  C215 9808   0.563   3.337   7.806  0.2074 -0.2503 -0.6135
   98SAPS  H15R 9809   0.494   3.283   7.872 -0.7024  1.6866  0.1140
   98SAPS  C216 9810   0.700   3.376   7.864 -0.1435 -0.7900  0.7183
   98SAPS  H16R 9811   0.753   3.457   7.811  0.9924 -2.4688 -0.8286
   98SAPS  H16S 9812   0.751   3.277   7.861 -1.9895 -1.7659 -0.4275
   98SAPS  C217 9813   0.704   3.415   8.016 -0.2222 -0.4784 -0.4613
   98SAPS  H17R 9814   0.637   3.502   8.026  0.1640 -0.2395  0.1362
   98SAPS  H17S 9815   0.805   3.460   8.028 -0.5566  0.0084  0.7250
   98SAPS  C218 9816   0.676   3.297   8.108  0.1019 -0.1791 -0.5668
   98SAPS  H18R 9817   0.747   3.217   8.078  0.7440  0.6689 -1.3525
   98SAPS  H18S 9818   0.575   3.251   8.094  0.4169 -0.2833 -2.7688
   98SAPS  C219 9819   0.688   3.327   8.252  0.0163  0.4914  0.1249
   98SAPS  H19R 9820   0.597   3.388   8.272  1.2500  2.9056 -1.1772
   98SAPS  H19S 9821   0.781   3.382   8.277  1.8410 -2.4164  0.2895
   98SAPS  C220 9822   0.693   3.205   8.342  0.3879  0.4785 -0.6793
   98SAPS  H20R 9823   0.625   3.123   8.308  1.1442 -0.7208  0.5978
   98SAPS  H20S 9824   0.656   3.239   8.441 -0.0098 -0.4157 -0.5056
   98SAPS  H20T 9825   0.797   3.168   8.350 -0.1232 -0.9726 -0.3229
   98SAPS   C33 9826   1.184   3.083   6.867 -0.5052  0.6293 -0.6556
   98SAPS   H3X 9827   1.286   3.060   6.831 -1.6479 -1.5937 -2.7337
   98SAPS   H3Y 9828   1.140   2.983   6.891  1.2753 -0.0458 -0.0767
   98SAPS   C34 9829   1.183   3.173   6.986 -0.7084  0.1287 -0.0533
   98SAPS   H4X 9830   1.092   3.236   6.981 -0.1334  1.0855  1.0608
   98SAPS   H4Y 9831   1.260   3.252   6.975  0.1221 -0.4959  0.9836
   98SAPS   C35 9832   1.198   3.104   7.122  0.2491 -0.6810 -0.4869
   98SAPS   H5X 9833   1.285   3.036   7.133 -0.1925 -1.4929 -1.7389
   98SAPS   H5Y 9834   1.104   3.045   7.127  0.2843 -0.7061 -0.0679
   98SAPS   C36 9835   1.184   3.209   7.235 -0.4661  0.0493 -0.2402
   98SAPS   H6X 9836   1.095   3.274   7.221 -0.6796  0.0467  1.0143
   98SAPS   H6Y 9837   1.274   3.273   7.245 -0.6035 -0.0686  2.0948
   98SAPS   C37 9838   1.173   3.141   7.377  0.2581  0.1211  0.3669
   98SAPS   H7X 9839   1.254   3.072   7.408 -0.5376 -0.6323  0.7997
   98SAPS   H7Y 9840   1.093   3.064   7.386  1.4222 -1.0748  0.8317
   98SAPS   C38 9841   1.161   3.247   7.490 -0.2713  0.2359  0.0721
   98SAPS   H8X 9842   1.063   3.298   7.475  0.1648  2.6745  3.9467
   98SAPS   H8Y 9843   1.242   3.322   7.483 -0.3096  0.1760 -1.2541
   98SAPS   C39 9844   1.170   3.184   7.624 -0.0807  0.2364 -0.1182
   98SAPS   H9X 9845   1.265   3.130   7.644  0.4381  0.6791 -1.2892
   98SAPS   H9Y 9846   1.088   3.110   7.631  0.6408 -0.7097 -1.3094
   98SAPS  C310 9847   1.151   3.289   7.739  0.2679  0.1522 -0.4749
   98SAPS  H10X 9848   1.062   3.353   7.719  0.7418  0.4954 -1.5976
   98SAPS  H10Y 9849   1.240   3.355   7.733  1.4469 -1.2946  0.3950
   98SAPS  C311 9850   1.158   3.226   7.879 -0.2108  0.0938  0.3177
   98SAPS  H11X 9851   1.267   3.207   7.889 -0.0480 -1.3398 -2.8501
   98SAPS  H11Y 9852   1.099   3.133   7.868  0.4348 -0.4401  1.2211
   98SAPS  C312 9853   1.106   3.312   7.992  0.6811  0.0289 -0.0952
   98SAPS  H12X 9854   0.995   3.311   7.987  0.6424  0.1361  0.6422
   98SAPS  H12Y 9855   1.136   3.418   7.979 -0.6254  0.2304 -1.8256
   98SAPS  C313 9856   1.146   3.244   8.125 -0.2180  0.0609 -0.2562
   98SAPS  H13X 9857   1.122   3.135   8.125 -1.2578  0.2758  0.6009
   98SAPS  H13Y 9858   1.106   3.300   8.212 -0.2712 -0.9543  0.3961
   98SAPS  C314 9859   1.298   3.257   8.149 -0.2906 -0.0264 -0.3983
   98SAPS  H14X 9860   1.346   3.342   8.096  1.6951 -0.9502 -0.1319
   98SAPS  H14Y 9861   1.340   3.170   8.094  1.5633  1.0293 -0.7419
   98SAPS  C315 9862   1.341   3.244   8.299  0.9241  0.5355  0.3666
   98SAPS  H15X 9863   1.281   3.322   8.351 -0.6837  0.1306 -0.8001
   98SAPS  H15Y 9864   1.446   3.281   8.307  0.3972  2.1178  0.3274
   98SAPS  C316 9865   1.320   3.101   8.358  0.3288  0.5703  0.3821
   98SAPS  H16X 9866   1.214   3.070   8.343  0.1224  1.5132 -0.1285
   98SAPS  H16Y 9867   1.332   3.105   8.469 -0.1093  0.5231  0.4328
   98SAPS  C317 9868   1.411   2.988   8.297 -0.2914  0.0517  0.0984
   98SAPS  H17X 9869   1.388   2.989   8.188  2.3771  2.3324 -0.5749
   98SAPS  H17Y 9870   1.380   2.892   8.343  1.0589 -0.3601  0.1950
   98SAPS  C318 9871   1.554   3.015   8.323  0.3190  0.5497 -0.2860
   98SAPS  H18X 9872   1.608   2.939   8.263 -2.6699 -1.1833 -1.0286
   98SAPS  H18Y 9873   1.566   3.015   8.433 -2.7531  1.4821  0.1662
   98SAPS  H18Z 9874   1.573   3.114   8.275 -2.1464  0.8424 -0.8266
   99SAPS     N 9875   1.389   6.583   6.119  0.2056 -0.5230  0.0792
   99SAPS   HN1 9876   1.398   6.635   6.209  2.0876 -1.9539  0.7982
   99SAPS   HN2 9877   1.293   6.545   6.107 -0.1854  0.2499  0.6658
   99SAPS   HN3 9878   1.435   6.492   6.141  0.2130 -0.6054 -0.2639
   99SAPS   C12 9879   1.432   6.665   5.999  0.1105  0.6001 -0.6434
   99SAPS  H12A 9880   1.451   6.594   5.920  0.4080 -0.0517  0.0039
   99SAPS   C13 9881   1.334   6.774   5.946  0.2268 -0.7886 -0.0442
   99SAPS  O13A 9882   1.222   6.792   6.002  0.7763 -0.1510  0.8758
   99SAPS  O13B 9883   1.362   6.845   5.847 -0.5691  0.5301  0.0740
   99SAPS   C11 9884   1.564   6.729   6.043 -0.0900  0.5739  0.0587
   99SAPS  H11A 9885   1.598   6.789   5.956 -0.3297 -0.4707 -0.7740
   99SAPS  H11B 9886   1.645   6.654   6.055  0.0200  0.5056 -1.0331
   99SAPS     P 9887   1.670   6.905   6.201 -0.1612  0.0801  0.0101
   99SAPS   O13 9888   1.718   6.975   6.078 -0.3290  0.3551 -0.2961
   99SAPS   O14 9889   1.630   6.982   6.314 -0.0756  0.0242  0.1578
   99SAPS   O12 9890   1.555   6.807   6.165 -0.4181 -0.2358  0.3025
   99SAPS   O11 9891   1.795   6.824   6.257 -0.1022  0.4782  0.2306
   99SAPS    C1 9892   1.772   6.716   6.357  0.6525  0.1031  0.2041
   99SAPS    HA 9893   1.663   6.697   6.368  0.4481 -0.4627 -2.1548
   99SAPS    HB 9894   1.811   6.621   6.314  0.6005  0.4503 -0.6335
   99SAPS    C2 9895   1.835   6.740   6.500 -0.6192 -0.4814 -0.6363
   99SAPS    HS 9896   1.810   6.656   6.568  2.6757 -0.1835  1.1648
   99SAPS   O21 9897   1.796   6.875   6.548  0.1861 -0.1362  0.3932
   99SAPS   C21 9898   1.671   6.872   6.596 -0.3859 -0.8345 -0.7405
   99SAPS   O22 9899   1.601   6.771   6.604  0.4954  0.1488 -0.0810
   99SAPS   C22 9900   1.624   7.014   6.647 -0.3928  0.1811  0.3233
   99SAPS   H2R 9901   1.714   7.079   6.642  0.3650 -0.8718 -3.8809
   99SAPS   H2S 9902   1.560   7.045   6.561 -1.1766 -1.2149  0.3603
   99SAPS    C3 9903   1.992   6.741   6.489 -0.2335 -0.0501  0.8683
   99SAPS    HX 9904   2.033   6.837   6.453 -0.5333 -0.3943 -0.4250
   99SAPS    HY 9905   2.018   6.681   6.399  0.8348  1.4052  0.1783
   99SAPS   O31 9906   2.063   6.691   6.604 -0.4241  0.6958  0.4947
   99SAPS   C31 9907   2.079   6.782   6.703 -0.4192 -0.2581  0.1570
   99SAPS   O32 9908   2.052   6.901   6.696  0.1234 -0.1827 -0.6541
   99SAPS   C32 9909   2.145   6.715   6.831  0.8442  0.8498  0.1032
   99SAPS   H2X 9910   2.252   6.688   6.817  0.0676 -1.7873 -1.4877
   99SAPS   H2Y 9911   2.095   6.618   6.852  0.5409  0.6455 -1.4212
   99SAPS   C23 9912   1.552   7.020   6.783  0.5764  1.1425  1.0706
   99SAPS   H3R 9913   1.451   6.981   6.759  2.1029 -1.8669 -1.0062
   99SAPS   H3S 9914   1.534   7.128   6.804 -0.2149  0.8346  2.0915
   99SAPS   C24 9915   1.622   6.958   6.901 -0.0316 -0.6512  0.0415
   99SAPS   H4R 9916   1.644   6.855   6.866 -1.1012  0.3896 -4.1469
   99SAPS   H4S 9917   1.550   6.955   6.986 -0.5581  0.9807 -0.3103
   99SAPS   C25 9918   1.743   7.031   6.955  0.1417 -0.0498  0.1339
   99SAPS   H5R 9919   1.784   7.106   6.886  0.1239 -1.4107 -1.4360
   99SAPS   C26 9920   1.793   7.021   7.078  0.1520 -0.0965  0.8865
   99SAPS   H6R 9921   1.888   7.075   7.093 -0.2166  1.3170 -1.3961
   99SAPS   C27 9922   1.745   6.924   7.186 -0.1407 -0.7156  0.3129
   99SAPS   H7R 9923   1.726   6.819   7.155  1.7178 -2.0169  3.1694
   99SAPS   H7S 9924   1.646   6.964   7.215  0.2045 -0.9490  1.9186
   99SAPS   C28 9925   1.834   6.908   7.304  0.0308  0.4644 -0.9276
   99SAPS   H8R 9926   1.941   6.906   7.279  0.3064  2.1840 -0.0667
   99SAPS   C29 9927   1.796   6.895   7.430 -0.2528  0.4763  0.6795
   99SAPS   H9R 9928   1.876   6.879   7.504  0.2610 -0.5431 -0.0676
   99SAPS  C210 9929   1.654   6.907   7.481  0.6422  0.0968  0.3843
   99SAPS  H10R 9930   1.603   6.991   7.428 -0.6868 -1.4912 -0.9783
   99SAPS  H10S 9931   1.657   6.933   7.589 -1.2103  0.3566  0.4176
   99SAPS  C211 9932   1.571   6.782   7.445 -0.3375  0.1448 -0.8873
   99SAPS  H11R 9933   1.588   6.749   7.342  1.0561 -1.8995 -0.0603
   99SAPS  C212 9934   1.504   6.703   7.535  0.5045  0.3600 -0.2142
   99SAPS  H12R 9935   1.461   6.608   7.500  2.6245 -0.3493 -1.0601
   99SAPS  C213 9936   1.498   6.720   7.686 -0.0328  0.2925 -0.2071
   99SAPS  H13R 9937   1.530   6.818   7.726 -1.4414 -0.1388  2.1856
   99SAPS  H13S 9938   1.565   6.646   7.736 -1.2498  0.2973  1.5452
   99SAPS  C214 9939   1.360   6.692   7.737  0.5911 -0.5386  0.6090
   99SAPS  H14R 9940   1.277   6.717   7.670  0.2821 -1.6252  0.5754
   99SAPS  C215 9941   1.328   6.672   7.868  0.8113 -0.1864 -0.3104
   99SAPS  H15R 9942   1.226   6.641   7.897  1.6172 -2.4295  0.3766
   99SAPS  C216 9943   1.423   6.660   7.982  0.2361 -0.6400  0.3614
   99SAPS  H16R 9944   1.391   6.711   8.076  1.5360 -0.6378  0.8233
   99SAPS  H16S 9945   1.525   6.688   7.948 -0.0342  0.6013  0.5269
   99SAPS  C217 9946   1.440   6.511   8.020  0.4748 -0.0654  0.5032
   99SAPS  H17R 9947   1.532   6.487   8.077 -0.3169 -1.1584  1.3704
   99SAPS  H17S 9948   1.451   6.449   7.928 -1.0355 -0.2670  0.4390
   99SAPS  C218 9949   1.337   6.434   8.104  0.5339  0.4299  0.0362
   99SAPS  H18R 9950   1.368   6.328   8.115 -1.9863 -0.4456 -0.6722
   99SAPS  H18S 9951   1.236   6.428   8.059 -0.0055  1.8025  0.9911
   99SAPS  C219 9952   1.307   6.512   8.235 -0.0949 -0.1985 -0.1174
   99SAPS  H19R 9953   1.248   6.606   8.228 -1.1740 -0.8517  0.1014
   99SAPS  H19S 9954   1.406   6.537   8.280  0.9201 -1.6084 -1.4624
   99SAPS  C220 9955   1.224   6.423   8.339 -0.2515 -0.3372 -0.2717
   99SAPS  H20R 9956   1.116   6.425   8.314 -0.0076 -0.4604 -1.3959
   99SAPS  H20S 9957   1.227   6.485   8.431 -1.9862  3.1557 -2.3871
   99SAPS  H20T 9958   1.267   6.321   8.345  1.0512  0.1086 -1.5050
   99SAPS   C33 9959   2.126   6.802   6.954  0.0405 -1.1662  1.2223
   99SAPS   H3X 9960   2.129   6.745   7.049  1.6380 -1.7038  0.8801
   99SAPS   H3Y 9961   2.032   6.861   6.956 -0.0415 -1.2967  1.2201
   99SAPS   C34 9962   2.246   6.902   6.970  0.0669 -0.1278 -0.0094
   99SAPS   H4X 9963   2.256   6.953   6.871  0.6635  0.6623  0.4402
   99SAPS   H4Y 9964   2.342   6.848   6.985  1.5167  2.1049 -0.6411
   99SAPS   C35 9965   2.224   6.998   7.080 -0.3745 -0.0544 -0.6025
   99SAPS   H5X 9966   2.136   7.052   7.041 -0.4941  0.5131  0.4215
   99SAPS   H5Y 9967   2.298   7.081   7.081 -1.8450  1.3873  2.4786
   99SAPS   C36 9968   2.214   6.941   7.222 -0.0422 -0.0755 -0.3025
   99SAPS   H6X 9969   2.302   6.876   7.243  0.6929  1.4012  1.5235
   99SAPS   H6Y 9970   2.122   6.886   7.249 -1.4007  2.8186  1.3706
   99SAPS   C37 9971   2.234   7.042   7.337  0.7907 -0.2198  0.3236
   99SAPS   H7X 9972   2.139   7.096   7.358  0.6275 -0.1920 -0.4359
   99SAPS   H7Y 9973   2.301   7.124   7.303 -1.1343  1.6768  0.8470
   99SAPS   C38 9974   2.273   6.977   7.470  0.2958  0.1294 -0.4527
   99SAPS   H8X 9975   2.347   6.895   7.458 -0.5020 -0.8601  1.0171
   99SAPS   H8Y 9976   2.190   6.911   7.503  1.6712 -1.1268  0.6840
   99SAPS   C39 9977   2.324   7.076   7.567 -0.6921  0.1213 -0.2185
   99SAPS   H9X 9978   2.252   7.155   7.596  0.6228  0.7957  1.3939
   99SAPS   H9Y 9979   2.408   7.134   7.522 -0.8579  0.0795 -0.5817
   99SAPS  C310 9980   2.371   7.010   7.701 -0.2154 -0.1645  0.1756
   99SAPS  H10X 9981   2.457   6.947   7.671  0.0743 -0.4443  1.5610
   99SAPS  H10Y 9982   2.290   6.945   7.740 -1.1222 -0.1933 -1.6256
   99SAPS  C311 9983   2.406   7.108   7.814 -0.3058  0.2223  1.0170
   99SAPS  H11X 9984   2.319   7.174   7.836 -0.9965 -0.9687  2.0189
   99SAPS  H11Y 9985   2.495   7.170   7.791  0.3519 -0.7234  0.9746
   99SAPS  C312 9986   2.436   7.030   7.943 -0.2773 -0.0343  0.4418
   99SAPS  H12X 9987   2.498   7.085   8.016 -0.0095 -0.5687  0.6231
   99SAPS  H12Y 9988   2.494   6.940   7.914  2.1917  1.7702 -0.5216
   99SAPS  C313 9989   2.317   6.980   8.024  0.6946 -0.2360 -0.5220
   99SAPS  H13X 9990   2.242   6.922   7.966  1.8158  0.8829 -3.2891
   99SAPS  H13Y 9991   2.257   7.070   8.051  1.3500 -0.2190  0.9511
   99SAPS  C314 9992   2.357   6.905   8.150 -0.1356  0.0691 -0.3717
   99SAPS  H14X 9993   2.435   6.969   8.196  0.9079  0.6267 -2.7567
   99SAPS  H14Y 9994   2.410   6.808   8.134  2.6354  1.1866  1.3231
   99SAPS  C315 9995   2.235   6.879   8.240 -0.2892 -0.6417 -0.6779
   99SAPS  H15X 9996   2.267   6.800   8.311  0.7231  0.3654  0.0252
   99SAPS  H15Y 9997   2.157   6.841   8.172 -0.2201  0.6566 -1.5148
   99SAPS  C316 9998   2.187   7.006   8.315 -0.1014  0.5791 -0.2935
   99SAPS  H16X 9999   2.173   7.090   8.244  2.8905  0.8436 -0.6876
   99SAPS  H16Y10000   2.267   7.035   8.386  0.5098 -1.0669 -0.2640
   99SAPS  C31710001   2.069   6.981   8.399  0.9235  1.4394 -0.3702
   99SAPS  H17X10002   2.093   6.899   8.471 -1.5099  0.9359 -0.0552
   99SAPS  H17Y10003   1.987   6.930   8.343  1.2222  0.8010 -0.2381
   99SAPS  C31810004   2.009   7.097   8.462 -0.0142 -0.3915 -0.7448
   99SAPS  H18X10005   2.010   7.186   8.396 -0.3972  0.1381 -0.0386
   99SAPS  H18Y10006   2.055   7.129   8.557 -1.2159 -0.4305 -0.1395
   99SAPS  H18Z10007   1.905   7.078   8.495 -0.0421 -0.6962 -0.9972
  100SAPS     N10008   4.568   2.116   6.388 -0.6787 -0.2193 -0.0163
  100SAPS   HN110009   4.659   2.129   6.340 -0.0692  0.5576  1.2884
  100SAPS   HN210010   4.499   2.194   6.382  0.6747  1.0342  0.1071
  100SAPS   HN310011   4.591   2.096   6.487 -0.6406  0.9315  0.2245
  100SAPS   C1210012   4.489   1.995   6.340 -1.5713 -0.5129  0.2037
  100SAPS  H12A10013   4.463   2.016   6.238 -1.8111  0.1618  0.3980
  100SAPS   C1310014   4.586   1.871   6.348  0.0596 -0.4064  0.3257
  100SAPS  O13A10015   4.711   1.879   6.379  0.4543  0.3173  0.1534
  100SAPS  O13B10016   4.540   1.762   6.321 -0.1742  0.5800  1.0608
  100SAPS   C1110017   4.352   1.985   6.408 -0.0057 -0.9129 -0.1067
  100SAPS  H11A10018   4.358   1.979   6.519  0.5072 -1.2670 -0.1510
  100SAPS  H11B10019   4.315   1.888   6.366  2.1758 -2.1666  0.6967
  100SAPS     P10020   4.115   2.085   6.384  0.2939 -0.1255 -0.0185
  100SAPS   O1310021   4.057   2.219   6.401  0.1288 -0.3572  0.0999
  100SAPS   O1410022   4.060   1.996   6.282  0.3631  0.0570 -0.2545
  100SAPS   O1210023   4.273   2.101   6.361  0.2491  0.5784  0.1807
  100SAPS   O1110024   4.103   2.005   6.518  0.5359  0.0624 -0.3993
  100SAPS    C110025   4.107   2.063   6.646 -0.3730  0.3439 -0.1483
  100SAPS    HA10026   4.212   2.064   6.683 -1.1417 -1.4815  2.3977
  100SAPS    HB10027   4.079   2.170   6.645  0.9307  0.7063 -0.3823
  100SAPS    C210028   4.017   1.990   6.754  0.5565  0.5919 -0.2824
  100SAPS    HS10029   4.022   2.058   6.842  0.5441  0.0312  0.1507
  100SAPS   O2110030   4.062   1.862   6.790 -0.3285  0.4001 -0.4583
  100SAPS   C2110031   4.176   1.865   6.859  0.3854 -0.5937 -0.0322
  100SAPS   O2210032   4.234   1.964   6.899  0.4134 -0.4851  0.2195
  100SAPS   C2210033   4.228   1.720   6.891  0.0760 -0.2008  0.0324
  100SAPS   H2R10034   4.190   1.653   6.812 -2.6905 -0.6232  1.5858
  100SAPS   H2S10035   4.338   1.734   6.881  0.1243  0.0848  0.8722
  100SAPS    C310036   3.871   1.978   6.710 -0.1217 -0.4932  0.4829
  100SAPS    HX10037   3.868   1.910   6.623 -1.8159  0.8133 -0.5439
  100SAPS    HY10038   3.844   2.077   6.666 -1.6351 -1.0207  0.1813
  100SAPS   O3110039   3.783   1.941   6.822 -0.3934 -0.0825 -0.3747
  100SAPS   C3110040   3.738   2.044   6.895 -0.8616  0.2964 -0.1465
  100SAPS   O3210041   3.755   2.165   6.863 -0.4622  0.6152 -0.0433
  100SAPS   C3210042   3.657   1.997   7.014 -0.3722  0.0919 -0.2003
  100SAPS   H2X10043   3.702   1.902   7.050 -3.1080 -2.3342 -2.7184
  100SAPS   H2Y10044   3.553   1.975   6.984 -0.3422  0.1862 -0.3775
  100SAPS   C2310045   4.208   1.671   7.030 -0.0999  0.8519  0.2701
  100SAPS   H3R10046   4.101   1.650   7.053  0.0289  0.6393  0.6835
  100SAPS   H3S10047   4.230   1.744   7.110  2.6638 -1.1177  1.4746
  100SAPS   C2410048   4.311   1.557   7.068  0.5613 -0.1235  0.3138
  100SAPS   H4R10049   4.299   1.549   7.179 -0.6630 -0.2321  0.1887
  100SAPS   H4S10050   4.407   1.596   7.029 -0.6225  0.6550 -2.0077
  100SAPS   C2510051   4.302   1.436   6.993  0.1335  0.4007  0.5735
  100SAPS   H5R10052   4.350   1.437   6.893 -0.5646  0.1230  0.2300
  100SAPS   C2610053   4.253   1.316   7.034  0.2249  0.7023 -0.1640
  100SAPS   H6R10054   4.271   1.227   6.973 -3.8313 -0.2684 -0.2361
  100SAPS   C2710055   4.192   1.288   7.166 -0.3193 -0.1545 -0.1859
  100SAPS   H7R10056   4.229   1.363   7.239  1.2913  0.0374 -1.1564
  100SAPS   H7S10057   4.236   1.192   7.198 -0.9470 -0.2355  0.4493
  100SAPS   C2810058   4.043   1.292   7.149 -0.5069 -0.9538 -0.3989
  100SAPS   H8R10059   4.012   1.222   7.069  1.7015 -1.7037 -0.6609
  100SAPS   C2910060   3.956   1.367   7.215  0.2216  0.1228 -0.5736
  100SAPS   H9R10061   3.851   1.334   7.213  0.5578 -1.6856  2.8381
  100SAPS  C21010062   3.995   1.458   7.324 -0.7747 -0.7988 -0.0364
  100SAPS  H10R10063   4.099   1.495   7.315 -1.6678  1.7345 -0.7985
  100SAPS  H10S10064   4.000   1.396   7.416  1.9802  0.6798  0.8998
  100SAPS  C21110065   3.906   1.589   7.341  0.0554  0.2072  0.1287
  100SAPS  H11R10066   3.815   1.605   7.281  0.7576  1.7378 -0.5767
  100SAPS  C21210067   3.945   1.691   7.419  0.1056  0.1293  0.6026
  100SAPS  H12R10068   3.881   1.778   7.439  1.2845  1.4381 -1.0716
  100SAPS  C21310069   4.073   1.695   7.507  0.5204 -0.2545 -0.2894
  100SAPS  H13R10070   4.111   1.799   7.506 -0.0644  0.0038  1.4081
  100SAPS  H13S10071   4.155   1.634   7.464 -0.0576 -0.1830 -1.5401
  100SAPS  C21410072   4.044   1.657   7.649 -0.1612  0.9378  0.0744
  100SAPS  H14R10073   3.965   1.711   7.703  1.7337  1.3505  2.6465
  100SAPS  C21510074   4.116   1.568   7.722 -0.0907 -0.2373  0.3181
  100SAPS  H15R10075   4.086   1.571   7.827 -0.2218  1.5413  0.2728
  100SAPS  C21610076   4.231   1.485   7.667  0.0648 -0.5495 -1.3818
  100SAPS  H16R10077   4.283   1.529   7.579 -1.0988  0.2374 -1.6851
  100SAPS  H16S10078   4.179   1.393   7.632  0.1459  0.1658 -3.5256
  100SAPS  C21710079   4.329   1.441   7.778 -0.5750  0.3425 -1.6261
  100SAPS  H17R10080   4.385   1.529   7.816 -0.3511 -1.0403  1.6426
  100SAPS  H17S10081   4.399   1.372   7.726  3.0499  3.0470 -0.7853
  100SAPS  C21810082   4.258   1.372   7.891  0.1469 -0.0892 -0.2978
  100SAPS  H18R10083   4.215   1.278   7.850  1.7934  0.6890 -4.2456
  100SAPS  H18S10084   4.182   1.438   7.937  1.0233 -0.4684  1.7833
  100SAPS  C21910085   4.349   1.347   8.016  0.6159 -0.5560  0.6545
  100SAPS  H19R10086   4.408   1.439   8.033 -1.6577  1.1414 -0.1063
  100SAPS  H19S10087   4.404   1.255   7.985 -0.7569 -1.1226 -0.2086
  100SAPS  C22010088   4.258   1.306   8.132 -0.3545 -0.1190 -0.9578
  100SAPS  H20R10089   4.314   1.270   8.221 -1.7288  0.9879  0.4032
  100SAPS  H20S10090   4.191   1.222   8.103 -2.1192  0.3854  1.4187
  100SAPS  H20T10091   4.189   1.390   8.155  0.2578 -0.4967  2.9488
  100SAPS   C3310092   3.676   2.095   7.132 -0.9421 -0.1805  0.4564
  100SAPS   H3X10093   3.623   2.186   7.098  0.6000 -0.1674 -2.2542
  100SAPS   H3Y10094   3.783   2.125   7.127 -1.3658  1.1847 -2.3252
  100SAPS   C3410095   3.633   2.037   7.263  0.7675  0.5329 -0.2641
  100SAPS   H4X10096   3.670   1.933   7.274  2.0327  0.7948 -1.7729
  100SAPS   H4Y10097   3.522   2.039   7.262  0.7382  3.6215  0.0548
  100SAPS   C3510098   3.685   2.123   7.384 -0.1485  1.0963 -0.2683
  100SAPS   H5X10099   3.600   2.184   7.422 -0.5978 -0.2160  0.9353
  100SAPS   H5Y10100   3.764   2.189   7.342  0.8404 -0.5589 -1.0972
  100SAPS   C3610101   3.737   2.038   7.499 -0.5451 -0.5979 -0.9133
  100SAPS   H6X10102   3.842   2.009   7.476 -0.6937 -1.3079 -0.7397
  100SAPS   H6Y10103   3.692   1.937   7.512  0.9251 -1.0548  0.9632
  100SAPS   C3710104   3.730   2.102   7.639 -0.2798 -0.8781 -0.6913
  100SAPS   H7X10105   3.628   2.084   7.678 -1.0432  0.4930 -1.9507
  100SAPS   H7Y10106   3.734   2.212   7.622  1.2385 -0.8426 -0.3002
  100SAPS   C3810107   3.840   2.070   7.733 -0.2239  0.3066 -0.2330
  100SAPS   H8X10108   3.943   2.079   7.691 -1.3344  2.4805 -2.7818
  100SAPS   H8Y10109   3.823   1.964   7.763 -2.5612  0.6532 -0.1391
  100SAPS   C3910110   3.834   2.158   7.857  0.0297  0.2931 -0.3774
  100SAPS   H9X10111   3.727   2.157   7.885 -0.9014  1.2010 -3.4556
  100SAPS   H9Y10112   3.863   2.261   7.828  0.3306  0.2610 -0.1973
  100SAPS  C31010113   3.905   2.117   7.984  0.2686 -0.6186  0.1724
  100SAPS  H10X10114   3.873   2.019   8.024  1.0105 -1.0625 -0.3105
  100SAPS  H10Y10115   3.870   2.196   8.055 -0.5256  0.4159 -1.3079
  100SAPS  C31110116   4.060   2.101   7.979  0.0286 -0.6371  0.7257
  100SAPS  H11X10117   4.093   2.187   7.916 -0.7992  0.1319  1.3030
  100SAPS  H11Y10118   4.079   2.005   7.928 -0.0476 -0.7938  0.9908
  100SAPS  C31210119   4.129   2.092   8.112 -1.1631 -0.5957 -0.4830
  100SAPS  H12X10120   4.236   2.063   8.112  0.5081  4.5078 -1.0230
  100SAPS  H12Y10121   4.066   2.028   8.177 -0.3275 -0.1584  0.7888
  100SAPS  C31310122   4.142   2.229   8.182 -0.0373 -0.3771  0.2789
  100SAPS  H13X10123   4.054   2.289   8.150 -1.9000 -1.1404  3.5752
  100SAPS  H13Y10124   4.226   2.279   8.130  0.0326  0.2755  1.0057
  100SAPS  C31410125   4.173   2.222   8.333  1.0962 -0.0848 -0.9049
  100SAPS  H14X10126   4.261   2.278   8.371  1.2311 -0.9159  0.0694
  100SAPS  H14Y10127   4.181   2.116   8.366 -0.8080 -0.0442 -0.1356
  100SAPS  C31510128   4.050   2.280   8.414  0.1322  0.8234  0.4099
  100SAPS  H15X10129   3.954   2.244   8.371  2.3044 -2.3824 -2.2446
  100SAPS  H15Y10130   4.065   2.389   8.398 -1.2769  0.8814 -0.7096
  100SAPS  C31610131   4.054   2.242   8.560 -0.4028 -0.4609 -0.2804
  100SAPS  H16X10132   4.143   2.279   8.615  1.1199 -2.5044 -1.2431
  100SAPS  H16Y10133   4.048   2.131   8.570 -2.2976 -0.4022 -0.2980
  100SAPS  C31710134   3.928   2.293   8.626 -0.2659 -0.6261 -0.3237
  100SAPS  H17X10135   3.848   2.232   8.580 -0.9102 -0.0609  0.0299
  100SAPS  H17Y10136   3.922   2.402   8.603  0.5840 -0.5679 -0.3011
  100SAPS  C31810137   3.926   2.273   8.784 -0.6502 -0.3810  0.1070
  100SAPS  H18X10138   4.005   2.339   8.826 -1.3002 -0.8137  2.0883
  100SAPS  H18Y10139   3.954   2.168   8.802 -1.0193 -0.5132 -0.0750
  100SAPS  H18Z10140   3.826   2.297   8.824 -0.0786 -0.4235  1.6108
  101OSM      N10141   1.611   3.848  10.812  0.6359  0.2123 -0.2743
  101OSM    C1510142   1.584   3.833  10.958  0.3148  0.8359  0.3614
  101OSM   H15A10143   1.520   3.911  10.995  0.5883  1.0870  0.3042
  101OSM   H15B10144   1.669   3.834  11.024 -1.1689  1.0070  2.3678
  101OSM   H15C10145   1.540   3.735  10.973  2.5818 -0.6375 -1.9577
  101OSM    C1410146   1.701   3.736  10.765  0.6657 -0.8475 -0.3630
  101OSM   H14A10147   1.720   3.755  10.660  0.9647 -1.8010 -0.4881
  101OSM   H14B10148   1.655   3.640  10.780  2.1164 -1.4434  0.4831
  101OSM   H14C10149   1.794   3.733  10.820 -0.4219 -0.4141  1.5948
  101OSM    C1310150   1.481   3.814  10.742  0.1339  0.5116  0.0941
  101OSM   H13A10151   1.420   3.902  10.725 -0.8901 -0.0210  0.8816
  101OSM   H13B10152   1.418   3.763  10.813  0.6667  1.0972  1.0191
  101OSM   H13C10153   1.497   3.756  10.653 -0.3472 -0.6926  0.7735
  101OSM    C1210154   1.668   3.980  10.779 -0.1065 -0.1818 -0.1966
  101OSM   H12A10155   1.683   3.979  10.672  0.9081 -2.0051 -0.0680
  101OSM   H12B10156   1.771   3.987  10.811  0.5033 -0.4179 -1.9986
  101OSM    C1110157   1.590   4.105  10.816  0.4361  0.3937 -0.8551
  101OSM   H11A10158   1.636   4.196  10.773 -1.4615  2.4391  1.1771
  101OSM   H11B10159   1.593   4.112  10.926 -1.0575  2.5079 -0.8880
  101OSM      P10160   1.369   4.208  10.743 -0.5002  0.4909  0.1214
  101OSM    O1310161   1.234   4.168  10.692 -0.4326  0.2086 -0.2700
  101OSM    O1410162   1.381   4.312  10.847 -0.1023  0.0322  0.1392
  101OSM    O1110163   1.450   4.257  10.619  0.7477  0.4368  0.1643
  101OSM    O1210164   1.459   4.081  10.786  0.1220  0.3637  0.1562
  101OSM    C1S10165   1.509   4.174  10.522 -0.0709  0.1471  0.2721
  101OSM    H1S10166   1.446   4.086  10.499 -0.6965  0.1768  1.7871
  101OSM    H1T10167   1.605   4.136  10.562  0.0466  0.6554  0.4781
  101OSM     NF10168   1.584   4.134  10.286  0.5026  0.3454  0.5195
  101OSM    HNF10169   1.683   4.137  10.274  0.4685 -1.4172 -0.6971
  101OSM    C2S10170   1.531   4.238  10.383 -0.3654 -0.8363  0.3378
  101OSM    H2S10171   1.432   4.269  10.342 -0.2508 -0.1907  0.5329
  101OSM    C3S10172   1.626   4.364  10.410  0.8368  0.0988 -0.2434
  101OSM    H3S10173   1.723   4.321  10.443  0.9375 -0.0257 -0.6875
  101OSM     O310174   1.577   4.457  10.510 -0.2433  1.0355 -0.2570
  101OSM    HO310175   1.519   4.406  10.567  0.3313  0.7947  0.1194
  101OSM    C4S10176   1.645   4.441  10.284  0.2709  0.1527  0.5100
  101OSM    H4S10177   1.561   4.504  10.252 -0.3473 -1.7994 -1.9874
  101OSM    C5S10178   1.755   4.434  10.208 -0.0628 -0.5415 -0.0424
  101OSM    H5S10179   1.840   4.368  10.233 -0.3013 -1.3257 -1.2269
  101OSM    C6S10180   1.776   4.509  10.079  0.3336 -0.3358 -0.2471
  101OSM    H6S10181   1.812   4.437  10.002 -2.9135  1.2775 -3.5740
  101OSM    H6T10182   1.866   4.571  10.101 -0.0324 -0.8864  3.3464
  101OSM    C7S10183   1.649   4.577  10.017  0.1663  0.5956  0.0748
  101OSM    H7S10184   1.595   4.651  10.081 -2.2959 -1.6094  0.7224
  101OSM    H7T10185   1.575   4.495  10.021 -0.4636  1.1699  3.7343
  101OSM    C8S10186   1.662   4.635   9.875 -0.0766 -0.1018  0.0629
  101OSM    H8S10187   1.683   4.549   9.808  1.2886 -1.1370  1.7531
  101OSM    H8T10188   1.756   4.694   9.877  0.4894 -0.9924  1.3198
  101OSM    C9S10189   1.542   4.722   9.833 -0.2795  0.3640 -0.2863
  101OSM    H9S10190   1.511   4.792   9.914  0.5105  0.2849  0.0947
  101OSM    H9T10191   1.461   4.650   9.813  0.9265 -1.9766  2.5095
  101OSM   C10S10192   1.587   4.815   9.718 -0.6943 -0.1215  0.5164
  101OSM   H10S10193   1.635   4.762   9.633  1.9502  0.6756  1.3841
  101OSM   H10T10194   1.669   4.881   9.754  0.7691 -0.4063 -2.0348
  101OSM   C11S10195   1.475   4.899   9.662 -0.1942 -0.0031  0.8722
  101OSM   H11S10196   1.466   4.984   9.733 -0.3684  0.7940 -0.0872
  101OSM   H11T10197   1.378   4.846   9.673 -0.7829  0.5663 -1.2200
  101OSM   C12S10198   1.479   4.944   9.515  0.5962  0.1690 -0.9795
  101OSM   H12S10199   1.571   5.006   9.503 -0.5958  1.5604 -3.9252
  101OSM   H12T10200   1.408   5.023   9.482 -0.8458 -0.5311  0.3759
  101OSM   C13S10201   1.478   4.829   9.410  0.2151 -0.5759 -0.4398
  101OSM   H13S10202   1.376   4.787   9.410 -0.1199  0.2051 -1.2680
  101OSM   H13T10203   1.551   4.748   9.431  1.3596  0.7960  1.1338
  101OSM   C14S10204   1.509   4.884   9.270  0.6439  0.2026 -0.2281
  101OSM   H14S10205   1.600   4.946   9.268  0.9538 -0.2564 -1.3891
  101OSM   H14T10206   1.433   4.956   9.234 -0.1423  0.5485  1.9768
  101OSM   C15S10207   1.524   4.770   9.168  0.3683 -0.6253  0.2002
  101OSM   H15S10208   1.436   4.730   9.114  2.1843 -2.7227 -1.3861
  101OSM   H15T10209   1.556   4.678   9.222  1.1153 -0.0907  0.6996
  101OSM   C16S10210   1.628   4.787   9.059 -0.0794  0.0885 -0.6487
  101OSM   H16S10211   1.626   4.699   8.990  0.1039 -1.4713  1.2480
  101OSM   H16T10212   1.728   4.775   9.104  0.2955  2.1710 -0.8295
  101OSM   C17S10213   1.633   4.910   8.969 -0.1814  0.0510 -0.2276
  101OSM   H17S10214   1.651   5.002   9.028  1.5758 -1.4313  1.7139
  101OSM   H17T10215   1.539   4.915   8.910  0.8320  2.0676 -1.8030
  101OSM   C18S10216   1.748   4.901   8.867 -0.1804  0.0099  0.1590
  101OSM   H18S10217   1.843   4.896   8.924 -0.5700 -1.9617  0.7113
  101OSM   H18T10218   1.745   4.995   8.808 -2.0609  1.1256  1.9023
  101OSM   H18U10219   1.731   4.810   8.805 -1.1259  0.6921 -0.6037
  101OSM    C1F10220   1.521   4.033  10.240 -1.0984 -0.6215 -0.0926
  101OSM     OF10221   1.409   4.013  10.278 -0.2185  0.8941  0.0046
  101OSM    C2F10222   1.599   3.942  10.144  1.3239 -0.1346  0.4744
  101OSM    H2F10223   1.598   3.843  10.193 -1.5256 -1.1602 -1.4288
  101OSM    H2G10224   1.704   3.970  10.123  1.2566  0.8690  1.3555
  101OSM    C3F10225   1.513   3.922  10.015 -0.5575  0.2003  0.5550
  101OSM    H3F10226   1.417   3.875  10.045 -1.6052  2.1464  0.4541
  101OSM    H3G10227   1.554   3.851   9.941 -1.6349  2.1264 -2.0795
  101OSM    C4F10228   1.480   4.054   9.944 -0.2561 -0.1063 -0.0124
  101OSM    H4F10229   1.419   4.116  10.013 -0.1740 -0.8273  0.7301
  101OSM    H4G10230   1.413   4.036   9.858 -1.1123  1.6719  0.2571
  101OSM    C5F10231   1.600   4.147   9.911 -0.4369  0.4299 -0.2872
  101OSM    H5F10232   1.683   4.084   9.874 -0.3705  1.4882 -2.0721
  101OSM    H5G10233   1.636   4.192  10.005 -0.5844  0.0866 -0.0653
  101OSM    C6F10234   1.571   4.258   9.801  0.4371 -0.0629  0.5710
  101OSM    H6F10235   1.667   4.315   9.798  1.0625 -1.1269 -0.9024
  101OSM    H6G10236   1.490   4.325   9.838  1.6791  1.5869  0.4304
  101OSM    C7F10237   1.542   4.214   9.658  0.0862 -0.0786  0.0193
  101OSM    H7F10238   1.493   4.114   9.658 -1.2429  0.5389 -1.1395
  101OSM    H7G10239   1.644   4.197   9.617  0.6659  0.2038  1.2928
  101OSM    C8F10240   1.462   4.318   9.583  0.2950 -0.1780  0.0774
  101OSM    H8F10241   1.368   4.340   9.638 -0.0231 -2.2769  0.4636
  101OSM    H8G10242   1.424   4.266   9.493 -0.4294 -0.6097  0.6256
  101OSM    C9F10243   1.547   4.442   9.550 -0.2792  0.4516 -0.0620
  101OSM    H9F10244   1.509   4.534   9.596 -1.6241  0.3398 -0.8985
  101OSM   C10F10245   1.647   4.449   9.460 -0.4702 -0.6683  0.1628
  101OSM   H10F10246   1.698   4.545   9.446 -2.0068  0.5839  2.4709
  101OSM   C11F10247   1.702   4.329   9.380 -0.4662 -0.1240  0.0583
  101OSM   H11F10248   1.646   4.235   9.397 -0.8996  0.0499 -0.3923
  101OSM   H11G10249   1.809   4.318   9.407  0.1347  1.4261 -1.4741
  101OSM   C12F10250   1.684   4.372   9.236 -0.3089  0.0534 -0.1859
  101OSM   H12F10251   1.711   4.479   9.223 -1.8041  0.2461 -2.0383
  101OSM   H12G10252   1.576   4.376   9.210 -0.2191  1.3082 -0.4165
  101OSM   C13F10253   1.771   4.280   9.148  0.9995  0.4919 -0.4239
  101OSM   H13F10254   1.748   4.178   9.187  0.4013  0.4510 -0.8699
  101OSM   H13G10255   1.881   4.293   9.159  0.9464  1.9772 -1.4332
  101OSM   C14F10256   1.738   4.293   8.998  0.3568  0.4660  0.5231
  101OSM   H14F10257   1.629   4.277   8.987  0.1210  2.6372 -0.7682
  101OSM   H14G10258   1.789   4.220   8.932  1.2898  1.2162  0.3930
  101OSM   C15F10259   1.776   4.427   8.938  0.0304  0.0289  0.0583
  101OSM   H15F10260   1.887   4.437   8.944  0.2524 -0.6323 -2.0964
  101OSM   H15G10261   1.735   4.512   8.997 -0.9098  1.0527 -1.9764
  101OSM   C16F10262   1.735   4.433   8.787  0.0411  0.0092  0.3565
  101OSM   H16F10263   1.781   4.352   8.727  3.1365  4.0546 -3.3333
  101OSM   H16G10264   1.781   4.517   8.731  0.1095  1.0295  1.8556
  101OSM   C17F10265   1.580   4.437   8.761 -0.1684  1.1828  0.3382
  101OSM   H17F10266   1.558   4.507   8.678 -0.1701  0.3322 -0.3990
  101OSM   H17G10267   1.530   4.470   8.854  0.5742 -1.2695  1.6899
  101OSM   C18F10268   1.520   4.308   8.714  0.1632  0.6120 -0.2896
  101OSM   H18F10269   1.412   4.307   8.739  0.2406 -2.9911  0.3897
  101OSM   H18G10270   1.573   4.217   8.749 -0.5194 -0.7423 -2.5531
  101OSM   H18H10271   1.536   4.309   8.604  0.9971  1.7880 -0.1740
  102OSM      N10272   2.290   2.773  10.763 -0.2053 -0.2238  0.7862
  102OSM    C1510273   2.298   2.702  10.905 -0.6133 -0.4784  0.1951
  102OSM   H15A10274   2.251   2.605  10.898  0.9113 -1.1809 -0.9907
  102OSM   H15B10275   2.259   2.766  10.982  0.2501  0.7568 -0.3455
  102OSM   H15C10276   2.403   2.681  10.920  0.2004  2.2256 -0.9795
  102OSM    C1410277   2.315   2.670  10.659  0.3805 -0.4614 -0.3860
  102OSM   H14A10278   2.307   2.720  10.564  0.8800  0.4767  0.0565
  102OSM   H14B10279   2.233   2.599  10.654  0.4273 -0.4601 -1.6832
  102OSM   H14C10280   2.417   2.634  10.667  0.8686  0.7857 -0.8104
  102OSM    C1310281   2.151   2.821  10.762 -0.1050  1.1010 -0.1191
  102OSM   H13A10282   2.098   2.753  10.828  1.8141 -0.0928  0.2714
  102OSM   H13B10283   2.125   2.832  10.658 -0.8598 -0.1225 -0.0832
  102OSM   H13C10284   2.148   2.918  10.809 -1.3953 -0.6557  3.9369
  102OSM    C1210285   2.380   2.891  10.738 -0.0947  0.1351 -0.1745
  102OSM   H12A10286   2.346   2.945  10.650 -0.7128  1.9267  1.1117
  102OSM   H12B10287   2.472   2.837  10.721 -0.2310  0.0202 -0.5744
  102OSM    C1110288   2.396   3.002  10.843 -0.2395  0.2928 -0.0505
  102OSM   H11A10289   2.478   3.075  10.823 -0.8758  1.0280 -0.0438
  102OSM   H11B10290   2.436   2.959  10.937  4.4361  1.2998 -1.3260
  102OSM      P10291   2.237   3.201  10.767 -0.1777  0.1194 -0.4258
  102OSM    O1310292   2.115   3.262  10.826 -0.4050 -0.6327  0.0901
  102OSM    O1410293   2.364   3.285  10.763 -0.1273 -0.8129  0.6589
  102OSM    O1110294   2.210   3.136  10.624 -0.0076  0.2019  0.6850
  102OSM    O1210295   2.274   3.072  10.849  0.6999 -0.1119  0.1790
  102OSM    C1S10296   2.093   3.174  10.546 -0.0371  0.3032  0.1530
  102OSM    H1S10297   2.074   3.283  10.553 -2.4315 -0.1026  0.5425
  102OSM    H1T10298   2.004   3.121  10.584 -0.7486  0.9126 -0.6253
  102OSM     NF10299   1.991   3.176  10.325 -0.2257 -0.4006 -0.0473
  102OSM    HNF10300   1.919   3.117  10.288 -0.8536  1.9555 -2.9977
  102OSM    C2S10301   2.113   3.138  10.394  0.7126  0.7113 -0.1285
  102OSM    H2S10302   2.201   3.194  10.356  0.0352  2.0415  0.1985
  102OSM    C3S10303   2.145   2.983  10.387  0.1927  0.1605  0.9593
  102OSM    H3S10304   2.064   2.928  10.439 -0.6364 -0.2328 -0.6700
  102OSM     O310305   2.266   2.941  10.456 -0.3113 -0.0603 -0.0359
  102OSM    HO310306   2.286   3.015  10.514 -1.0325  1.1802 -1.2965
  102OSM    C4S10307   2.149   2.921  10.245 -0.5068 -0.0638 -0.1670
  102OSM    H4S10308   2.235   2.952  10.184  0.6008  0.9145  1.8042
  102OSM    C5S10309   2.064   2.833  10.196  0.2245  0.5317 -0.3385
  102OSM    H5S10310   1.975   2.805  10.254  1.0494  0.7756  1.1020
  102OSM    C6S10311   2.081   2.760  10.072 -0.3788 -0.2612 -0.9401
  102OSM    H6S10312   2.048   2.657  10.100 -0.6462  0.6629  2.7113
  102OSM    H6T10313   2.187   2.764  10.040  0.6883  2.3252  2.2879
  102OSM    C7S10314   2.001   2.808   9.951 -0.0166 -0.4838  0.4546
  102OSM    H7S10315   2.051   2.896   9.906 -0.9708 -0.1685 -0.0266
  102OSM    H7T10316   1.897   2.830   9.983  0.2011 -1.8478  2.2287
  102OSM    C8S10317   1.980   2.707   9.833  0.3791  0.0877 -0.1008
  102OSM    H8S10318   1.921   2.620   9.869  1.4464 -1.2308 -1.4142
  102OSM    H8T10319   2.083   2.669   9.819 -0.1736 -1.5999  0.1797
  102OSM    C9S10320   1.915   2.777   9.706 -0.1768  0.4423 -0.4914
  102OSM    H9S10321   1.962   2.878   9.702 -1.6775  1.1710 -0.3222
  102OSM    H9T10322   1.804   2.785   9.700 -0.4586 -1.4668  1.2079
  102OSM   C10S10323   1.959   2.709   9.570  0.6398  0.1330  0.0586
  102OSM   H10S10324   1.889   2.625   9.548  1.8736 -0.4583 -1.8711
  102OSM   H10T10325   2.055   2.656   9.585  0.4639  0.3373  2.2988
  102OSM   C11S10326   1.955   2.788   9.436 -0.2308  0.0217 -0.2894
  102OSM   H11S10327   2.027   2.872   9.446 -0.3630  0.1629 -0.5062
  102OSM   H11T10328   1.856   2.829   9.408 -0.8334 -1.2595 -0.1238
  102OSM   C12S10329   2.008   2.693   9.325  0.1218  0.0799  0.1331
  102OSM   H12S10330   1.948   2.600   9.333  1.0903 -0.6609 -0.9090
  102OSM   H12T10331   2.113   2.660   9.343 -0.0748 -1.4698 -1.3065
  102OSM   C13S10332   1.995   2.747   9.177  0.0721 -0.0506  0.3186
  102OSM   H13S10333   1.888   2.756   9.152  0.5870 -0.3697 -2.2845
  102OSM   H13T10334   2.040   2.676   9.105 -0.8251  0.2054 -0.5083
  102OSM   C14S10335   2.072   2.883   9.163  0.0630  0.2567 -0.7763
  102OSM   H14S10336   2.160   2.871   9.230 -1.6355  1.7341  1.8997
  102OSM   H14T10337   1.993   2.945   9.211  0.4821 -1.3707  2.2745
  102OSM   C15S10338   2.092   2.917   9.017 -0.4707 -0.3670  0.1648
  102OSM   H15S10339   2.089   2.822   8.959 -0.3877  0.2093 -0.8100
  102OSM   H15T10340   2.189   2.971   9.008 -0.2301 -1.0894 -2.5755
  102OSM   C16S10341   1.970   2.999   8.975 -0.0261 -0.2985  0.3109
  102OSM   H16S10342   1.984   3.100   9.021 -3.0641  1.0884 -1.4604
  102OSM   H16T10343   1.874   2.954   9.005  0.5965 -0.1347  2.7465
  102OSM   C17S10344   1.965   3.015   8.815 -0.4001  0.2780  0.5055
  102OSM   H17S10345   1.993   2.915   8.776  3.2814  1.6135 -0.6045
  102OSM   H17T10346   2.051   3.076   8.782  1.2258 -1.4515  1.3246
  102OSM   C18S10347   1.827   3.055   8.768 -0.0589 -0.1038  0.1750
  102OSM   H18S10348   1.829   3.108   8.670 -2.8894  2.0644  1.1358
  102OSM   H18T10349   1.772   3.126   8.834 -3.0848 -0.5995 -1.6235
  102OSM   H18U10350   1.775   2.957   8.771  1.4065 -0.8794  1.7473
  102OSM    C1F10351   1.979   3.306  10.286 -0.1526  0.4432 -0.5299
  102OSM     OF10352   2.067   3.384  10.316 -0.1595 -0.2804  0.3656
  102OSM    C2F10353   1.854   3.345  10.215  0.6193  0.4812  0.0376
  102OSM    H2F10354   1.783   3.390  10.287 -1.1315 -1.7398 -0.1882
  102OSM    H2G10355   1.814   3.256  10.162  2.5412 -0.2982 -0.1971
  102OSM    C3F10356   1.896   3.444  10.097  0.5434 -0.1220 -0.7699
  102OSM    H3F10357   1.984   3.407  10.038 -0.1354 -0.9218 -1.3088
  102OSM    H3G10358   1.933   3.533  10.153 -0.6032 -0.6060  0.8096
  102OSM    C4F10359   1.777   3.485  10.009  0.4615 -0.4090 -0.4504
  102OSM    H4F10360   1.700   3.536  10.071 -1.1207 -1.4094 -1.4908
  102OSM    H4G10361   1.731   3.390   9.973  1.3383 -0.7161 -0.7679
  102OSM    C5F10362   1.826   3.582   9.901  0.1306 -0.1915  0.8537
  102OSM    H5F10363   1.926   3.549   9.864 -0.6660  0.1286 -1.7598
  102OSM    H5G10364   1.845   3.677   9.957  1.7598 -0.8147  1.4381
  102OSM    C6F10365   1.733   3.613   9.789 -0.1554  0.6600  0.2741
  102OSM    H6F10366   1.651   3.679   9.825 -0.5750  1.5287 -2.0646
  102OSM    H6G10367   1.690   3.521   9.744  0.4254  0.7251 -0.4417
  102OSM    C7F10368   1.810   3.692   9.678 -0.9002 -0.5126 -0.0122
  102OSM    H7F10369   1.900   3.639   9.640 -0.4393  0.2414  0.0117
  102OSM    H7G10370   1.832   3.788   9.730 -1.5873  0.3313 -1.2320
  102OSM    C8F10371   1.726   3.740   9.555 -0.5269  0.8105 -0.8341
  102OSM    H8F10372   1.687   3.646   9.510  1.5103 -1.7786  2.3979
  102OSM    H8G10373   1.794   3.794   9.486  0.5610 -0.2161 -0.5981
  102OSM    C9F10374   1.606   3.827   9.597  0.3527 -0.6366 -0.1841
  102OSM    H9F10375   1.613   3.876   9.696 -1.0159  0.1032 -0.4335
  102OSM   C10F10376   1.504   3.854   9.517 -0.2920  0.3286  0.2084
  102OSM   H10F10377   1.422   3.919   9.551 -2.8365 -1.3295 -2.3146
  102OSM   C11F10378   1.483   3.804   9.378  0.7169 -0.3987 -0.3430
  102OSM   H11F10379   1.375   3.796   9.356  0.8957 -0.4057 -1.2503
  102OSM   H11G10380   1.527   3.703   9.368 -2.3354 -1.8895  0.3872
  102OSM   C12F10381   1.545   3.895   9.268  0.4945 -0.4063  0.1078
  102OSM   H12F10382   1.637   3.939   9.312 -0.6944  1.1282  1.1667
  102OSM   H12G10383   1.474   3.976   9.243 -0.9204 -2.3970 -2.8892
  102OSM   C13F10384   1.579   3.820   9.133  0.2263 -0.0990  0.2944
  102OSM   H13F10385   1.489   3.766   9.097  1.0353 -1.0232 -0.3937
  102OSM   H13G10386   1.663   3.753   9.159 -0.0052  0.2604  2.1183
  102OSM   C14F10387   1.631   3.907   9.024  0.2154  0.7000  0.2540
  102OSM   H14F10388   1.718   3.972   9.049  1.1864  0.3288 -1.9259
  102OSM   H14G10389   1.553   3.980   8.992 -1.2643 -0.0158  2.0645
  102OSM   C15F10390   1.680   3.839   8.897  0.9615  0.5389  0.2084
  102OSM   H15F10391   1.594   3.786   8.850  1.2018 -0.7522  1.1601
  102OSM   H15G10392   1.754   3.759   8.917 -0.9436 -1.2715  0.3507
  102OSM   C16F10393   1.730   3.931   8.776 -0.0021 -0.0154 -0.2786
  102OSM   H16F10394   1.683   4.031   8.787 -0.5713 -0.3168  0.0871
  102OSM   H16G10395   1.701   3.872   8.686  0.0527 -1.1843  0.4366
  102OSM   C17F10396   1.884   3.936   8.765 -0.1344  0.4305 -0.4415
  102OSM   H17F10397   1.927   3.839   8.798 -0.8571  1.0677  2.6899
  102OSM   H17G10398   1.921   4.017   8.831 -0.6421  0.9268 -0.7646
  102OSM   C18F10399   1.928   3.950   8.622 -0.0689  0.4288  0.6963
  102OSM   H18F10400   1.873   4.037   8.580 -2.5929 -0.1984  2.4754
  102OSM   H18G10401   1.898   3.856   8.570 -0.2005  1.9396 -2.1796
  102OSM   H18H10402   2.037   3.969   8.622 -0.4288  2.8034 -0.2541
  103OSM      N10403   3.164   5.067  10.999 -0.2035  0.2252  0.2113
  103OSM    C1510404   3.244   5.193  11.024 -0.4189 -0.7130  0.1630
  103OSM   H15A10405   3.196   5.256  11.098  1.5739 -0.0915  1.0024
  103OSM   H15B10406   3.272   5.253  10.939  0.5523  0.6870  1.4227
  103OSM   H15C10407   3.336   5.169  11.075  0.3408  0.3389 -0.6829
  103OSM    C1410408   3.236   4.983  10.897 -0.0697 -0.7305 -0.9969
  103OSM   H14A10409   3.178   4.899  10.860 -1.7286 -0.0746  0.0115
  103OSM   H14B10410   3.320   4.933  10.941 -0.2500 -0.3931 -0.2627
  103OSM   H14C10411   3.278   5.049  10.823  0.6424  2.5644  2.0985
  103OSM    C1310412   3.163   4.994  11.127  0.3611  0.0354  0.3153
  103OSM   H13A10413   3.125   4.896  11.105 -2.2129  1.4030 -2.0310
  103OSM   H13B10414   3.116   5.044  11.210 -1.9022 -0.1128 -0.7946
  103OSM   H13C10415   3.262   4.978  11.166  0.5418  1.0004  0.2746
  103OSM    C1210416   3.029   5.100  10.952  0.6884 -0.7844 -0.1825
  103OSM   H12A10417   2.971   5.010  10.934  0.5078 -1.4247  2.9611
  103OSM   H12B10418   3.035   5.149  10.856 -1.5089  2.7206  1.2532
  103OSM    C1110419   2.934   5.179  11.045 -0.2348  0.2569 -0.1791
  103OSM   H11A10420   2.940   5.124  11.142 -0.6840 -2.3670 -1.5573
  103OSM   H11B10421   2.826   5.185  11.019 -0.3985  0.5644  0.5421
  103OSM      P10422   2.908   5.438  11.022 -0.1591  0.5042 -0.3027
  103OSM    O1310423   2.759   5.415  11.035  0.4070 -0.4933 -0.3194
  103OSM    O1410424   2.963   5.563  11.090 -0.1860  0.2326 -0.2514
  103OSM    O1110425   2.947   5.435  10.865 -0.4210  0.2653 -0.2087
  103OSM    O1210426   2.986   5.310  11.068 -0.2151  0.1454 -0.4312
  103OSM    C1S10427   2.886   5.541  10.786 -0.0503  0.4403 -0.4115
  103OSM    H1S10428   2.955   5.628  10.790  0.4171  0.1074 -1.0924
  103OSM    H1T10429   2.788   5.579  10.822 -0.2624 -1.3756  1.0700
  103OSM     NF10430   2.830   5.607  10.553 -0.1193  0.2283 -0.1135
  103OSM    HNF10431   2.734   5.633  10.546  0.1239  1.1590 -0.1580
  103OSM    C2S10432   2.865   5.497  10.636 -0.5378  1.0736 -0.2328
  103OSM    H2S10433   2.961   5.456  10.598  1.0894  2.4337  2.1292
  103OSM    C3S10434   2.751   5.390  10.633 -0.4453  0.0704  0.0596
  103OSM    H3S10435   2.657   5.445  10.654 -0.4940  0.1021 -0.2337
  103OSM     O310436   2.766   5.287  10.722 -0.0453  0.2445  0.3854
  103OSM    HO310437   2.840   5.304  10.780 -0.8282 -1.3040  1.9313
  103OSM    C4S10438   2.722   5.341  10.484 -0.3108 -1.0084 -0.0645
  103OSM    H4S10439   2.639   5.399  10.440  0.9238  2.5681  1.9536
  103OSM    C5S10440   2.764   5.235  10.416  0.0380 -0.7126 -0.1032
  103OSM    H5S10441   2.832   5.173  10.477  0.3823  2.1689  2.7008
  103OSM    C6S10442   2.726   5.198  10.279 -0.0067  0.6813  0.2580
  103OSM    H6S10443   2.640   5.261  10.247 -0.2688  1.7510  2.8132
  103OSM    H6T10444   2.704   5.089  10.283  3.0086  0.0204  1.7238
  103OSM    C7S10445   2.842   5.230  10.189 -0.3668 -0.9522 -0.1137
  103OSM    H7S10446   2.936   5.173  10.204 -1.4534 -2.5150  1.0724
  103OSM    H7T10447   2.869   5.338  10.183 -1.3656 -0.7255 -1.0017
  103OSM    C8S10448   2.809   5.195  10.035 -0.2038  0.1831  0.9201
  103OSM    H8S10449   2.716   5.250  10.010 -0.8555 -1.0095  0.6358
  103OSM    H8T10450   2.783   5.087  10.035 -0.5068  0.1877 -1.6286
  103OSM    C9S10451   2.912   5.235   9.935  0.4174 -0.5845  0.5421
  103OSM    H9S10452   3.016   5.201   9.956  1.8884  3.4928  0.9397
  103OSM    H9T10453   2.919   5.346   9.937 -0.7462 -0.4861 -0.1006
  103OSM   C10S10454   2.863   5.205   9.790 -0.5788 -0.5769  0.1244
  103OSM   H10S10455   2.819   5.103   9.790 -2.2887  0.1217 -0.5711
  103OSM   H10T10456   2.948   5.199   9.719 -0.7377  0.9687 -0.2364
  103OSM   C11S10457   2.751   5.298   9.739  0.4435 -0.2234 -0.4028
  103OSM   H11S10458   2.798   5.387   9.692 -0.5796 -0.0522 -1.1307
  103OSM   H11T10459   2.678   5.325   9.819 -0.0378  0.6779 -1.1317
  103OSM   C12S10460   2.679   5.231   9.634 -0.1205  0.0246  0.7981
  103OSM   H12S10461   2.594   5.299   9.612  0.5203  0.7547  0.5168
  103OSM   H12T10462   2.633   5.137   9.673 -1.5149  0.4030  0.1266
  103OSM   C13S10463   2.754   5.187   9.506  0.1482  0.4469  0.9008
  103OSM   H13S10464   2.679   5.144   9.437  1.4394  1.7217 -1.4514
  103OSM   H13T10465   2.837   5.115   9.522 -0.6313 -0.8182 -0.5165
  103OSM   C14S10466   2.801   5.312   9.421  0.4209  0.2890 -0.5583
  103OSM   H14S10467   2.858   5.270   9.336  1.7491 -1.1602  0.9900
  103OSM   H14T10468   2.874   5.369   9.483  1.6010 -0.4907 -1.2059
  103OSM   C15S10469   2.675   5.391   9.385  0.2041 -0.0405 -0.5570
  103OSM   H15S10470   2.645   5.458   9.468 -2.5257  1.7261 -2.7855
  103OSM   H15T10471   2.592   5.323   9.356 -0.5883 -0.2270  1.9664
  103OSM   C16S10472   2.690   5.484   9.267 -0.7696 -0.4135  0.3189
  103OSM   H16S10473   2.798   5.508   9.258 -1.2131  1.6135  0.1428
  103OSM   H16T10474   2.635   5.577   9.290  1.2960  0.8304  0.4772
  103OSM   C17S10475   2.651   5.423   9.127 -0.0995  0.0259 -0.0600
  103OSM   H17S10476   2.672   5.493   9.044 -3.7534  2.7644  1.0920
  103OSM   H17T10477   2.540   5.418   9.131 -0.1141 -0.3084 -0.7459
  103OSM   C18S10478   2.694   5.279   9.092  0.2088 -0.1285 -0.0154
  103OSM   H18S10479   2.645   5.215   9.168 -1.6531  1.2163 -0.0013
  103OSM   H18T10480   2.805   5.275   9.101  0.5093 -0.2981 -2.7191
  103OSM   H18U10481   2.661   5.252   8.989 -1.8938 -1.2620  0.9028
  103OSM    C1F10482   2.912   5.702  10.513  0.2651 -0.0465  0.2032
  103OSM     OF10483   3.037   5.693  10.535  0.2561 -0.1823 -0.1806
  103OSM    C2F10484   2.841   5.818  10.443  0.0589 -0.4491 -1.0005
  103OSM    H2F10485   2.861   5.907  10.506  3.2295 -0.4093 -1.8883
  103OSM    H2G10486   2.734   5.793  10.426 -0.0336 -2.6413  2.0470
  103OSM    C3F10487   2.906   5.852  10.309 -0.1891  0.4949  1.3874
  103OSM    H3F10488   2.901   5.755  10.253  0.2232  0.7676  0.8701
  103OSM    H3G10489   3.010   5.889  10.314 -0.0141  1.4052 -3.5651
  103OSM    C4F10490   2.841   5.969  10.238 -0.4314 -0.3261 -0.5042
  103OSM    H4F10491   2.873   6.059  10.295  0.1521  0.0349 -1.3781
  103OSM    H4G10492   2.731   5.956  10.244 -0.3371 -1.2791 -0.7169
  103OSM    C5F10493   2.894   5.972  10.088  0.2792  0.1373 -0.1618
  103OSM    H5F10494   2.924   5.869  10.060 -1.5154 -0.6237  0.5850
  103OSM    H5G10495   2.976   6.046  10.075 -0.2498  0.8254  0.3349
  103OSM    C6F10496   2.780   6.003   9.991  1.2474 -0.4812  0.0005
  103OSM    H6F10497   2.723   6.088  10.034  1.5826  0.2579 -0.9864
  103OSM    H6G10498   2.706   5.921   9.980 -1.4403  1.4482  2.3783
  103OSM    C7F10499   2.827   6.044   9.847 -0.1858  0.3097 -0.1026
  103OSM    H7F10500   2.892   6.133   9.861 -0.3471  0.3606  0.3407
  103OSM    H7G10501   2.738   6.068   9.785 -0.0803 -0.0466 -0.3965
  103OSM    C8F10502   2.911   5.936   9.781 -0.3783  0.0438  0.2849
  103OSM    H8F10503   2.847   5.847   9.798 -0.5622  0.7214  4.2740
  103OSM    H8G10504   3.004   5.906   9.835 -0.6362 -0.9859  0.1829
  103OSM    C9F10505   2.942   5.958   9.637 -0.8083 -0.1115  0.1050
  103OSM    H9F10506   3.033   6.018   9.619  0.1391 -0.6568  2.6230
  103OSM   C10F10507   2.889   5.888   9.534  0.3942 -0.4659 -0.2901
  103OSM   H10F10508   2.922   5.910   9.431  1.4132 -1.1525 -0.1314
  103OSM   C11F10509   2.778   5.787   9.542  0.3855  0.3841  0.0634
  103OSM   H11F10510   2.808   5.722   9.628  0.9276  0.0817 -0.3491
  103OSM   H11G10511   2.782   5.719   9.454 -0.9537  1.1143 -0.5982
  103OSM   C12F10512   2.633   5.834   9.567  0.2037  0.2031  0.3868
  103OSM   H12F10513   2.611   5.897   9.478  1.0294 -1.7469 -1.2521
  103OSM   H12G10514   2.634   5.908   9.651  2.4196 -0.2469  0.8223
  103OSM   C13F10515   2.536   5.721   9.585 -0.0047 -0.5022 -0.1477
  103OSM   H13F10516   2.442   5.778   9.597  0.2601 -0.4154  1.8932
  103OSM   H13G10517   2.541   5.659   9.493  1.4276 -0.9578  0.2013
  103OSM   C14F10518   2.550   5.621   9.703  0.4369 -0.7375 -0.6380
  103OSM   H14F10519   2.649   5.572   9.688  0.5535 -0.7688  0.2322
  103OSM   H14G10520   2.467   5.548   9.687  0.4869 -1.0857  0.5949
  103OSM   C15F10521   2.540   5.681   9.839 -0.0990 -0.7465  0.4890
  103OSM   H15F10522   2.435   5.709   9.861  0.3285  1.5518 -0.1597
  103OSM   H15G10523   2.605   5.769   9.826 -0.2820 -1.0022 -2.9431
  103OSM   C16F10524   2.589   5.585   9.943  0.5018 -0.3273  0.1469
  103OSM   H16F10525   2.693   5.555   9.918  0.9377 -0.4054  1.8957
  103OSM   H16G10526   2.527   5.495   9.958 -2.2483  1.1481 -1.5799
  103OSM   C17F10527   2.617   5.653  10.076  0.5445  0.4108 -0.2494
  103OSM   H17F10528   2.524   5.698  10.116  1.9621  4.4859 -1.1337
  103OSM   H17G10529   2.684   5.741  10.087  1.3208 -0.3739  1.7064
  103OSM   C18F10530   2.688   5.556  10.170  0.2438  0.0395 -0.4353
  103OSM   H18F10531   2.775   5.513  10.117 -0.2764 -2.4636  0.6235
  103OSM   H18G10532   2.622   5.469  10.189  0.0710  0.4682  1.1060
  103OSM   H18H10533   2.718   5.591  10.272  1.4113 -0.7530 -0.4819
  104OSM      N10534   0.377   6.468  10.986 -0.0983  0.1966 -0.1478
  104OSM    C1510535   0.428   6.365  11.087 -0.1867  0.0918 -0.2909
  104OSM   H15A10536   0.381   6.272  11.059 -0.2386  0.8427 -2.8575
  104OSM   H15B10537   0.402   6.403  11.185 -1.0864 -1.0661 -0.0600
  104OSM   H15C10538   0.535   6.351  11.075 -0.3737 -0.5855 -1.2181
  104OSM    C1410539   0.435   6.592  11.040  0.2709  0.0076 -0.4496
  104OSM   H14A10540   0.405   6.680  10.985  0.0606  1.0983  1.3252
  104OSM   H14B10541   0.542   6.591  11.035  0.2667  1.8311 -2.5172
  104OSM   H14C10542   0.410   6.613  11.143  1.4894  2.6983 -0.6178
  104OSM    C1310543   0.444   6.424  10.856 -0.2197 -0.4998  0.3839
  104OSM   H13A10544   0.424   6.496  10.778 -0.2397  1.7092  2.3132
  104OSM   H13B10545   0.408   6.328  10.824  3.4802 -1.2032 -2.2917
  104OSM   H13C10546   0.548   6.400  10.870  0.9340  0.2025 -4.7841
  104OSM    C1210547   0.229   6.474  10.984 -0.5999 -0.7872 -0.0931
  104OSM   H12A10548   0.198   6.523  11.074  1.1434 -1.2474  0.8106
  104OSM   H12B10549   0.199   6.370  10.979 -2.0967 -0.3729 -0.0322
  104OSM    C1110550   0.158   6.552  10.872  0.1638  0.0447  0.3690
  104OSM   H11A10551   0.050   6.532  10.890  0.2900 -0.6147  0.4084
  104OSM   H11B10552   0.186   6.494  10.781 -0.0459  0.2122  0.1952
  104OSM      P10553   0.196   6.795  10.767  0.0352 -0.4745  0.3976
  104OSM    O1310554   0.109   6.908  10.803 -0.1647  0.1974 -0.1150
  104OSM    O1410555   0.328   6.827  10.710 -1.1604  0.0322 -0.5428
  104OSM    O1110556   0.121   6.716  10.652 -0.7110  0.1867 -0.4685
  104OSM    O1210557   0.200   6.690  10.883 -0.1460 -0.4647  0.2184
  104OSM    C1S10558   0.109   6.763  10.518 -0.4598  0.4036  0.3929
  104OSM    H1S10559   0.156   6.863  10.507  1.3483 -0.4758 -0.1305
  104OSM    H1T10560   0.000   6.768  10.494 -0.1696 -0.2477 -1.1802
  104OSM     NF10561   0.140   6.735  10.269  0.2665 -0.1834 -0.3164
  104OSM    HNF10562   0.057   6.706  10.222 -0.3298 -2.1716  1.7688
  104OSM    C2S10563   0.165   6.673  10.395  0.0085  0.4991 -0.7419
  104OSM    H2S10564   0.275   6.665  10.413 -0.1919  1.1787  1.0432
  104OSM    C3S10565   0.115   6.525  10.403  0.4779 -0.7086 -0.1303
  104OSM    H3S10566   0.006   6.531  10.380  0.3449  3.5190  0.8264
  104OSM     O310567   0.114   6.463  10.534  0.1452  0.8748 -0.0176
  104OSM    HO310568   0.096   6.536  10.594 -0.5379 -1.1259  2.3233
  104OSM    C4S10569   0.182   6.441  10.302 -0.0244  0.5099  0.1415
  104OSM    H4S10570   0.108   6.403  10.229 -2.0700  0.4768  2.1159
  104OSM    C5S10571   0.321   6.425  10.290 -0.1549  0.5555 -0.8748
  104OSM    H5S10572   0.388   6.464  10.368  0.1982 -0.4828 -0.6472
  104OSM    C6S10573   0.378   6.329  10.191 -0.7802  0.4282  0.8997
  104OSM    H6S10574   0.397   6.229  10.236 -0.4589 -0.2080 -0.6133
  104OSM    H6T10575   0.474   6.375  10.158 -1.3291  0.2379 -1.0772
  104OSM    C7S10576   0.300   6.306  10.057 -0.1097 -0.0640 -0.4257
  104OSM    H7S10577   0.193   6.296  10.087  0.2157 -0.1086  0.7570
  104OSM    H7T10578   0.334   6.210  10.013  0.8689  0.3299 -0.5470
  104OSM    C8S10579   0.300   6.422   9.963 -0.1295  0.2562 -0.0813
  104OSM    H8S10580   0.402   6.465   9.956  0.3113 -0.2303  2.3598
  104OSM    H8T10581   0.227   6.497   9.998  1.5334  1.3307  1.2601
  104OSM    C9S10582   0.269   6.371   9.817 -0.5999 -0.7231 -0.3550
  104OSM    H9S10583   0.158   6.365   9.805 -0.5718  1.2419 -2.2041
  104OSM    H9T10584   0.308   6.268   9.809  2.1499  0.1949  0.2853
  104OSM   C10S10585   0.323   6.463   9.713  0.0145 -0.8520  0.7523
  104OSM   H10S10586   0.433   6.459   9.695 -0.3574 -0.9928 -1.8622
  104OSM   H10T10587   0.297   6.569   9.733  0.2276 -1.1276  2.7483
  104OSM   C11S10588   0.273   6.432   9.573  0.9171 -0.3117 -0.7811
  104OSM   H11S10589   0.257   6.533   9.528 -0.3661 -0.0898  0.1069
  104OSM   H11T10590   0.176   6.382   9.595  1.6423 -0.4228  2.7774
  104OSM   C12S10591   0.370   6.339   9.496  0.6641  0.0305 -0.0623
  104OSM   H12S10592   0.364   6.249   9.561 -1.6676  0.2795  0.1581
  104OSM   H12T10593   0.471   6.383   9.486  0.3117  1.0176  0.6232
  104OSM   C13S10594   0.303   6.318   9.357 -0.6288  0.4983 -0.3291
  104OSM   H13S10595   0.295   6.419   9.310 -0.0651  0.1828 -1.1262
  104OSM   H13T10596   0.202   6.271   9.354 -0.2449 -0.5226  1.3100
  104OSM   C14S10597   0.386   6.221   9.274  0.1586  0.5150 -0.0067
  104OSM   H14S10598   0.365   6.119   9.313 -1.3309  0.2337 -1.4197
  104OSM   H14T10599   0.495   6.237   9.289  0.3351 -0.5226 -0.0934
  104OSM   C15S10600   0.359   6.222   9.123  0.0904  1.1721  0.4840
  104OSM   H15S10601   0.369   6.318   9.068  0.2721  1.6294  1.2877
  104OSM   H15T10602   0.253   6.189   9.120  0.2524  0.6087  0.8152
  104OSM   C16S10603   0.437   6.109   9.054 -0.3511 -0.0860  0.0214
  104OSM   H16S10604   0.433   6.019   9.118  3.3143 -0.0669  0.5160
  104OSM   H16T10605   0.543   6.139   9.035 -0.3417 -1.2287 -2.0246
  104OSM   C17S10606   0.358   6.065   8.925 -0.2565  0.4495  0.1387
  104OSM   H17S10607   0.344   6.152   8.857  0.6380  2.1909  2.0544
  104OSM   H17T10608   0.259   6.024   8.955  0.2458 -0.1876  0.9706
  104OSM   C18S10609   0.428   5.952   8.852 -0.7098 -0.5541 -0.1931
  104OSM   H18S10610   0.534   5.981   8.835 -1.1952  1.4162 -0.1523
  104OSM   H18T10611   0.377   5.931   8.755 -2.4137 -1.1848  0.7958
  104OSM   H18U10612   0.429   5.864   8.919 -0.2621  0.7408  1.5853
  104OSM    C1F10613   0.206   6.853  10.223  0.0499  0.0112  0.3942
  104OSM     OF10614   0.285   6.914  10.296 -0.6067  0.1116 -0.0004
  104OSM    C2F10615   0.192   6.895  10.074 -0.0298 -0.3586 -0.0533
  104OSM    H2F10616   0.088   6.928  10.051  0.1190 -1.0058 -1.7888
  104OSM    H2G10617   0.214   6.802  10.017  1.7440 -1.3618  2.1153
  104OSM    C3F10618   0.293   6.996  10.034  0.3489 -0.5687  0.4750
  104OSM    H3F10619   0.397   6.957  10.033  0.1354 -1.1356  0.1553
  104OSM    H3G10620   0.294   7.080  10.107 -1.8661  0.5398 -0.6556
  104OSM    C4F10621   0.261   7.059   9.901 -0.4113  0.7418  0.3586
  104OSM    H4F10622   0.298   7.164   9.901  1.0180  0.2863  1.8163
  104OSM    H4G10623   0.150   7.060   9.897 -0.5895 -1.7111  2.2182
  104OSM    C5F10624   0.305   6.973   9.779  0.1710  0.2703  0.4602
  104OSM    H5F10625   0.279   6.867   9.799 -2.3375  0.7389  0.0563
  104OSM    H5G10626   0.415   6.983   9.782  0.1936  0.3382 -0.3646
  104OSM    C6F10627   0.240   7.019   9.647  0.6950 -0.3819  0.2670
  104OSM    H6F10628   0.129   7.021   9.659  0.5778  0.2541 -0.8423
  104OSM    H6G10629   0.265   6.937   9.577 -0.8475 -1.5079  0.9606
  104OSM    C7F10630   0.307   7.152   9.600  0.6016 -0.0166  0.6174
  104OSM    H7F10631   0.411   7.163   9.640  0.3720 -0.3814  1.3316
  104OSM    H7G10632   0.253   7.235   9.649  2.5749  0.6915  1.7376
  104OSM    C8F10633   0.290   7.186   9.453 -1.0808 -0.0218  0.3739
  104OSM    H8F10634   0.312   7.295   9.450  1.8516 -0.5550 -1.4140
  104OSM    H8G10635   0.184   7.158   9.436 -0.7875 -1.7341  1.1977
  104OSM    C9F10636   0.388   7.103   9.365  0.0095 -0.4769 -0.0912
  104OSM    H9F10637   0.487   7.077   9.405  0.0503 -0.4678 -0.1868
  104OSM   C10F10638   0.343   7.050   9.248  0.0977 -0.1740  0.1379
  104OSM   H10F10639   0.400   6.976   9.190 -0.7658 -0.2147 -0.6765
  104OSM   C11F10640   0.205   7.058   9.194  0.4891 -0.1993  0.2503
  104OSM   H11F10641   0.205   7.083   9.086 -0.0974 -0.3668  0.2060
  104OSM   H11G10642   0.160   7.149   9.240  1.4328  0.2707  0.2560
  104OSM   C12F10643   0.130   6.932   9.225 -0.1886  0.3434  0.4717
  104OSM   H12F10644   0.026   6.936   9.186 -0.3177 -3.6057 -0.0119
  104OSM   H12G10645   0.130   6.902   9.332 -1.7491  2.5539  1.1571
  104OSM   C13F10646   0.189   6.806   9.148 -0.0058  0.7320 -0.1409
  104OSM   H13F10647   0.283   6.770   9.196 -1.7271 -1.4719  1.7879
  104OSM   H13G10648   0.201   6.841   9.044 -1.2562  2.6930  0.3125
  104OSM   C14F10649   0.093   6.688   9.152 -1.0002  0.6339  0.3997
  104OSM   H14F10650  -0.005   6.707   9.104  0.0069  0.3430 -1.8888
  104OSM   H14G10651   0.073   6.657   9.257  0.6034  3.1560  1.5323
  104OSM   C15F10652   0.147   6.562   9.079 -0.6854 -0.9098 -0.5395
  104OSM   H15F10653   0.083   6.471   9.083 -1.0658 -0.6371 -0.4256
  104OSM   H15G10654   0.242   6.524   9.123 -0.2215  1.3931  0.6002
  104OSM   C16F10655   0.166   6.600   8.934  0.6517 -0.4863  0.5204
  104OSM   H16F10656   0.262   6.655   8.924  0.0515  0.8349  1.6130
  104OSM   H16G10657   0.083   6.663   8.896  0.0621 -2.0223 -0.8507
  104OSM   C17F10658   0.177   6.484   8.836 -0.2287 -0.6100 -0.6157
  104OSM   H17F10659   0.082   6.429   8.820  0.2555 -1.8422  0.5432
  104OSM   H17G10660   0.247   6.407   8.875  0.0581 -1.0089 -1.8601
  104OSM   C18F10661   0.223   6.524   8.701  0.4582 -1.0232  0.0139
  104OSM   H18F10662   0.210   6.440   8.629 -0.3425 -1.3418  0.5152
  104OSM   H18G10663   0.332   6.543   8.697  0.5222 -1.4904 -1.8982
  104OSM   H18H10664   0.164   6.608   8.659 -0.9954 -0.3745  3.0836
  105OSM      N10665   6.380   6.179  11.170  0.1673  1.4631 -0.2699
  105OSM    C1510666   6.333   6.045  11.209  0.5095 -0.6454  0.3319
  105OSM   H15A10667   6.387   5.969  11.154  0.0746 -1.3769  0.8993
  105OSM   H15B10668   6.228   6.033  11.186  0.3870  0.9772 -0.0754
  105OSM   H15C10669   6.358   6.023  11.311  2.4634  0.4429  0.1289
  105OSM    C1410670   6.327   6.288  11.264  0.2676  0.5086  0.0966
  105OSM   H14A10671   6.347   6.253  11.364  1.8765 -0.5159 -0.5508
  105OSM   H14B10672   6.221   6.301  11.247  0.2047  0.0720  0.1391
  105OSM   H14C10673   6.381   6.381  11.256 -0.3373  0.9043  0.5220
  105OSM    C1310674   6.531   6.188  11.195  0.2560  0.3493  0.1913
  105OSM   H13A10675   6.560   6.284  11.154 -1.9103  0.2819 -1.6705
  105OSM   H13B10676   6.587   6.116  11.136  0.4623  0.6879 -0.0316
  105OSM   H13C10677   6.548   6.182  11.301 -1.0592  1.0913  0.4635
  105OSM    C1210678   6.335   6.209  11.022  0.1663  0.6220 -0.9493
  105OSM   H12A10679   6.349   6.312  10.995  0.0010  1.2486  1.1781
  105OSM   H12B10680   6.229   6.188  11.018 -0.4036  3.0232  0.0283
  105OSM    C1110681   6.380   6.108  10.910  0.3258  0.1181 -0.6049
  105OSM   H11A10682   6.351   6.141  10.807 -0.4839  0.6043 -0.2326
  105OSM   H11B10683   6.321   6.017  10.934 -0.2119  0.4826 -0.5233
  105OSM      P10684   6.583   5.952  10.917  0.3436  0.1890 -0.2830
  105OSM    O1310685   6.727   5.968  10.945 -0.4800 -0.2110 -0.2582
  105OSM    O1410686   6.497   5.870  11.004  0.5972 -0.2794 -0.1411
  105OSM    O1110687   6.580   5.905  10.765 -0.2632  0.3602 -0.2463
  105OSM    O1210688   6.519   6.098  10.911 -0.3930  0.7143  0.8192
  105OSM    C1S10689   6.650   5.990  10.670  0.2440  0.1685 -0.2427
  105OSM    H1S10690   6.759   5.968  10.679  0.1091 -0.2819  0.3735
  105OSM    H1T10691   6.624   6.097  10.683 -1.1972  0.1137 -2.0857
  105OSM     NF10692   6.702   6.016  10.435  0.0239  0.2159  0.1711
  105OSM    HNF10693   6.669   6.102  10.397 -2.0521 -1.6259 -2.6130
  105OSM    C2S10694   6.613   5.948  10.525 -0.2060 -0.2048 -0.3936
  105OSM    H2S10695   6.611   5.839  10.508 -1.5023 -0.1501 -0.7154
  105OSM    C3S10696   6.462   5.998  10.504 -0.0063  0.4943 -0.2309
  105OSM    H3S10697   6.448   6.102  10.539 -0.0630 -0.0918  1.6086
  105OSM     O310698   6.386   5.913  10.582  0.0325  0.2067 -0.2306
  105OSM    HO310699   6.450   5.893  10.651  0.2271  0.8529 -0.2222
  105OSM    C4S10700   6.406   5.984  10.363 -0.1680  0.3547 -0.4283
  105OSM    H4S10701   6.357   5.894  10.325  1.6568  0.1574 -2.5844
  105OSM    C5S10702   6.428   6.082  10.276 -0.3798 -0.5030 -0.4422
  105OSM    H5S10703   6.486   6.173  10.298 -0.3328 -0.9843  1.6396
  105OSM    C6S10704   6.373   6.076  10.136 -0.0347 -0.3960 -0.3646
  105OSM    H6S10705   6.442   6.142  10.080  0.6825 -0.1657  0.7573
  105OSM    H6T10706   6.271   6.118  10.121  0.2794 -0.0058 -1.4503
  105OSM    C7S10707   6.385   5.947  10.067 -0.9335  0.6283 -0.7654
  105OSM    H7S10708   6.294   5.895  10.105  0.1718  1.0368  2.7518
  105OSM    H7T10709   6.479   5.896  10.095 -1.4141 -0.5303 -1.1708
  105OSM    C8S10710   6.376   5.950   9.916  0.0567  0.5118 -0.5932
  105OSM    H8S10711   6.371   5.844   9.883 -1.3485 -1.0228  3.8652
  105OSM    H8T10712   6.473   5.998   9.890  2.5959 -2.8916  1.6544
  105OSM    C9S10713   6.254   6.015   9.863 -0.3982 -0.3650 -0.2576
  105OSM    H9S10714   6.234   6.114   9.909  3.7190  0.6508 -0.2902
  105OSM    H9T10715   6.159   5.961   9.885 -1.0450  1.7703  2.9412
  105OSM   C10S10716   6.264   6.042   9.712  0.0315  0.0290  0.5501
  105OSM   H10S10717   6.360   6.079   9.669 -0.3451 -2.8648 -3.3859
  105OSM   H10T10718   6.187   6.121   9.704 -0.7622 -0.6923  0.8974
  105OSM   C11S10719   6.219   5.919   9.626 -0.0030 -0.2377 -0.6558
  105OSM   H11S10720   6.118   5.887   9.658  1.0732 -1.4545  1.8467
  105OSM   H11T10721   6.282   5.831   9.651  0.5639 -0.4286 -2.5801
  105OSM   C12S10722   6.221   5.930   9.475 -0.4255  0.1639  0.5556
  105OSM   H12S10723   6.196   5.831   9.430  0.8457  0.0702 -0.0050
  105OSM   H12T10724   6.327   5.955   9.450 -0.2823 -1.6569 -0.8852
  105OSM   C13S10725   6.136   6.040   9.417 -0.1624 -0.1027 -0.4496
  105OSM   H13S10726   6.145   6.129   9.483  1.9456 -0.4123 -0.2686
  105OSM   H13T10727   6.029   6.010   9.416 -0.2913  0.2176  1.1235
  105OSM   C14S10728   6.172   6.089   9.273  0.2012 -0.4840 -0.4261
  105OSM   H14S10729   6.272   6.138   9.280 -0.4029  1.2756 -2.6286
  105OSM   H14T10730   6.109   6.178   9.249  3.0666  1.3035 -2.0840
  105OSM   C15S10731   6.171   5.987   9.163  0.0293 -0.0276 -0.4212
  105OSM   H15S10732   6.226   5.898   9.200 -0.1061 -0.0196 -0.1949
  105OSM   H15T10733   6.222   6.023   9.071  1.2449  0.5585  0.4562
  105OSM   C16S10734   6.032   5.945   9.114 -0.1103  0.1751 -0.6439
  105OSM   H16S10735   6.002   6.036   9.058  0.0004  1.3428  1.1331
  105OSM   H16T10736   5.952   5.930   9.189  1.0555  0.2800  0.6510
  105OSM   C17S10737   6.022   5.821   9.025 -0.2012  0.0269  0.1980
  105OSM   H17S10738   5.965   5.738   9.071 -0.6555 -0.5265 -1.3067
  105OSM   H17T10739   6.123   5.777   9.008 -0.2502  0.1642 -0.4743
  105OSM   C18S10740   5.959   5.843   8.884  0.6905  0.0858  0.2084
  105OSM   H18S10741   5.872   5.912   8.893  0.9464  0.1448  3.2491
  105OSM   H18T10742   5.921   5.746   8.846  4.1439 -0.5222 -2.1366
  105OSM   H18U10743   6.034   5.888   8.816  2.3677  0.3992  2.1394
  105OSM    C1F10744   6.819   5.965  10.403 -0.2264 -0.2315 -0.2973
  105OSM     OF10745   6.853   5.854  10.456 -0.5211  0.1558 -0.3594
  105OSM    C2F10746   6.905   6.043  10.305  0.0633 -0.2688 -0.0397
  105OSM    H2F10747   6.999   6.069  10.357 -0.2858 -0.8753  0.9271
  105OSM    H2G10748   6.853   6.135  10.272 -0.8488 -0.5100  0.6854
  105OSM    C3F10749   6.949   5.961  10.184 -0.7213  1.0367 -0.5144
  105OSM    H3F10750   6.990   5.865  10.223  0.4250  0.1988 -3.5406
  105OSM    H3G10751   7.035   5.998  10.125  1.3861 -4.6882 -1.7008
  105OSM    C4F10752   6.829   5.918  10.093 -0.3814 -0.2630  0.1944
  105OSM    H4F10753   6.743   5.873  10.147 -0.0335 -0.2889  0.7382
  105OSM    H4G10754   6.860   5.843  10.017 -2.1486 -0.2131 -0.6238
  105OSM    C5F10755   6.773   6.038  10.008  0.4843 -0.5219 -0.0435
  105OSM    H5F10756   6.848   6.120  10.019  1.1215 -1.2702  1.4101
  105OSM    H5G10757   6.675   6.082  10.036  1.0475  2.4180 -2.1420
  105OSM    C6F10758   6.786   6.021   9.859 -0.6972  0.1221 -0.2360
  105OSM    H6F10759   6.745   5.924   9.821 -0.9825  0.4521 -0.7913
  105OSM    H6G10760   6.894   6.027   9.837 -0.5251  0.7265  0.7334
  105OSM    C7F10761   6.709   6.132   9.787 -0.1773 -1.0123 -0.2815
  105OSM    H7F10762   6.764   6.228   9.798 -1.0241 -0.5669  0.1639
  105OSM    H7G10763   6.611   6.147   9.837 -0.5237 -0.2292 -1.1659
  105OSM    C8F10764   6.673   6.096   9.636  0.2376 -0.0400 -0.0604
  105OSM    H8F10765   6.601   6.167   9.593  1.0814  0.5779 -0.4759
  105OSM    H8G10766   6.633   5.992   9.635  0.8740 -0.2954 -0.1670
  105OSM    C9F10767   6.796   6.082   9.552  0.2513 -0.3181  0.1218
  105OSM    H9F10768   6.891   6.063   9.605  0.2010 -0.6593  0.0915
  105OSM   C10F10769   6.795   6.073   9.414  0.3061  0.1141 -0.4195
  105OSM   H10F10770   6.888   6.083   9.357 -0.1980 -0.1625 -1.3193
  105OSM   C11F10771   6.674   6.089   9.324  0.2010  0.8600  0.1840
  105OSM   H11F10772   6.600   6.152   9.379  0.8132  0.4280  1.5396
  105OSM   H11G10773   6.630   5.988   9.327 -2.4158  1.8838 -0.7917
  105OSM   C12F10774   6.709   6.137   9.184  0.2677 -0.0226 -0.1113
  105OSM   H12F10775   6.787   6.069   9.143 -0.4003 -0.4078 -0.7723
  105OSM   H12G10776   6.734   6.244   9.171 -0.5112 -0.0052 -1.7228
  105OSM   C13F10777   6.587   6.123   9.097  0.5551  0.4566 -0.0583
  105OSM   H13F10778   6.488   6.149   9.141 -0.5663 -2.7753 -0.4073
  105OSM   H13G10779   6.587   6.017   9.066  0.5121 -0.1581  1.9258
  105OSM   C14F10780   6.599   6.196   8.967 -0.0656  0.4288 -0.7661
  105OSM   H14F10781   6.701   6.156   8.944 -0.1398 -0.4785  0.3900
  105OSM   H14G10782   6.613   6.306   8.975  1.5386  0.1914  0.1022
  105OSM   C15F10783   6.492   6.157   8.868 -0.4233  0.2322 -0.2844
  105OSM   H15F10784   6.457   6.053   8.883  2.0020 -0.7558 -0.9902
  105OSM   H15G10785   6.541   6.165   8.769 -1.6678 -0.4830 -0.9772
  105OSM   C16F10786   6.382   6.266   8.863 -0.5422  1.1087 -0.1908
  105OSM   H16F10787   6.438   6.360   8.843 -0.0926  0.2896 -3.3947
  105OSM   H16G10788   6.338   6.268   8.964  1.2948  0.0911  0.6855
  105OSM   C17F10789   6.264   6.244   8.760  0.4119  0.6359 -0.3677
  105OSM   H17F10790   6.291   6.276   8.657 -1.5412 -0.5664 -1.3045
  105OSM   H17G10791   6.174   6.297   8.797 -0.0959 -0.0486 -0.5894
  105OSM   C18F10792   6.212   6.099   8.760  0.3505 -0.2978  0.2660
  105OSM   H18F10793   6.269   6.044   8.682  0.7517  0.4868 -0.0036
  105OSM   H18G10794   6.114   6.104   8.709  1.3222 -0.0813 -1.6859
  105OSM   H18H10795   6.213   6.056   8.863 -1.0360  0.9592  0.8317
  106OSM      N10796   0.978   2.442  10.934 -0.2881  0.2942 -0.5629
  106OSM    C1510797   1.048   2.547  11.017  0.1302 -0.3076  0.4645
  106OSM   H15A10798   1.153   2.538  10.995 -0.3563 -0.7511 -2.0131
  106OSM   H15B10799   1.036   2.535  11.124  0.3129 -1.7610  0.3426
  106OSM   H15C10800   1.016   2.648  10.993 -0.7023 -0.5112  0.6948
  106OSM    C1410801   1.021   2.310  11.001 -0.2250 -0.0085 -0.0237
  106OSM   H14A10802   1.124   2.282  10.982 -0.2840 -0.4241  0.2535
  106OSM   H14B10803   0.965   2.225  10.963 -1.1613  0.9468 -0.8203
  106OSM   H14C10804   1.006   2.318  11.107 -1.6613  1.9181 -0.3253
  106OSM    C1310805   0.828   2.451  10.958  0.0452 -0.2968 -0.6992
  106OSM   H13A10806   0.792   2.550  10.935  2.5082  1.4329  2.1218
  106OSM   H13B10807   0.813   2.423  11.061 -0.5390  0.2749 -0.6173
  106OSM   H13C10808   0.768   2.381  10.903 -0.9612  0.5499 -0.7133
  106OSM    C1210809   1.003   2.461  10.789  0.0562 -0.4727 -0.3364
  106OSM   H12A10810   0.940   2.542  10.757  1.2442  0.8375  0.5498
  106OSM   H12B10811   0.956   2.377  10.738 -1.2868  1.7047 -2.9487
  106OSM    C1110812   1.144   2.470  10.727 -0.4833  0.2822 -0.0707
  106OSM   H11A10813   1.127   2.495  10.620  0.1501  1.9661  0.1887
  106OSM   H11B10814   1.200   2.375  10.742  1.3445  1.3366  0.1739
  106OSM      P10815   1.367   2.603  10.756 -0.0164  0.1305 -0.0125
  106OSM    O1310816   1.382   2.751  10.765  0.4658 -0.1604 -0.0260
  106OSM    O1410817   1.448   2.528  10.849 -0.2759 -0.0867 -0.2518
  106OSM    O1110818   1.399   2.562  10.605 -0.2754  0.8592  0.2080
  106OSM    O1210819   1.221   2.574  10.781 -0.0094 -0.5959  0.2596
  106OSM    C1S10820   1.362   2.643  10.494 -0.2133  0.4227  0.0316
  106OSM    H1S10821   1.423   2.736  10.492  2.0841 -1.0192 -1.5158
  106OSM    H1T10822   1.257   2.678  10.492  0.2233  1.8007 -1.9770
  106OSM     NF10823   1.374   2.673  10.249 -0.3671  0.1188 -0.3792
  106OSM    HNF10824   1.288   2.661  10.201 -0.7741 -0.6369  0.5237
  106OSM    C2S10825   1.383   2.572  10.356 -0.2472 -0.3844  0.5084
  106OSM    H2S10826   1.485   2.528  10.356  0.1851  0.5562 -0.6136
  106OSM    C3S10827   1.279   2.448  10.343  0.0667  0.6448 -0.1801
  106OSM    H3S10828   1.178   2.491  10.359 -0.0317  0.0024  1.0279
  106OSM     O310829   1.297   2.362  10.459 -0.4445  0.0699 -0.1892
  106OSM    HO310830   1.358   2.418  10.507 -0.2496 -1.7635  1.8621
  106OSM    C4S10831   1.291   2.363  10.222  0.4954 -0.2062 -0.1220
  106OSM    H4S10832   1.393   2.334  10.193  0.0650 -1.1173 -0.7463
  106OSM    C5S10833   1.182   2.337  10.139  0.1115 -0.3275 -0.0728
  106OSM    H5S10834   1.083   2.371  10.174 -0.1410 -1.0570 -0.0526
  106OSM    C6S10835   1.189   2.267  10.015  0.6746 -0.1724  1.1405
  106OSM    H6S10836   1.108   2.191  10.008  0.3337 -0.0607  3.1310
  106OSM    H6T10837   1.287   2.217   9.998 -0.3176 -1.5632 -0.9087
  106OSM    C7S10838   1.170   2.361   9.891 -0.1415 -0.6806  0.4798
  106OSM    H7S10839   1.239   2.448   9.894  0.6774 -1.3392  2.4519
  106OSM    H7T10840   1.065   2.397   9.889 -1.0590 -3.0225 -2.7794
  106OSM    C8S10841   1.193   2.291   9.756 -0.6192 -0.1006  0.9094
  106OSM    H8S10842   1.143   2.192   9.759  0.4105 -0.6300  0.9539
  106OSM    H8T10843   1.302   2.274   9.744 -0.4461  1.1057  0.6644
  106OSM    C9S10844   1.147   2.377   9.635  0.1839 -0.3365  0.0822
  106OSM    H9S10845   1.190   2.479   9.644  1.2227 -0.7840  0.4025
  106OSM    H9T10846   1.037   2.382   9.643  0.2771  0.3704  1.1547
  106OSM   C10S10847   1.199   2.319   9.493 -0.3056  0.2709 -0.3772
  106OSM   H10S10848   1.167   2.214   9.475  0.3545  0.1897 -1.1886
  106OSM   H10T10849   1.310   2.310   9.499 -0.2630  0.2059 -1.1439
  106OSM   C11S10850   1.168   2.411   9.379 -0.5583 -0.1729  0.8485
  106OSM   H11S10851   1.208   2.512   9.403 -2.1618  0.8609 -0.5147
  106OSM   H11T10852   1.058   2.412   9.360 -0.6130  0.8088  1.1719
  106OSM   C12S10853   1.234   2.372   9.241  0.2481  1.2111 -0.0167
  106OSM   H12S10854   1.194   2.273   9.211 -0.6002  1.3783  0.5397
  106OSM   H12T10855   1.342   2.352   9.262 -0.3612 -1.1610  1.2389
  106OSM   C13S10856   1.217   2.476   9.126  0.0878  0.8510 -0.5997
  106OSM   H13S10857   1.251   2.573   9.168  0.6818 -0.0542  1.0870
  106OSM   H13T10858   1.111   2.484   9.096 -0.1159 -0.4672 -0.3159
  106OSM   C14S10859   1.307   2.442   9.004  1.0381 -0.3042 -0.1034
  106OSM   H14S10860   1.316   2.331   8.997  0.8695 -0.7663  4.1799
  106OSM   H14T10861   1.412   2.470   9.029  1.3339 -2.0620  0.8590
  106OSM   C15S10862   1.252   2.496   8.869  0.1434 -0.5866  0.0910
  106OSM   H15S10863   1.263   2.607   8.864  0.5437 -0.6568 -1.0205
  106OSM   H15T10864   1.144   2.475   8.852  0.4438 -0.2661 -2.6753
  106OSM   C16S10865   1.334   2.437   8.760  0.2967 -0.6885  0.1616
  106OSM   H16S10866   1.324   2.327   8.770 -1.6302 -0.4921  0.7570
  106OSM   H16T10867   1.440   2.462   8.785  0.1214 -1.1896  1.5135
  106OSM   C17S10868   1.312   2.477   8.621 -1.0363 -0.0307 -0.1101
  106OSM   H17S10869   1.337   2.584   8.604  0.0164 -0.4046 -1.0085
  106OSM   H17T10870   1.202   2.474   8.604 -1.1188  2.8747 -0.5403
  106OSM   C18S10871   1.403   2.393   8.529  0.0435 -0.1468  0.0827
  106OSM   H18S10872   1.397   2.283   8.541 -0.7835 -0.6866 -3.9006
  106OSM   H18T10873   1.509   2.423   8.545  0.0214 -0.7368  1.4680
  106OSM   H18U10874   1.374   2.411   8.424 -0.0002  1.6835  0.3643
  106OSM    C1F10875   1.468   2.761  10.217 -0.0322 -0.4513 -0.2513
  106OSM     OF10876   1.571   2.767  10.280 -0.2229  0.3806  0.3031
  106OSM    C2F10877   1.437   2.834  10.097  0.2829 -0.8104 -0.1151
  106OSM    H2F10878   1.374   2.920  10.127  0.6553 -0.5430 -0.0892
  106OSM    H2G10879   1.370   2.774  10.031 -0.6987 -0.7335  0.7796
  106OSM    C3F10880   1.563   2.892  10.032 -0.1009  0.2758 -0.6498
  106OSM    H3F10881   1.625   2.810   9.990  2.1526  0.6549  1.7565
  106OSM    H3G10882   1.626   2.950  10.102  1.0124  0.5063 -1.8135
  106OSM    C4F10883   1.530   2.985   9.918 -0.5591 -0.0873  0.1371
  106OSM    H4F10884   1.443   3.048   9.945  1.5200  2.1368  1.9945
  106OSM    H4G10885   1.507   2.923   9.828  1.1660  2.3915 -2.1623
  106OSM    C5F10886   1.650   3.074   9.882  0.4963 -0.0777 -0.7803
  106OSM    H5F10887   1.745   3.017   9.889 -0.7049 -2.3525 -1.7634
  106OSM    H5G10888   1.640   3.164   9.947 -0.9950  0.6640 -1.9474
  106OSM    C6F10889   1.636   3.122   9.744  0.0977  0.1094  0.3244
  106OSM    H6F10890   1.714   3.197   9.717  0.9454 -1.2073 -1.0544
  106OSM    H6G10891   1.537   3.172   9.734  0.7874  1.4580 -0.0089
  106OSM    C7F10892   1.660   3.022   9.632  0.4248 -0.9362  0.2091
  106OSM    H7F10893   1.612   2.926   9.660  0.0996 -1.3455 -1.6197
  106OSM    H7G10894   1.770   3.009   9.622  0.4620 -0.2960 -0.2756
  106OSM    C8F10895   1.598   3.070   9.496  0.3257  0.2093  0.5518
  106OSM    H8F10896   1.614   2.989   9.422  0.7311 -0.7628  1.6627
  106OSM    H8G10897   1.660   3.154   9.458  0.9942 -0.8650 -0.8605
  106OSM    C9F10898   1.451   3.088   9.491 -0.1856 -0.2723  0.3126
  106OSM    H9F10899   1.388   3.016   9.546 -0.7764  0.1047  0.1331
  106OSM   C10F10900   1.387   3.189   9.434  0.1877  0.1966 -0.3019
  106OSM   H10F10901   1.277   3.196   9.440  0.3626  2.3443  1.3770
  106OSM   C11F10902   1.453   3.307   9.370  0.9123  0.4310  0.4172
  106OSM   H11F10903   1.538   3.348   9.428  2.3529 -0.4726 -0.9910
  106OSM   H11G10904   1.376   3.388   9.368 -1.0356 -1.3182  0.5472
  106OSM   C12F10905   1.489   3.296   9.220  0.5895 -0.6855 -0.6904
  106OSM   H12F10906   1.399   3.271   9.160 -0.9844  1.2021  0.7380
  106OSM   H12G10907   1.573   3.224   9.208 -1.3554 -3.0384 -0.9228
  106OSM   C13F10908   1.536   3.436   9.167  0.4581  0.0764 -0.2905
  106OSM   H13F10909   1.625   3.471   9.223 -1.0681  1.3655  1.4644
  106OSM   H13G10910   1.461   3.517   9.176 -0.1806 -0.6006  0.7227
  106OSM   C14F10911   1.566   3.427   9.012  0.6645 -0.1204  0.2176
  106OSM   H14F10912   1.604   3.324   8.997 -1.1400 -0.8885  0.6682
  106OSM   H14G10913   1.644   3.503   8.990 -0.7326  1.4657  0.5055
  106OSM   C15F10914   1.439   3.439   8.926  0.8558  0.6023 -0.4757
  106OSM   H15F10915   1.407   3.545   8.923 -0.6868  0.1397 -2.4067
  106OSM   H15G10916   1.360   3.373   8.968 -0.8046  2.2216 -0.8834
  106OSM   C16F10917   1.475   3.402   8.781  0.6438  0.0735  0.6723
  106OSM   H16F10918   1.478   3.294   8.757 -0.7383  0.1810 -0.0742
  106OSM   H16G10919   1.577   3.445   8.774  1.1903 -1.0564  1.4095
  106OSM   C17F10920   1.376   3.465   8.679 -0.4665  0.2171  0.4679
  106OSM   H17F10921   1.434   3.477   8.584 -0.1961 -1.8497  0.3233
  106OSM   H17G10922   1.349   3.568   8.710  0.0074 -0.2668  2.6525
  106OSM   C18F10923   1.254   3.381   8.655  0.0777 -0.0159 -0.2523
  106OSM   H18F10924   1.201   3.391   8.558 -1.0181  0.8277  0.4037
  106OSM   H18G10925   1.183   3.395   8.740  0.3886 -1.2065  0.2208
  106OSM   H18H10926   1.287   3.275   8.651 -2.0712 -0.9064  2.2514
  107OSM      N10927   2.346   6.172  11.496 -0.0942 -1.0505 -0.7217
  107OSM    C1510928   2.492   6.125  11.517 -0.3161  0.1855 -0.1921
  107OSM   H15A10929   2.566   6.191  11.477 -0.2072 -0.3982 -0.9833
  107OSM   H15B10930   2.502   6.024  11.480  1.9543 -0.6265  2.3227
  107OSM   H15C10931   2.502   6.105  11.623 -1.1246 -2.9228 -0.5831
  107OSM    C1410932   2.248   6.097  11.584 -0.1564  0.3624 -0.3738
  107OSM   H14A10933   2.148   6.128  11.558  0.7072  1.2189 -3.0302
  107OSM   H14B10934   2.265   6.125  11.687 -0.6164  1.4634 -0.5807
  107OSM   H14C10935   2.265   5.991  11.577 -0.6205  0.3520 -1.5246
  107OSM    C1310936   2.333   6.312  11.543  0.1014 -0.1195  0.2997
  107OSM   H13A10937   2.347   6.324  11.650  0.1553 -1.0336  0.4014
  107OSM   H13B10938   2.231   6.342  11.524  0.0988 -0.4001 -0.1444
  107OSM   H13C10939   2.399   6.379  11.490 -0.2389 -0.3010 -0.3612
  107OSM    C1210940   2.309   6.153  11.355 -0.4383 -0.1276 -0.4283
  107OSM   H12A10941   2.379   6.214  11.300  0.1915  0.5994  1.1323
  107OSM   H12B10942   2.215   6.204  11.336  0.1043  0.9054 -0.3844
  107OSM    C1110943   2.309   6.005  11.304 -0.0826  0.3137 -0.1038
  107OSM   H11A10944   2.228   5.953  11.359 -1.5517  3.0672  0.5191
  107OSM   H11B10945   2.398   5.945  11.333  0.4236  0.8027 -0.6039
  107OSM      P10946   2.394   6.016  11.055  0.3513  0.3154  0.0437
  107OSM    O1310947   2.429   6.158  11.048 -0.3894 -0.8046 -0.6423
  107OSM    O1410948   2.500   5.913  11.085  0.3644 -0.0594 -0.0300
  107OSM    O1110949   2.327   5.975  10.916  0.7421  0.5045  0.6411
  107OSM    O1210950   2.280   5.995  11.166  0.5262 -0.0144 -0.2054
  107OSM    C1S10951   2.210   6.049  10.869  0.1040  0.0920 -0.4822
  107OSM    H1S10952   2.188   6.137  10.933  2.2532  1.4658 -1.5152
  107OSM    H1T10953   2.116   5.990  10.873 -0.6666  0.8823 -3.6765
  107OSM     NF10954   2.108   6.195  10.692 -0.2005 -0.7734  0.1365
  107OSM    HNF10955   2.061   6.169  10.608  1.3591 -1.7517 -0.4603
  107OSM    C2S10956   2.227   6.116  10.730 -0.2782  0.6066 -0.1545
  107OSM    H2S10957   2.304   6.192  10.752  1.6365 -1.5175  0.8577
  107OSM    C3S10958   2.281   6.015  10.627  0.7842  0.0076  0.0331
  107OSM    H3S10959   2.204   5.937  10.610 -2.1774  2.8355 -0.3892
  107OSM     O310960   2.395   5.945  10.665 -0.0803  0.1259 -0.1791
  107OSM    HO310961   2.388   5.950  10.761  1.8326 -1.7300  0.1183
  107OSM    C4S10962   2.312   6.093  10.502 -0.4675  0.4701  0.7069
  107OSM    H4S10963   2.384   6.176  10.502  0.3023 -0.1642 -0.5295
  107OSM    C5S10964   2.266   6.050  10.385  0.1706 -0.3224  0.0381
  107OSM    H5S10965   2.205   5.959  10.393  0.6236 -0.6329 -0.0029
  107OSM    C6S10966   2.287   6.109  10.247 -0.4247  0.7125 -0.1725
  107OSM    H6S10967   2.308   6.218  10.248  1.4090  0.4326 -1.6849
  107OSM    H6T10968   2.202   6.081  10.181 -0.0474 -2.8042  0.6071
  107OSM    C7S10969   2.411   6.056  10.174  0.0395  0.6664  0.2459
  107OSM    H7S10970   2.419   5.945  10.185 -0.7641  0.4399 -1.1973
  107OSM    H7T10971   2.501   6.102  10.220  1.2749 -2.7735  1.6124
  107OSM    C8S10972   2.403   6.087  10.025  0.2406  0.6019 -0.2521
  107OSM    H8S10973   2.510   6.088   9.997  0.1866 -0.7380 -0.5626
  107OSM    H8T10974   2.362   6.190  10.017  1.4284  1.0744 -0.3395
  107OSM    C9S10975   2.322   5.989   9.941  0.0452 -0.6432  0.1688
  107OSM    H9S10976   2.242   5.960  10.013 -2.2560  2.0542 -1.0906
  107OSM    H9T10977   2.385   5.903   9.910  1.8280  0.6889 -0.0576
  107OSM   C10S10978   2.265   6.070   9.818  0.2799  0.7607 -0.2392
  107OSM   H10S10979   2.250   6.179   9.835  1.3581  1.3318 -2.4650
  107OSM   H10T10980   2.172   6.016   9.789  0.8709 -0.0083 -0.7496
  107OSM   C11S10981   2.364   6.058   9.694  0.2288  0.5401 -0.0879
  107OSM   H11S10982   2.376   5.950   9.670 -0.7067 -0.0013  1.6967
  107OSM   H11T10983   2.460   6.102   9.727  1.3117 -0.5291 -1.6682
  107OSM   C12S10984   2.291   6.137   9.584 -0.6456 -0.5227  0.0163
  107OSM   H12S10985   2.270   6.239   9.621  2.2914 -0.4304  1.6601
  107OSM   H12T10986   2.191   6.089   9.570 -0.7772  0.0767 -1.2297
  107OSM   C13S10987   2.379   6.146   9.457  0.0605 -0.2450  0.1842
  107OSM   H13S10988   2.381   6.049   9.404  1.7458 -0.8510  1.2475
  107OSM   H13T10989   2.485   6.176   9.475  0.8640 -2.3726 -0.7094
  107OSM   C14S10990   2.316   6.252   9.362  0.1472 -0.3708  0.4977
  107OSM   H14S10991   2.285   6.350   9.404 -2.9740 -1.1569  0.3239
  107OSM   H14T10992   2.213   6.217   9.339  0.1325 -1.3408  1.8929
  107OSM   C15S10993   2.373   6.259   9.220 -0.7303 -0.3634  0.4738
  107OSM   H15S10994   2.383   6.164   9.164 -2.9371  0.0758 -0.7865
  107OSM   H15T10995   2.476   6.300   9.222 -0.1220 -1.8280  0.2769
  107OSM   C16S10996   2.288   6.352   9.127  1.4340  0.1779 -0.0573
  107OSM   H16S10997   2.311   6.459   9.141  0.3878  0.3785  0.2723
  107OSM   H16T10998   2.181   6.337   9.157  1.2826  0.4743 -0.4534
  107OSM   C17S10999   2.291   6.316   8.975  0.8768 -0.4324 -0.6203
  107OSM   H17S11000   2.272   6.209   8.955  3.3099 -0.7084 -1.7073
  107OSM   H17T11001   2.391   6.332   8.929 -0.0616  1.4954 -2.1379
  107OSM   C18S11002   2.186   6.386   8.884 -0.3992  0.4805  0.1703
  107OSM   H18S11003   2.099   6.402   8.951  0.2944  1.9141  0.7748
  107OSM   H18T11004   2.162   6.326   8.795  3.0461  0.2080 -0.7302
  107OSM   H18U11005   2.223   6.488   8.859 -2.7366  1.1720 -0.7164
  107OSM    C1F11006   2.055   6.302  10.754  0.0340 -0.2596  0.2204
  107OSM     OF11007   2.097   6.351  10.856  0.3234  0.2169 -0.4083
  107OSM    C2F11008   1.936   6.358  10.686  0.2970 -0.1469 -0.2964
  107OSM    H2F11009   1.877   6.387  10.776  1.3408 -1.7992  0.9754
  107OSM    H2G11010   1.886   6.271  10.637  0.7439 -0.5819  0.0062
  107OSM    C3F11011   1.975   6.472  10.590 -0.2390 -0.0047 -0.0677
  107OSM    H3F11012   2.051   6.539  10.635 -0.0036  0.3446 -0.9753
  107OSM    H3G11013   1.883   6.527  10.563  0.1091 -0.2938 -1.9560
  107OSM    C4F11014   2.033   6.425  10.453 -0.4168 -0.9991  0.1855
  107OSM    H4F11015   1.977   6.339  10.410  1.4224 -1.8904 -0.5336
  107OSM    H4G11016   2.136   6.396  10.483  0.2523  0.7780 -0.2629
  107OSM    C5F11017   2.041   6.527  10.343 -0.2792 -0.1005  0.9746
  107OSM    H5F11018   2.102   6.617  10.367  0.5495 -0.8642  1.7921
  107OSM    H5G11019   1.932   6.548  10.346 -0.3105  0.2408 -0.9778
  107OSM    C6F11020   2.070   6.482  10.203  0.1861  0.3955 -0.5410
  107OSM    H6F11021   2.010   6.392  10.179  1.1614 -0.3376 -0.2707
  107OSM    H6G11022   2.177   6.455  10.186  0.6719  1.3077  0.8539
  107OSM    C7F11023   2.028   6.598  10.100 -0.4600  0.5368  0.2191
  107OSM    H7F11024   2.050   6.697  10.145 -2.1110  1.2172 -0.3864
  107OSM    H7G11025   1.918   6.584  10.094 -0.2528 -0.8720 -0.7362
  107OSM    C8F11026   2.086   6.579   9.958 -0.0591  0.6557 -0.3077
  107OSM    H8F11027   2.193   6.602   9.977 -0.1226  0.5637  0.1902
  107OSM    H8G11028   2.043   6.663   9.898  1.7447  0.6688 -1.6604
  107OSM    C9F11029   2.074   6.452   9.879  0.0470  0.1153  0.4914
  107OSM    H9F11030   2.118   6.365   9.929 -0.7519 -0.7562 -0.2958
  107OSM   C10F11031   2.049   6.445   9.748  0.4592  0.3522 -0.3708
  107OSM   H10F11032   2.054   6.355   9.685  0.8433  0.9765 -1.2491
  107OSM   C11F11033   2.026   6.560   9.657  0.0458  0.3570 -0.1388
  107OSM   H11F11034   2.074   6.657   9.681 -0.3715  0.6626 -0.5186
  107OSM   H11G11035   1.917   6.578   9.645 -0.0856  0.1025  0.6116
  107OSM   C12F11036   2.085   6.552   9.511 -0.0750  0.4140 -0.0965
  107OSM   H12F11037   2.057   6.453   9.469  0.9755  0.0296  0.0886
  107OSM   H12G11038   2.196   6.558   9.507  0.0416 -1.2682 -0.3433
  107OSM   C13F11039   2.030   6.665   9.420  0.4617  0.1366  0.3635
  107OSM   H13F11040   2.075   6.760   9.458 -0.0316 -0.3104  2.1648
  107OSM   H13G11041   1.921   6.658   9.441  0.5155 -0.0152  0.5858
  107OSM   C14F11042   2.063   6.644   9.269 -0.1471  0.2496  0.4922
  107OSM   H14F11043   2.043   6.538   9.242  1.8667 -0.3904  1.3566
  107OSM   H14G11044   2.173   6.651   9.254 -0.3935 -0.0285 -1.7559
  107OSM   C15F11045   1.993   6.743   9.169 -0.1503 -0.0379 -0.2292
  107OSM   H15F11046   2.027   6.843   9.205 -1.9034  0.7886 -0.7692
  107OSM   H15G11047   1.883   6.732   9.180 -0.2838  1.8635  0.7713
  107OSM   C16F11048   2.039   6.711   9.025 -0.2181 -0.3097  0.6057
  107OSM   H16F11049   2.006   6.611   8.990  0.4675 -0.8787  1.4944
  107OSM   H16G11050   2.150   6.706   9.039  0.0374  2.1233 -0.1336
  107OSM   C17F11051   2.007   6.832   8.932 -0.3125 -0.1564 -0.0077
  107OSM   H17F11052   2.035   6.931   8.973 -2.0667  0.8973 -1.2565
  107OSM   H17G11053   1.897   6.842   8.920 -0.1323  1.4924 -0.4765
  107OSM   C18F11054   2.073   6.801   8.793 -0.0046  0.6150  0.1396
  107OSM   H18F11055   2.182   6.802   8.815  0.6667 -0.3668 -2.7593
  107OSM   H18G11056   2.069   6.891   8.729  0.9969  0.7569  0.2549
  107OSM   H18H11057   2.041   6.710   8.738  1.3964  0.1551  0.0429
  108OSM      N11058   5.770   5.634  10.655 -0.2960  0.7338  0.1922
  108OSM    C1511059   5.740   5.496  10.610 -0.1427  0.5110  0.3873
  108OSM   H15A11060   5.671   5.485  10.528  0.1685 -1.9333  0.3647
  108OSM   H15B11061   5.698   5.435  10.689  2.1522 -2.3486 -0.4393
  108OSM   H15C11062   5.835   5.448  10.593  0.3783  1.3018  0.9949
  108OSM    C1411063   5.876   5.620  10.762 -0.1656 -0.4102 -0.8215
  108OSM   H14A11064   5.947   5.550  10.721 -2.4561 -3.3473 -0.1212
  108OSM   H14B11065   5.829   5.583  10.852 -2.6845  1.6805 -1.1487
  108OSM   H14C11066   5.918   5.717  10.784  1.6863 -1.7532  2.0461
  108OSM    C1311067   5.844   5.698  10.542  0.1295 -0.1343  0.9496
  108OSM   H13A11068   5.851   5.806  10.549  0.0485 -0.1077  0.6197
  108OSM   H13B11069   5.794   5.668  10.452  1.1528  1.5102 -0.2225
  108OSM   H13C11070   5.946   5.663  10.548 -0.3013 -1.2210  4.8171
  108OSM    C1211071   5.640   5.705  10.700  0.3246  0.2334 -0.3111
  108OSM   H12A11072   5.573   5.726  10.618 -1.7046 -0.3814  1.1118
  108OSM   H12B11073   5.682   5.800  10.732  3.2761 -1.1697  0.3601
  108OSM    C1111074   5.568   5.638  10.813  0.6318 -0.1970 -0.4918
  108OSM   H11A11075   5.634   5.615  10.899  1.8531 -0.5932 -1.5085
  108OSM   H11B11076   5.534   5.538  10.780  2.4801 -1.4529  1.1892
  108OSM      P11077   5.312   5.688  10.818 -0.0789  0.2388 -0.4431
  108OSM    O1311078   5.291   5.602  10.936  0.1306  0.7324  0.3903
  108OSM    O1411079   5.214   5.796  10.803 -0.3084 -0.3376  0.1435
  108OSM    O1111080   5.319   5.592  10.692 -0.2367 -0.5460  0.4862
  108OSM    O1211081   5.466   5.739  10.841  0.4588  0.2638  0.2383
  108OSM    C1S11082   5.290   5.665  10.568  0.5229 -0.6069  0.3131
  108OSM    H1S11083   5.351   5.758  10.558  1.0168 -0.9346  0.2204
  108OSM    H1T11084   5.184   5.693  10.553  0.1911 -2.3441 -0.7862
  108OSM     NF11085   5.353   5.657  10.332  0.3871  0.2434  0.1565
  108OSM    HNF11086   5.273   5.663  10.273 -0.4397 -0.0012  1.2115
  108OSM    C2S11087   5.323   5.576  10.452  0.5332 -0.1586 -0.3002
  108OSM    H2S11088   5.413   5.515  10.476 -1.0391 -2.3692  0.3093
  108OSM    C3S11089   5.205   5.478  10.436 -0.5687  0.0788  0.3825
  108OSM    H3S11090   5.118   5.546  10.446 -0.4528  0.3813 -0.5712
  108OSM     O311091   5.187   5.384  10.542  0.5748 -0.2505  0.3927
  108OSM    HO311092   5.248   5.419  10.608 -0.1720  0.0562  0.9293
  108OSM    C4S11093   5.201   5.416  10.300 -0.1977  0.1339  0.4980
  108OSM    H4S11094   5.121   5.452  10.233  0.3660  1.2769  0.4153
  108OSM    C5S11095   5.262   5.309  10.249 -0.3907  0.0910  1.0287
  108OSM    H5S11096   5.325   5.253  10.320  0.2946 -1.6508 -0.8726
  108OSM    C6S11097   5.255   5.255  10.105 -0.2532  0.1422 -0.1127
  108OSM    H6S11098   5.192   5.164  10.109  0.3020 -0.2052  3.1063
  108OSM    H6T11099   5.353   5.205  10.087 -0.4593  0.2992 -1.9094
  108OSM    C7S11100   5.223   5.356  10.002 -0.0917  0.1042  0.5876
  108OSM    H7S11101   5.297   5.438  10.011 -0.2945  0.2642  0.8359
  108OSM    H7T11102   5.125   5.406  10.021  0.4261  1.9851 -1.3255
  108OSM    C8S11103   5.217   5.293   9.862  0.1377 -0.2148  0.5327
  108OSM    H8S11104   5.113   5.258   9.841  0.6281 -2.0609  1.0361
  108OSM    H8T11105   5.288   5.208   9.851  2.5240  1.8566 -1.1179
  108OSM    C9S11106   5.255   5.399   9.758  0.2990  0.0609  0.0162
  108OSM    H9S11107   5.366   5.399   9.766  0.4980 -1.7391 -1.8205
  108OSM    H9T11108   5.206   5.495   9.785 -0.7971 -0.2225 -0.8954
  108OSM   C10S11109   5.228   5.356   9.614  0.5373 -0.2181  0.6122
  108OSM   H10S11110   5.203   5.248   9.606  0.6375 -0.1010 -2.2783
  108OSM   H10T11111   5.319   5.364   9.551 -0.4145 -2.5049 -1.1977
  108OSM   C11S11112   5.111   5.445   9.556  0.7126  0.1286  1.4711
  108OSM   H11S11113   5.131   5.554   9.559 -1.8721  0.7795 -0.6733
  108OSM   H11T11114   5.037   5.447   9.638  0.4608  2.4577  1.2551
  108OSM   C12S11115   5.046   5.378   9.434  0.2067  0.3849 -0.0097
  108OSM   H12S11116   4.945   5.419   9.411 -0.0336 -0.1083  0.1677
  108OSM   H12T11117   5.032   5.269   9.446 -0.0340 -0.0576 -3.3242
  108OSM   C13S11118   5.121   5.410   9.301 -0.1143  0.6773  0.0377
  108OSM   H13S11119   5.221   5.364   9.314 -0.9190 -0.7974  1.2307
  108OSM   H13T11120   5.132   5.521   9.292  1.1108  0.5713  0.0825
  108OSM   C14S11121   5.041   5.349   9.187  0.1459 -0.0187 -1.0225
  108OSM   H14S11122   4.939   5.393   9.181 -1.7009 -3.4003  1.8633
  108OSM   H14T11123   5.020   5.243   9.212 -0.9137  0.2364 -0.7767
  108OSM   C15S11124   5.102   5.354   9.049 -0.2990  0.0626 -0.9356
  108OSM   H15S11125   5.194   5.291   9.054  0.6500  1.4064 -1.0087
  108OSM   H15T11126   5.115   5.461   9.023  0.8738  0.2247  0.2195
  108OSM   C16S11127   5.008   5.291   8.939 -0.2941 -0.2689  0.1495
  108OSM   H16S11128   4.918   5.353   8.919  2.4012  2.7123 -4.4609
  108OSM   H16T11129   4.982   5.185   8.962 -2.4700  0.1954  0.0241
  108OSM   C17S11130   5.084   5.296   8.803  0.7471  1.0801 -0.0613
  108OSM   H17S11131   5.190   5.271   8.827  0.8364  0.4861 -0.9958
  108OSM   H17T11132   5.079   5.400   8.767  1.9577  1.9552  2.0959
  108OSM   C18S11133   5.056   5.188   8.693  0.1506 -0.2436 -0.7938
  108OSM   H18S11134   4.956   5.206   8.648  0.2865  0.1124 -0.9656
  108OSM   H18T11135   5.072   5.083   8.725  2.2938  0.5132  0.8892
  108OSM   H18U11136   5.127   5.204   8.609  0.4305  3.0549 -0.1031
  108OSM    C1F11137   5.467   5.716  10.310 -0.0923 -0.2143  0.6565
  108OSM     OF11138   5.550   5.720  10.396  0.3336  0.0305 -0.2735
  108OSM    C2F11139   5.478   5.781  10.172 -0.4616 -1.0698 -0.1173
  108OSM    H2F11140   5.508   5.885  10.199  0.9438 -2.1036  2.6521
  108OSM    H2G11141   5.379   5.775  10.121 -0.9578  2.4965  0.1436
  108OSM    C3F11142   5.592   5.720  10.092 -0.2488 -0.2803 -0.2648
  108OSM    H3F11143   5.587   5.610  10.102  0.6053 -0.2810  0.2302
  108OSM    H3G11144   5.688   5.762  10.130 -0.5106  1.7724 -1.7108
  108OSM    C4F11145   5.593   5.773   9.945 -0.1708  0.0501  0.3260
  108OSM    H4F11146   5.653   5.866   9.954  1.4855 -1.0161  0.8055
  108OSM    H4G11147   5.492   5.809   9.915 -0.0941 -1.4246 -1.9598
  108OSM    C5F11148   5.675   5.682   9.846 -0.2485 -0.2974 -0.1127
  108OSM    H5F11149   5.625   5.583   9.844 -1.0009  0.0892 -2.4212
  108OSM    H5G11150   5.784   5.672   9.863 -0.4875 -0.6690  1.4018
  108OSM    C6F11151   5.674   5.739   9.703  0.0606  0.0529  1.0550
  108OSM    H6F11152   5.566   5.755   9.682  0.0956 -2.2246 -1.4629
  108OSM    H6G11153   5.720   5.666   9.633 -0.8495  1.0070 -0.5986
  108OSM    C7F11154   5.742   5.875   9.690  0.1638 -0.2997  0.1829
  108OSM    H7F11155   5.848   5.878   9.725 -0.3603  1.4501  1.7917
  108OSM    H7G11156   5.690   5.950   9.753  1.9884  1.3141 -0.1405
  108OSM    C8F11157   5.726   5.956   9.557  0.1465 -0.2295  0.7401
  108OSM    H8F11158   5.756   6.063   9.559  2.5342 -0.7570 -1.9185
  108OSM    H8G11159   5.620   5.953   9.522  0.0929  0.0599  0.8663
  108OSM    C9F11160   5.801   5.872   9.458 -0.2089 -0.1307  0.2050
  108OSM    H9F11161   5.901   5.832   9.482  0.2895  0.3579 -0.9583
  108OSM   C10F11162   5.740   5.825   9.343 -0.5543  0.3164  0.2553
  108OSM   H10F11163   5.807   5.772   9.274  2.9027  4.1708  0.2443
  108OSM   C11F11164   5.606   5.860   9.290 -0.2567 -0.2302  0.5580
  108OSM   H11F11165   5.550   5.944   9.336  0.5549  0.6751 -0.0521
  108OSM   H11G11166   5.542   5.771   9.303  0.8720 -0.9754  1.1915
  108OSM   C12F11167   5.618   5.896   9.136  0.0804 -0.2032  0.4309
  108OSM   H12F11168   5.698   5.963   9.098 -0.7847 -1.0880 -3.3703
  108OSM   H12G11169   5.527   5.958   9.118 -0.2083 -0.3015  1.4796
  108OSM   C13F11170   5.622   5.766   9.048  0.0656 -0.0664  0.8393
  108OSM   H13F11171   5.552   5.691   9.091 -0.9271 -0.1215 -0.8097
  108OSM   H13G11172   5.720   5.716   9.062 -1.1560 -2.2061  2.4797
  108OSM   C14F11173   5.590   5.781   8.901 -0.3347 -0.1608 -0.0417
  108OSM   H14F11174   5.652   5.853   8.843  1.1014 -0.4722  1.0262
  108OSM   H14G11175   5.488   5.825   8.898  0.0668  0.8348  0.5520
  108OSM   C15F11176   5.594   5.653   8.819 -0.0577  0.3601 -0.0454
  108OSM   H15F11177   5.542   5.581   8.885 -0.5498  1.9761  1.4160
  108OSM   H15G11178   5.689   5.609   8.784 -0.1850 -0.6570  0.8493
  108OSM   C16F11179   5.496   5.670   8.707  0.4364 -0.3768 -0.2931
  108OSM   H16F11180   5.525   5.758   8.646 -0.6010  0.0393 -0.2016
  108OSM   H16G11181   5.394   5.697   8.741  0.1394  0.2322 -1.6134
  108OSM   C17F11182   5.489   5.551   8.617  0.3886  0.1720 -0.2464
  108OSM   H17F11183   5.571   5.483   8.648 -0.3345 -1.1875 -1.2188
  108OSM   H17G11184   5.495   5.573   8.509  0.8927 -1.1505 -0.5000
  108OSM   C18F11185   5.359   5.471   8.640 -0.0874  0.1185  0.1229
  108OSM   H18F11186   5.357   5.369   8.596 -1.2418 -1.0429  2.6531
  108OSM   H18G11187   5.272   5.527   8.599  0.6662  0.8592 -0.4915
  108OSM   H18H11188   5.361   5.446   8.749  0.6719  0.9287  0.3044
  109OSM      N11189   6.425   0.077  10.805  0.0361 -0.2774 -0.1120
  109OSM    C1511190   6.433   0.227  10.806 -0.0729  0.7152 -0.3244
  109OSM   H15A11191   6.515   0.258  10.870  0.6711 -0.5393 -0.6282
  109OSM   H15B11192   6.347   0.275  10.850  0.7859  0.9522  1.1769
  109OSM   H15C11193   6.444   0.273  10.709  0.0377  2.8087  0.6197
  109OSM    C1411194   6.392   0.041  10.945  0.4772 -0.2048  0.2825
  109OSM   H14A11195   6.286   0.058  10.956  0.7252  1.4355  0.4429
  109OSM   H14B11196   6.451   0.099  11.015 -1.1421  1.0266  0.6903
  109OSM   H14C11197   6.416  -0.059  10.978  2.2274  0.0620 -0.0936
  109OSM    C1311198   6.314   0.026  10.706  0.4601  0.0875  0.6480
  109OSM   H13A11199   6.213   0.044  10.738 -0.0119 -1.2595 -0.0297
  109OSM   H13B11200   6.330  -0.077  10.678  1.2865  0.1981  0.6872
  109OSM   H13C11201   6.321   0.083  10.615 -1.6547  1.4107  1.2408
  109OSM    C1211202   6.557   0.039  10.757  0.1403  0.4870 -0.4432
  109OSM   H12A11203   6.635   0.086  10.815 -0.5664  0.2729  0.7297
  109OSM   H12B11204   6.581   0.069  10.656  0.4784 -2.2528 -1.2452
  109OSM    C1111205   6.590  -0.122  10.755 -0.1603 -0.3676  0.1960
  109OSM   H11A11206   6.599  -0.155  10.861  0.0781 -1.0793 -0.0378
  109OSM   H11B11207   6.694  -0.133  10.718 -0.1575  1.6335 -0.5032
  109OSM      P11208   6.454  -0.327  10.707 -0.2512 -0.4430  0.3389
  109OSM    O1311209   6.573  -0.412  10.717  0.3380  0.0171 -0.4862
  109OSM    O1411210   6.369  -0.323  10.825 -0.5421 -0.1909  0.1611
  109OSM    O1111211   6.365  -0.379  10.586 -0.1801  0.0287  0.3556
  109OSM    O1211212   6.498  -0.185  10.664 -0.4048 -0.0567 -0.5915
  109OSM    C1S11213   6.278  -0.301  10.515  0.2368 -0.1756 -0.4779
  109OSM    H1S11214   6.332  -0.229  10.450 -2.9588  0.5493 -2.5596
  109OSM    H1T11215   6.224  -0.237  10.588  2.3082  0.8480  0.2567
  109OSM     NF11216   6.129  -0.296  10.328  0.2428  0.6133 -0.0278
  109OSM    HNF11217   6.041  -0.253  10.345 -1.5941 -2.9800  0.4029
  109OSM    C2S11218   6.189  -0.386  10.421  0.0285  0.4478  1.1552
  109OSM    H2S11219   6.252  -0.463  10.372  0.3851  1.3221  0.2092
  109OSM    C3S11220   6.078  -0.459  10.509 -0.9261 -0.2859  1.0151
  109OSM    H3S11221   6.007  -0.384  10.549 -0.8341 -0.2264  1.0650
  109OSM     O311222   6.129  -0.533  10.625 -0.1505 -0.4829  0.5812
  109OSM    HO311223   6.224  -0.527  10.621 -0.1866 -0.7951 -1.8375
  109OSM    C4S11224   5.997  -0.553  10.428 -0.2965 -0.2417  0.0689
  109OSM    H4S11225   5.906  -0.497  10.401  0.5432  1.4752  0.6575
  109OSM    C5S11226   6.024  -0.677  10.386 -0.5385  0.0126  0.2272
  109OSM    H5S11227   6.118  -0.724  10.420 -0.6603 -0.1681  0.3184
  109OSM    C6S11228   5.941  -0.766  10.296  0.0670 -0.1048  0.7020
  109OSM    H6S11229   5.834  -0.758  10.326 -0.4185 -2.2575 -0.2302
  109OSM    H6T11230   5.967  -0.873  10.312 -0.3497 -0.0669  1.6654
  109OSM    C7S11231   5.949  -0.742  10.147  0.5229  0.1989 -0.1368
  109OSM    H7S11232   5.894  -0.810  10.079 -0.2865 -0.1338  0.8263
  109OSM    H7T11233   6.050  -0.768  10.111  0.2195 -2.2753  0.6516
  109OSM    C8S11234   5.915  -0.599  10.110 -0.0013 -0.3830  0.1286
  109OSM    H8S11235   5.996  -0.534  10.149  0.4781 -0.8256 -0.1184
  109OSM    H8T11236   5.821  -0.558  10.151  0.9125  0.6417  1.2710
  109OSM    C9S11237   5.902  -0.578   9.955 -0.2195  0.3398  0.2851
  109OSM    H9S11238   5.867  -0.674   9.912  0.0466  0.3163  0.1194
  109OSM    H9T11239   6.005  -0.560   9.918 -0.1943 -0.9048 -0.2759
  109OSM   C10S11240   5.797  -0.467   9.905  0.7530 -0.1947 -0.2670
  109OSM   H10S11241   5.820  -0.366   9.944  0.5914 -0.1397 -0.3141
  109OSM   H10T11242   5.705  -0.507   9.952 -0.1938  0.3290 -1.6126
  109OSM   C11S11243   5.783  -0.435   9.755  0.6502 -0.2493 -0.2606
  109OSM   H11S11244   5.732  -0.338   9.737  0.2120 -0.4574 -0.1792
  109OSM   H11T11245   5.730  -0.525   9.715 -0.0840  1.2112 -2.7705
  109OSM   C12S11246   5.919  -0.424   9.681 -0.3661  0.2162 -0.6997
  109OSM   H12S11247   5.968  -0.524   9.685  0.2794  0.5628  1.4129
  109OSM   H12T11248   5.992  -0.357   9.732 -2.5170  1.6989  0.6085
  109OSM   C13S11249   5.904  -0.371   9.542  0.4796  0.4534 -0.2968
  109OSM   H13S11250   6.004  -0.360   9.495  0.3339  0.3861 -0.6273
  109OSM   H13T11251   5.848  -0.275   9.539  0.6677  0.5753 -3.2720
  109OSM   C14S11252   5.840  -0.473   9.445 -0.9017  0.0263  0.1122
  109OSM   H14S11253   5.753  -0.528   9.488 -0.9021  0.8784  1.2665
  109OSM   H14T11254   5.918  -0.550   9.429 -0.0495  0.5798  1.3781
  109OSM   C15S11255   5.790  -0.435   9.301  0.4847  0.1487  0.5522
  109OSM   H15S11256   5.692  -0.384   9.315 -0.9107 -2.1484 -0.3919
  109OSM   H15T11257   5.765  -0.524   9.239  0.7354  2.1798 -2.6988
  109OSM   C16S11258   5.890  -0.354   9.222 -0.3743  0.7525 -0.1514
  109OSM   H16S11259   5.985  -0.411   9.225 -1.6252 -1.4543 -0.6684
  109OSM   H16T11260   5.904  -0.257   9.274 -0.1194  0.8990 -0.4860
  109OSM   C17S11261   5.861  -0.325   9.072  0.1081  0.6246 -0.0054
  109OSM   H17S11262   5.917  -0.231   9.052 -2.0305  2.1230  0.6298
  109OSM   H17T11263   5.756  -0.292   9.059 -0.2049  0.0702  0.9878
  109OSM   C18S11264   5.903  -0.437   8.971 -0.3318 -0.7565  0.0676
  109OSM   H18S11265   5.860  -0.532   9.009  0.3704  0.0819  3.2466
  109OSM   H18T11266   6.012  -0.454   8.962 -0.0510  1.5525 -1.9084
  109OSM   H18U11267   5.865  -0.407   8.870  1.3662  1.5261  0.0326
  109OSM    C1F11268   6.193  -0.246  10.222  0.2378  0.3284 -0.5244
  109OSM     OF11269   6.298  -0.299  10.199 -0.3149  0.2734 -0.3782
  109OSM    C2F11270   6.137  -0.135  10.146  0.1860  0.5484  0.7500
  109OSM    H2F11271   6.187  -0.037  10.163  0.8260  0.3217  0.2398
  109OSM    H2G11272   6.027  -0.126  10.160 -0.3420 -0.2671 -2.2804
  109OSM    C3F11273   6.156  -0.154   9.993 -0.8108  0.0985 -1.0086
  109OSM    H3F11274   6.118  -0.257   9.977  1.3522 -0.8213 -0.5912
  109OSM    H3G11275   6.266  -0.154   9.977 -0.8048  0.8724 -0.9876
  109OSM    C4F11276   6.091  -0.044   9.911 -0.0586 -0.1791  0.1136
  109OSM    H4F11277   6.140   0.055   9.927 -2.7506  1.0979  0.9474
  109OSM    H4G11278   5.986  -0.027   9.943  0.0228  0.7831 -0.0914
  109OSM    C5F11279   6.115  -0.086   9.771  0.3871  0.1510  0.5164
  109OSM    H5F11280   6.055  -0.177   9.751  1.0835 -0.7133  2.2075
  109OSM    H5G11281   6.221  -0.113   9.751  0.4536 -1.1595  2.4202
  109OSM    C6F11282   6.057   0.017   9.671  0.4003  0.1901  0.4032
  109OSM    H6F11283   6.081   0.120   9.706 -0.4467  0.0095  1.5879
  109OSM    H6G11284   5.946   0.014   9.676  0.3731 -0.0724 -0.3235
  109OSM    C7F11285   6.118  -0.005   9.542 -0.0771  0.5741  0.1169
  109OSM    H7F11286   6.101  -0.112   9.519 -0.7477  0.7930 -0.4802
  109OSM    H7G11287   6.227   0.010   9.554  0.1717  2.2917 -2.9759
  109OSM    C8F11288   6.059   0.078   9.428  0.7293 -1.1268  0.0663
  109OSM    H8F11289   6.134   0.071   9.347 -0.1482 -2.1654 -0.6834
  109OSM    H8G11290   6.058   0.187   9.450  1.5262 -1.0095 -0.4409
  109OSM    C9F11291   5.922   0.031   9.382  0.3221 -0.5490  0.0609
  109OSM    H9F11292   5.876  -0.053   9.435 -2.0841 -0.4139 -1.6742
  109OSM   C10F11293   5.847   0.080   9.285 -0.6716  0.7732 -0.1033
  109OSM   H10F11294   5.757   0.020   9.266 -1.8165  2.4705 -0.2724
  109OSM   C11F11295   5.869   0.197   9.192  0.2270 -0.4937 -0.5296
  109OSM   H11F11296   5.967   0.249   9.204 -0.5152  1.5955 -2.6528
  109OSM   H11G11297   5.791   0.274   9.213 -1.3987 -2.2269  0.0480
  109OSM   C12F11298   5.841   0.146   9.055 -0.2412 -1.7130  0.8941
  109OSM   H12F11299   5.737   0.109   9.042 -0.7142 -0.1643  0.0259
  109OSM   H12G11300   5.897   0.052   9.036 -0.9412 -1.8039 -0.9080
  109OSM   C13F11301   5.883   0.258   8.951 -0.2710 -0.1422  0.0119
  109OSM   H13F11302   5.992   0.278   8.939  0.1748 -1.5181  1.4209
  109OSM   H13G11303   5.839   0.354   8.986  1.1078  0.3460  0.4945
  109OSM   C14F11304   5.828   0.226   8.807 -0.1748 -0.5390 -0.0539
  109OSM   H14F11305   5.718   0.207   8.812 -0.5574  0.8569 -2.0322
  109OSM   H14G11306   5.885   0.136   8.776  1.0216  0.4734 -0.8462
  109OSM   C15F11307   5.856   0.329   8.707 -0.2188  0.1389 -0.6943
  109OSM   H15F11308   5.966   0.329   8.688  0.2260  0.0759  1.5747
  109OSM   H15G11309   5.827   0.428   8.749  1.7902  0.3610  0.3388
  109OSM   C16F11310   5.772   0.300   8.580 -0.5158 -0.8340 -0.2250
  109OSM   H16F11311   5.663   0.299   8.603 -0.1917 -0.2966  1.4763
  109OSM   H16G11312   5.789   0.195   8.548 -0.6665 -1.3605  1.3359
  109OSM   C17F11313   5.810   0.402   8.475 -0.2391 -0.2884 -0.4765
  109OSM   H17F11314   5.919   0.383   8.463 -0.4394 -2.0301  0.2139
  109OSM   H17G11315   5.801   0.503   8.519  1.6464 -0.2721 -0.0472
  109OSM   C18F11316   5.747   0.395   8.339 -0.1697 -0.3898 -0.4146
  109OSM   H18F11317   5.795   0.449   8.255 -0.3618  0.8036  0.2141
  109OSM   H18G11318   5.641   0.424   8.354  0.4105  1.2061  0.9370
  109OSM   H18H11319   5.749   0.286   8.315  2.5122 -0.6400  0.5311
  110OSM      N11320   0.221   5.804  10.772  0.2675  0.1271 -0.7657
  110OSM    C1511321   0.239   5.818  10.924 -0.5170  0.0731 -1.0405
  110OSM   H15A11322   0.205   5.725  10.965 -1.0397  0.1794 -1.2357
  110OSM   H15B11323   0.179   5.894  10.972  0.9513  0.7614 -0.1848
  110OSM   H15C11324   0.345   5.834  10.940 -0.2703 -1.5470 -0.8833
  110OSM    C1411325   0.082   5.746  10.738 -0.4072  0.5257 -0.2475
  110OSM   H14A11326   0.063   5.745  10.631 -0.7714  0.0158 -0.1846
  110OSM   H14B11327   0.006   5.803  10.789 -3.6032 -3.1416 -0.4154
  110OSM   H14C11328   0.071   5.645  10.774  0.7785  0.2514 -0.6065
  110OSM    C1311329   0.256   5.937  10.712  0.8411 -0.1119  0.3909
  110OSM   H13A11330   0.187   6.011  10.749 -0.0288 -1.3799  1.4249
  110OSM   H13B11331   0.250   5.932  10.605 -1.3838 -2.4198  0.5341
  110OSM   H13C11332   0.353   5.969  10.746  0.3848  1.4716  0.2637
  110OSM    C1211333   0.316   5.695  10.726 -0.6153  0.1926 -0.0483
  110OSM   H12A11334   0.415   5.733  10.707  0.9844 -1.7266  3.4959
  110OSM   H12B11335   0.279   5.660  10.630 -0.0998  1.4935 -0.7471
  110OSM    C1111336   0.341   5.566  10.816  0.3619 -0.6248  0.3440
  110OSM   H11A11337   0.367   5.483  10.747  0.7097 -0.1578 -0.0989
  110OSM   H11B11338   0.243   5.541  10.861  0.2067  0.0196  0.3703
  110OSM      P11339   0.588   5.594  10.895 -0.7283 -0.1658 -0.1050
  110OSM    O1311340   0.634   5.687  10.994 -0.0578 -0.2072 -0.1881
  110OSM    O1411341   0.646   5.452  10.903  0.5630  0.1531 -0.2502
  110OSM    O1111342   0.613   5.647  10.754  0.3792 -0.2882  0.4118
  110OSM    O1211343   0.436   5.589  10.920  0.7485  0.1975 -0.2389
  110OSM    C1S11344   0.637   5.789  10.741  0.1280  0.2205  0.2911
  110OSM    H1S11345   0.713   5.823  10.814 -0.2759 -0.7817  1.2037
  110OSM    H1T11346   0.553   5.859  10.761  3.2506  3.9645  1.2370
  110OSM     NF11347   0.720   5.970  10.592  0.1060 -0.1311  0.1446
  110OSM    HNF11348   0.677   6.030  10.525  0.9263  2.0428  1.4540
  110OSM    C2S11349   0.685   5.829  10.599 -0.2623 -0.1920 -0.0168
  110OSM    H2S11350   0.776   5.774  10.568  0.0440  0.1765  0.2187
  110OSM    C3S11351   0.581   5.776  10.494 -0.0364 -0.4950 -0.5365
  110OSM    H3S11352   0.484   5.827  10.510  0.7105  0.8124 -0.0822
  110OSM     O311353   0.566   5.635  10.496 -0.5682  0.3250 -0.0232
  110OSM    HO311354   0.615   5.601  10.572 -0.4284 -0.0607 -0.2828
  110OSM    C4S11355   0.623   5.809  10.360  0.4275 -1.0720  0.5350
  110OSM    H4S11356   0.697   5.741  10.314  1.0266 -0.6985  0.9462
  110OSM    C5S11357   0.580   5.904  10.283  0.1398 -0.2178  0.8198
  110OSM    H5S11358   0.502   5.963  10.333  0.6895 -0.2429  1.7117
  110OSM    C6S11359   0.611   5.955  10.140  0.6856 -0.1882 -0.1921
  110OSM    H6S11360   0.713   5.920  10.117  0.5064  0.3663 -1.9087
  110OSM    H6T11361   0.598   6.063  10.118  1.2356 -0.5375 -2.4739
  110OSM    C7S11362   0.526   5.898  10.024 -0.3921 -1.2793 -0.6370
  110OSM    H7S11363   0.426   5.947  10.022 -0.2407 -0.9612 -0.4382
  110OSM    H7T11364   0.510   5.789  10.041  2.0020 -1.4177  1.2650
  110OSM    C8S11365   0.588   5.919   9.892  0.1199 -0.2166 -0.2868
  110OSM    H8S11366   0.681   5.860   9.883  0.0915 -0.4350  0.7699
  110OSM    H8T11367   0.618   6.024   9.872  1.2544 -0.1884  1.3709
  110OSM    C9S11368   0.492   5.865   9.789  0.3901  0.0511  0.3063
  110OSM    H9S11369   0.398   5.920   9.808  0.4752  0.3079 -0.0049
  110OSM    H9T11370   0.473   5.759   9.816  0.6562 -0.4411 -1.3503
  110OSM   C10S11371   0.542   5.891   9.644  0.4535  0.4605  0.4123
  110OSM   H10S11372   0.651   5.886   9.626  0.2473 -0.7204 -0.6469
  110OSM   H10T11373   0.523   5.998   9.625 -1.2372  0.0337 -0.5677
  110OSM   C11S11374   0.438   5.831   9.541 -0.1080 -0.5717 -0.4796
  110OSM   H11S11375   0.344   5.886   9.565 -0.1144 -0.7740 -0.0283
  110OSM   H11T11376   0.432   5.723   9.564  1.6104 -0.3959  0.9708
  110OSM   C12S11377   0.469   5.857   9.392 -0.1065  0.3595 -0.2001
  110OSM   H12S11378   0.508   5.959   9.372 -0.5808  0.2423 -1.8376
  110OSM   H12T11379   0.380   5.836   9.329  0.9149  0.2813 -1.6677
  110OSM   C13S11380   0.575   5.766   9.337  0.8798  0.0637  0.5304
  110OSM   H13S11381   0.518   5.671   9.331 -2.3413  1.7875  1.4891
  110OSM   H13T11382   0.662   5.758   9.404  1.7952  0.6316 -0.5520
  110OSM   C14S11383   0.616   5.793   9.190  0.3877  0.6547  0.6348
  110OSM   H14S11384   0.616   5.900   9.163  0.3382  0.8176  1.2616
  110OSM   H14T11385   0.539   5.748   9.123  1.3072 -0.4526  0.2940
  110OSM   C15S11386   0.749   5.728   9.146 -0.0899  0.6971  1.0488
  110OSM   H15S11387   0.729   5.619   9.137  0.6064  0.6183  0.4056
  110OSM   H15T11388   0.830   5.735   9.222  0.7898  1.7346  0.0490
  110OSM   C16S11389   0.790   5.776   9.007  0.0578  0.3567  0.1681
  110OSM   H16S11390   0.752   5.880   9.004  0.1008  0.6446  3.9934
  110OSM   H16T11391   0.731   5.724   8.928  0.7662 -0.4623  0.1737
  110OSM   C17S11392   0.934   5.754   8.965 -0.2309  0.5041  0.4545
  110OSM   H17S11393   0.982   5.833   9.028 -2.1573  2.1261 -0.0037
  110OSM   H17T11394   0.956   5.785   8.861  1.1542 -0.7029  0.3576
  110OSM   C18S11395   0.981   5.605   9.000  0.0119 -0.7678  0.0846
  110OSM   H18S11396   0.996   5.596   9.109 -1.9359  2.2307  0.7235
  110OSM   H18T11397   1.078   5.589   8.949  0.5158  1.1363  0.3655
  110OSM   H18U11398   0.904   5.533   8.964  0.3349  0.3724 -3.2745
  110OSM    C1F11399   0.842   6.013  10.630  0.8786  0.1659  0.0905
  110OSM     OF11400   0.908   5.949  10.705 -0.3772 -0.3617  0.0602
  110OSM    C2F11401   0.890   6.138  10.577  0.7708  0.6290 -0.5148
  110OSM    H2F11402   0.946   6.201  10.650  0.5033  0.4224 -0.1294
  110OSM    H2G11403   0.809   6.208  10.549 -0.1736  0.2194  1.1010
  110OSM    C3F11404   0.988   6.116  10.464  0.1176 -0.6947  0.7648
  110OSM    H3F11405   0.932   6.070  10.381 -1.9629  0.1197  1.6393
  110OSM    H3G11406   1.057   6.041  10.509 -0.5754 -1.1262  1.1382
  110OSM    C4F11407   1.064   6.247  10.434  0.8818 -0.0534  0.1488
  110OSM    H4F11408   1.092   6.287  10.534 -0.9126  0.0369  0.6494
  110OSM    H4G11409   0.988   6.313  10.387  0.7945  0.1584  0.5763
  110OSM    C5F11410   1.191   6.224  10.344  1.1392  0.4134  1.2738
  110OSM    H5F11411   1.267   6.167  10.402  0.8584 -0.4457  0.8126
  110OSM    H5G11412   1.235   6.324  10.329  0.4340  0.6483  0.7232
  110OSM    C6F11413   1.161   6.165  10.204 -0.3405 -0.0669  1.1734
  110OSM    H6F11414   1.110   6.066  10.212  0.7616 -0.6596  1.0830
  110OSM    H6G11415   1.262   6.126  10.177 -1.0793 -0.4977 -1.1832
  110OSM    C7F11416   1.099   6.266  10.103  0.1229  0.0093 -0.0538
  110OSM    H7F11417   1.137   6.368  10.125 -3.5510  1.4537  0.3033
  110OSM    H7G11418   0.996   6.280  10.143 -1.2480 -3.0694 -2.1076
  110OSM    C8F11419   1.105   6.231   9.951 -0.0716 -0.2179  0.2001
  110OSM    H8F11420   1.038   6.144   9.935 -0.5645 -0.1522  1.7493
  110OSM    H8G11421   1.199   6.183   9.918  0.1485 -1.7391  2.7857
  110OSM    C9F11422   1.085   6.347   9.860 -0.3160 -0.4172  0.2002
  110OSM    H9F11423   1.174   6.407   9.838  0.0002 -0.8537  0.2709
  110OSM   C10F11424   0.965   6.379   9.803 -0.3743  0.5650  0.2684
  110OSM   H10F11425   0.956   6.474   9.749  1.2125  0.3164 -0.5043
  110OSM   C11F11426   0.834   6.301   9.821 -0.5489 -0.4606  0.0157
  110OSM   H11F11427   0.766   6.351   9.893 -2.2426 -1.9367 -0.5060
  110OSM   H11G11428   0.849   6.200   9.864 -0.1023  0.4072  2.0508
  110OSM   C12F11429   0.758   6.293   9.689  0.1226  0.1383 -0.7340
  110OSM   H12F11430   0.744   6.394   9.646 -1.0560 -0.0285 -0.7842
  110OSM   H12G11431   0.657   6.249   9.701  0.1595  0.2648  0.1254
  110OSM   C13F11432   0.833   6.210   9.586 -0.2694  0.1170 -0.0173
  110OSM   H13F11433   0.844   6.103   9.617 -2.2245 -1.7106 -4.6597
  110OSM   H13G11434   0.934   6.254   9.570 -0.7306  1.7018  1.2150
  110OSM   C14F11435   0.757   6.200   9.452 -0.3640 -0.8697 -0.2879
  110OSM   H14F11436   0.751   6.302   9.407 -0.0937 -0.0981  1.3595
  110OSM   H14G11437   0.659   6.164   9.489  0.0240  0.6405  2.4617
  110OSM   C15F11438   0.820   6.095   9.364 -0.0450  0.0613 -0.1839
  110OSM   H15F11439   0.752   6.053   9.287  0.9663 -0.7610 -0.6393
  110OSM   H15G11440   0.853   6.008   9.425 -0.7820 -0.9941 -1.2513
  110OSM   C16F11441   0.928   6.141   9.271  0.4284 -0.1549  0.2822
  110OSM   H16F11442   0.974   6.053   9.220 -1.5671 -1.0899  0.0069
  110OSM   H16G11443   1.001   6.193   9.337 -1.0484 -0.6007  2.3635
  110OSM   C17F11444   0.877   6.227   9.159 -0.5997 -0.4758 -0.0085
  110OSM   H17F11445   0.851   6.326   9.202 -2.9718 -1.0918  0.1110
  110OSM   H17G11446   0.780   6.188   9.120 -1.1996  0.0051  0.9576
  110OSM   C18F11447   0.981   6.246   9.052  0.6371 -0.0520  0.4388
  110OSM   H18F11448   1.084   6.248   9.092  0.4178  1.7488  1.0323
  110OSM   H18G11449   0.961   6.341   8.999  4.4206 -0.1357 -1.4668
  110OSM   H18H11450   0.976   6.164   8.977  2.9551 -0.8623  1.0937
  111OSM      N11451   1.727   2.185  11.247 -0.5063  0.0477  0.4628
  111OSM    C1511452   1.833   2.290  11.256  0.2074  0.4720 -0.3748
  111OSM   H15A11453   1.804   2.385  11.299 -1.4934 -0.4630  0.6009
  111OSM   H15B11454   1.865   2.306  11.154  0.1904  0.5200 -0.3730
  111OSM   H15C11455   1.917   2.244  11.306  0.6620  1.3825 -0.2723
  111OSM    C1411456   1.695   2.143  11.385 -1.3652  0.2646  0.6825
  111OSM   H14A11457   1.610   2.077  11.381 -1.8659  0.6264  3.2749
  111OSM   H14B11458   1.660   2.228  11.441 -0.9087 -1.3167  3.5621
  111OSM   H14C11459   1.783   2.099  11.431 -0.3196  0.6640 -0.8368
  111OSM    C1311460   1.598   2.251  11.197 -0.5333  0.5516  0.4192
  111OSM   H13A11461   1.622   2.296  11.101  0.9893  0.3707  0.6855
  111OSM   H13B11462   1.557   2.331  11.256 -0.6123  1.6499 -1.0705
  111OSM   H13C11463   1.523   2.174  11.184  0.7951 -0.7248  0.0287
  111OSM    C1211464   1.770   2.061  11.179 -0.8121  0.1482  0.1290
  111OSM   H12A11465   1.701   1.980  11.199  0.3987 -0.3307  2.7654
  111OSM   H12B11466   1.868   2.040  11.218 -0.8532  0.0807  0.1966
  111OSM    C1111467   1.775   2.075  11.024 -0.0613  0.3151 -0.4151
  111OSM   H11A11468   1.677   2.107  10.983 -0.0018  0.3041 -0.5665
  111OSM   H11B11469   1.805   1.980  10.974  1.4200  0.0971  0.7925
  111OSM      P11470   2.024   2.125  10.959  0.3266 -0.2149 -0.1255
  111OSM    O1311471   2.110   2.241  10.954  0.0868  0.5725 -0.3742
  111OSM    O1411472   2.067   2.019  11.053  1.1947  0.1382  0.0556
  111OSM    O1111473   2.019   2.063  10.815 -0.2970 -0.3853 -0.1444
  111OSM    O1211474   1.870   2.171  10.988 -0.4026  0.0973 -0.2380
  111OSM    C1S11475   1.936   2.119  10.712 -0.4999 -0.0370 -0.1490
  111OSM    H1S11476   1.978   2.217  10.684  1.9131 -0.8881  0.2305
  111OSM    H1T11477   1.833   2.133  10.751 -0.4356 -0.5850  0.2308
  111OSM     NF11478   1.889   2.101  10.473 -0.7146  0.2264  0.4549
  111OSM    HNF11479   1.802   2.057  10.453 -0.1111 -1.0028  0.4927
  111OSM    C2S11480   1.952   2.025  10.581 -0.5086 -0.0024 -0.3510
  111OSM    H2S11481   2.061   2.017  10.558 -0.9010  0.0779 -2.5063
  111OSM    C3S11482   1.901   1.886  10.608 -0.2586 -0.1765 -0.1315
  111OSM    H3S11483   1.791   1.896  10.622 -0.2560 -0.3685  0.0239
  111OSM     O311484   1.934   1.835  10.738  0.7347  0.3115 -0.0253
  111OSM    HO311485   1.939   1.920  10.784 -1.4829 -0.7330  2.3790
  111OSM    C4S11486   1.940   1.788  10.501 -0.0239  0.7046  0.1959
  111OSM    H4S11487   2.019   1.717  10.529 -0.2363  0.3110 -0.2117
  111OSM    C5S11488   1.874   1.769  10.380  0.3551  0.6703 -0.4848
  111OSM    H5S11489   1.779   1.818  10.356 -2.4053 -4.5504 -1.7007
  111OSM    C6S11490   1.913   1.662  10.282  0.0254 -0.5358 -0.4341
  111OSM    H6S11491   1.883   1.559  10.313 -0.5607 -0.6286 -1.2843
  111OSM    H6T11492   2.023   1.656  10.263 -0.0735  0.3858 -1.3709
  111OSM    C7S11493   1.855   1.700  10.151  0.6927 -0.1803  0.4504
  111OSM    H7S11494   1.881   1.798  10.105  1.1159 -0.4977  0.0091
  111OSM    H7T11495   1.746   1.723  10.149  0.7726  0.2353 -1.9437
  111OSM    C8S11496   1.897   1.611  10.029 -0.4504  0.0330  0.3311
  111OSM    H8S11497   1.894   1.502  10.050 -1.4268 -0.0383 -0.1053
  111OSM    H8T11498   2.004   1.634  10.014  0.0467 -1.6960  1.0503
  111OSM    C9S11499   1.832   1.637   9.897  0.0305 -0.2497 -0.0279
  111OSM    H9S11500   1.819   1.745   9.874 -1.7752 -0.5246 -0.4333
  111OSM    H9T11501   1.731   1.592   9.904 -0.8467  1.7152  0.8107
  111OSM   C10S11502   1.914   1.576   9.779 -0.0783  0.1882 -0.7367
  111OSM   H10S11503   1.912   1.466   9.795  0.9971  0.3058  0.3306
  111OSM   H10T11504   2.017   1.617   9.780  0.7239 -1.6043  2.1808
  111OSM   C11S11505   1.855   1.597   9.644 -0.3015  0.3138  0.3188
  111OSM   H11S11506   1.871   1.703   9.617  0.7312 -0.3394 -1.8537
  111OSM   H11T11507   1.746   1.580   9.660 -0.4117  1.9858  1.6007
  111OSM   C12S11508   1.917   1.498   9.537  0.0785 -0.8037 -0.1080
  111OSM   H12S11509   1.896   1.396   9.574  1.0665 -0.6977  0.7777
  111OSM   H12T11510   2.027   1.510   9.538  0.1585 -1.1875 -1.7354
  111OSM   C13S11511   1.860   1.529   9.400  0.1169 -0.2668 -0.9076
  111OSM   H13S11512   1.750   1.525   9.414  0.1753 -0.1127 -0.3894
  111OSM   H13T11513   1.887   1.452   9.325 -0.2552 -0.7563 -0.5446
  111OSM   C14S11514   1.893   1.672   9.341 -0.4526  0.4098 -0.8136
  111OSM   H14S11515   2.004   1.662   9.342 -0.6326 -3.4454  1.8091
  111OSM   H14T11516   1.861   1.752   9.412 -2.0251 -1.2784  0.4709
  111OSM   C15S11517   1.823   1.685   9.202 -0.1556 -0.5347 -0.8232
  111OSM   H15S11518   1.847   1.782   9.153  0.1354 -0.6106 -0.8284
  111OSM   H15T11519   1.719   1.703   9.238  0.2553  1.0758 -0.3715
  111OSM   C16S11520   1.838   1.572   9.101 -0.4291  0.3145  0.2468
  111OSM   H16S11521   1.788   1.478   9.133 -1.4660  0.6782 -0.2609
  111OSM   H16T11522   1.943   1.537   9.098 -0.8816 -1.1016  0.5029
  111OSM   C17S11523   1.799   1.606   8.957 -0.1994 -0.1220 -0.0068
  111OSM   H17S11524   1.831   1.520   8.894 -0.4647 -0.2685  0.0538
  111OSM   H17T11525   1.868   1.688   8.929  0.3871  0.3475  2.5774
  111OSM   C18S11526   1.642   1.648   8.949 -0.1790  0.2852 -0.0885
  111OSM   H18S11527   1.619   1.685   8.846 -1.6057 -0.4430 -0.0569
  111OSM   H18T11528   1.609   1.727   9.020  1.4714  0.6061  0.3534
  111OSM   H18U11529   1.570   1.565   8.966 -3.3377  2.4162 -1.9993
  111OSM    C1F11530   1.940   2.204  10.416  0.3074  0.3920 -0.0236
  111OSM     OF11531   2.044   2.258  10.453  0.1247 -0.0467  0.1553
  111OSM    C2F11532   1.850   2.262  10.309 -0.3019  0.2577  0.1261
  111OSM    H2F11533   1.775   2.337  10.340  1.2295  2.3218 -0.8799
  111OSM    H2G11534   1.797   2.181  10.255  0.3553 -0.1297  0.0494
  111OSM    C3F11535   1.938   2.331  10.200 -0.1524 -0.8996 -0.2735
  111OSM    H3F11536   2.035   2.284  10.174  1.3156  2.7164 -2.0166
  111OSM    H3G11537   1.967   2.431  10.238 -0.1511 -1.6553  1.9011
  111OSM    C4F11538   1.876   2.333  10.066 -0.1215  0.7830 -0.5629
  111OSM    H4F11539   1.842   2.232  10.031  0.5493 -0.0663  1.1321
  111OSM    H4G11540   1.949   2.371   9.991  0.2931 -0.2388 -0.7011
  111OSM    C5F11541   1.748   2.428  10.051  0.1714 -0.1671 -0.0477
  111OSM    H5F11542   1.777   2.528  10.090  2.3268 -0.4038 -0.9008
  111OSM    H5G11543   1.676   2.388  10.127 -0.0889  3.4524  1.8183
  111OSM    C6F11544   1.681   2.431   9.911  0.5970 -0.5062 -0.5657
  111OSM    H6F11545   1.676   2.328   9.869  0.0641 -1.1305  0.9329
  111OSM    H6G11546   1.753   2.484   9.845  0.0936 -1.4333 -1.8970
  111OSM    C7F11547   1.539   2.504   9.907 -0.0664  0.0413  0.3166
  111OSM    H7F11548   1.544   2.611   9.937 -1.5120 -0.0760  1.0678
  111OSM    H7G11549   1.470   2.446   9.973  0.6235  1.8141  2.7650
  111OSM    C8F11550   1.489   2.511   9.757  0.0338 -0.5902 -0.5134
  111OSM    H8F11551   1.379   2.519   9.773  0.0269 -0.0781 -0.8120
  111OSM    H8G11552   1.499   2.410   9.711 -1.6017 -1.2117  0.4179
  111OSM    C9F11553   1.537   2.622   9.681  0.6622 -0.6521  0.1277
  111OSM    H9F11554   1.523   2.722   9.725 -0.1590 -0.3745 -0.7415
  111OSM   C10F11555   1.598   2.609   9.565  0.5337 -0.0952  0.0870
  111OSM   H10F11556   1.622   2.708   9.524  0.4755  0.8124  2.1543
  111OSM   C11F11557   1.626   2.482   9.483 -0.2758  0.5374 -0.1676
  111OSM   H11F11558   1.585   2.387   9.523 -1.8673  0.5995 -1.5684
  111OSM   H11G11559   1.737   2.474   9.482 -0.3119 -0.7760  1.6635
  111OSM   C12F11560   1.576   2.502   9.338  0.3035  0.0479  0.4920
  111OSM   H12F11561   1.469   2.533   9.337 -0.0076 -0.9892  0.5156
  111OSM   H12G11562   1.585   2.402   9.290 -0.0900  0.0471  0.4141
  111OSM   C13F11563   1.643   2.610   9.251 -0.1938  0.5840  0.0413
  111OSM   H13F11564   1.736   2.576   9.201  0.5596  1.8527  0.5388
  111OSM   H13G11565   1.683   2.694   9.312 -0.9605  0.1498  1.1719
  111OSM   C14F11566   1.549   2.683   9.152 -0.8024 -0.0559  0.3615
  111OSM   H14F11567   1.449   2.702   9.195 -0.5327  1.0248  0.5223
  111OSM   H14G11568   1.536   2.619   9.062 -0.5617  1.7944 -1.0314
  111OSM   C15F11569   1.610   2.824   9.124  0.1894  0.1201  0.3640
  111OSM   H15F11570   1.707   2.808   9.073 -0.6304 -2.4951 -0.5127
  111OSM   H15G11571   1.630   2.874   9.221  0.1833  1.2564 -0.2050
  111OSM   C16F11572   1.518   2.923   9.044  0.3367 -0.3143 -0.1174
  111OSM   H16F11573   1.567   3.022   9.047 -0.4988  0.4356 -4.2354
  111OSM   H16G11574   1.426   2.935   9.105  0.1838  0.5405 -0.5068
  111OSM   C17F11575   1.494   2.870   8.905  0.6133 -0.5504  0.1292
  111OSM   H17F11576   1.406   2.804   8.921 -1.3029  1.5051 -1.2706
  111OSM   H17G11577   1.580   2.807   8.873  1.5086  1.0987 -0.8497
  111OSM   C18F11578   1.478   2.981   8.806 -0.1772  0.1748  0.4091
  111OSM   H18F11579   1.562   3.054   8.812 -0.7681  0.9414 -0.3900
  111OSM   H18G11580   1.395   3.047   8.840  0.1661  1.2325 -0.7594
  111OSM   H18H11581   1.451   2.949   8.704 -0.4389  1.6243 -0.0025
  112OSM      N11582   1.366   5.946  11.090  0.2758  0.1213  0.3168
  112OSM    C1511583   1.344   5.985  11.231  0.4093 -0.4527 -0.0723
  112OSM   H15A11584   1.439   6.003  11.280  0.7147 -0.4260 -0.6653
  112OSM   H15B11585   1.300   5.899  11.278  0.4386 -0.0064  0.8011
  112OSM   H15C11586   1.278   6.069  11.244  3.7262  2.3425  0.4052
  112OSM    C1411587   1.476   5.846  11.080 -0.2778  0.9408 -0.1984
  112OSM   H14A11588   1.554   5.852  11.153  0.0855 -0.6333 -0.4177
  112OSM   H14B11589   1.536   5.847  10.990  4.0571 -1.8605  2.3158
  112OSM   H14C11590   1.430   5.750  11.098 -1.8048  1.0521 -2.8455
  112OSM    C1311591   1.235   5.889  11.049 -0.4682  0.5965 -0.0210
  112OSM   H13A11592   1.164   5.971  11.054  1.0097  1.8593  1.7744
  112OSM   H13B11593   1.202   5.819  11.123 -0.0065  1.3994  0.9793
  112OSM   H13C11594   1.247   5.857  10.947  0.8883  2.4729 -0.5214
  112OSM    C1211595   1.402   6.071  11.014  0.5525 -0.2582 -0.3282
  112OSM   H12A11596   1.480   6.128  11.062 -0.3254  0.2556  0.5058
  112OSM   H12B11597   1.319   6.139  11.010  2.1749  1.7806 -0.9756
  112OSM    C1111598   1.451   6.066  10.868 -0.5439  0.2038  0.1293
  112OSM   H11A11599   1.475   6.170  10.838  1.3408  0.5648  2.5164
  112OSM   H11B11600   1.365   6.037  10.804 -0.7864  0.0894  0.5069
  112OSM      P11601   1.703   6.030  10.853  0.1462 -0.2378  0.1100
  112OSM    O1311602   1.715   6.169  10.895 -0.1299 -0.1066 -0.2350
  112OSM    O1411603   1.780   5.920  10.920  0.1209 -0.1793  0.1184
  112OSM    O1111604   1.738   6.033  10.697 -0.1736  0.2063  0.3788
  112OSM    O1211605   1.553   5.977  10.849 -1.2899  0.1057  0.1419
  112OSM    C1S11606   1.717   5.906  10.634 -0.3810  0.8199 -0.6464
  112OSM    H1S11607   1.617   5.864  10.655 -0.5783  1.6626  0.1712
  112OSM    H1T11608   1.793   5.836  10.675 -0.5433  0.8502 -0.2913
  112OSM     NF11609   1.643   5.822  10.406  1.2064  0.1057 -0.4450
  112OSM    HNF11610   1.686   5.740  10.370  0.5212 -0.1469 -0.7069
  112OSM    C2S11611   1.727   5.923  10.476  0.3777  0.3604 -0.3320
  112OSM    H2S11612   1.686   6.025  10.460 -2.1208 -0.3166  1.1405
  112OSM    C3S11613   1.875   5.923  10.445 -0.4486 -0.1059  0.1682
  112OSM    H3S11614   1.919   5.822  10.458 -1.1872 -0.4517  0.0177
  112OSM     O311615   1.948   6.014  10.528  0.0075 -0.0054  0.3708
  112OSM    HO311616   1.881   6.044  10.590  0.0092 -1.4408  1.0987
  112OSM    C4S11617   1.879   5.969  10.298  0.0514  0.1374  0.0968
  112OSM    H4S11618   1.873   5.884  10.228  1.1589 -0.1541  0.3300
  112OSM    C5S11619   1.881   6.089  10.242 -0.3428  0.8027 -0.1513
  112OSM    H5S11620   1.871   6.170  10.315 -2.6557  0.3485  0.1014
  112OSM    C6S11621   1.876   6.117  10.097 -0.5745 -0.4683 -0.1173
  112OSM    H6S11622   1.959   6.189  10.087 -0.0648 -1.1509 -1.0456
  112OSM    H6T11623   1.784   6.178  10.082 -0.0646 -0.2315 -2.8644
  112OSM    C7S11624   1.867   6.002   9.989 -0.1036  0.5400 -0.4493
  112OSM    H7S11625   1.778   5.938  10.008  0.4274  0.1954  1.0434
  112OSM    H7T11626   1.952   5.931   9.990 -1.2268 -0.9191  1.9209
  112OSM    C8S11627   1.839   6.057   9.847 -0.5899 -0.1150 -0.0661
  112OSM    H8S11628   1.926   6.117   9.813  0.6336 -0.6571  1.9717
  112OSM    H8T11629   1.749   6.121   9.842 -1.1101 -0.6818  1.4735
  112OSM    C9S11630   1.830   5.936   9.761 -0.1300 -0.5605  0.3888
  112OSM    H9S11631   1.786   5.848   9.812  0.0301  0.1239  1.7490
  112OSM    H9T11632   1.925   5.894   9.721  0.0606 -0.5770  0.8533
  112OSM   C10S11633   1.747   5.978   9.636  0.1117  0.2156  0.3513
  112OSM   H10S11634   1.652   6.029   9.666  2.3129  2.9562  3.3606
  112OSM   H10T11635   1.733   5.884   9.579  0.7647 -0.2889  1.0037
  112OSM   C11S11636   1.829   6.070   9.547  0.4215 -0.0522 -0.1541
  112OSM   H11S11637   1.933   6.085   9.583  0.2277  3.5907 -0.7799
  112OSM   H11T11638   1.778   6.168   9.558  1.0482  0.1713  0.9003
  112OSM   C12S11639   1.828   6.031   9.396 -0.6439 -0.1546  0.4070
  112OSM   H12S11640   1.728   6.027   9.347 -0.3269  1.4329 -0.4391
  112OSM   H12T11641   1.887   5.941   9.369  0.7902  1.4518 -2.2390
  112OSM   C13S11642   1.912   6.136   9.321  0.2776 -0.4396  0.6208
  112OSM   H13S11643   2.014   6.142   9.367  1.4892 -1.0533 -1.8423
  112OSM   H13T11644   1.859   6.230   9.347  0.1283  0.3750 -2.2613
  112OSM   C14S11645   1.923   6.135   9.173  0.0996  0.8119  0.0846
  112OSM   H14S11646   1.974   6.229   9.142 -0.3810  0.9623 -0.2571
  112OSM   H14T11647   1.822   6.137   9.127 -0.4075 -0.7660  1.0506
  112OSM   C15S11648   1.995   6.008   9.114 -0.4137  0.0879 -0.1425
  112OSM   H15S11649   1.949   5.919   9.163  1.0064 -0.0637  1.0195
  112OSM   H15T11650   2.102   6.016   9.145 -0.5008 -0.9892  0.5253
  112OSM   C16S11651   1.982   6.010   8.962 -0.5213 -0.7093  0.4101
  112OSM   H16S11652   1.959   6.116   8.938 -0.8327 -1.2375 -1.8063
  112OSM   H16T11653   1.901   5.946   8.921  0.7498 -3.5496  2.0174
  112OSM   C17S11654   2.109   5.966   8.879  1.1149 -0.1247  0.4939
  112OSM   H17S11655   2.108   5.855   8.876 -0.6791 -0.1746  1.3458
  112OSM   H17T11656   2.192   6.000   8.944  0.7357  2.0378 -0.0763
  112OSM   C18S11657   2.122   6.024   8.741 -0.1779  0.3742  0.1855
  112OSM   H18S11658   2.043   5.973   8.682  1.0964 -2.1532  0.5212
  112OSM   H18T11659   2.224   6.007   8.701  0.0005  0.8867  0.4121
  112OSM   H18U11660   2.099   6.132   8.744  0.8706  0.5877  0.8770
  112OSM    C1F11661   1.512   5.823  10.399 -0.2659 -0.1211 -0.2481
  112OSM     OF11662   1.447   5.912  10.453 -0.0108  0.2291 -0.7300
  112OSM    C2F11663   1.447   5.710  10.323  0.5170 -0.2184 -0.7024
  112OSM    H2F11664   1.416   5.637  10.401 -0.4673 -0.9884 -1.7960
  112OSM    H2G11665   1.529   5.667  10.261  1.9837 -0.2280  1.1318
  112OSM    C3F11666   1.319   5.752  10.247 -0.8803  0.3443 -0.3128
  112OSM    H3F11667   1.245   5.802  10.312 -0.5836  0.6359 -0.1953
  112OSM    H3G11668   1.285   5.657  10.200 -0.5619 -0.3967  0.9075
  112OSM    C4F11669   1.346   5.859  10.137  0.3951 -0.7119  0.1941
  112OSM    H4F11670   1.380   5.949  10.192 -0.7374 -0.7299  0.9477
  112OSM    H4G11671   1.248   5.877  10.089 -0.0119 -4.7377 -0.8825
  112OSM    C5F11672   1.435   5.829  10.023 -0.6229  0.1529  0.0500
  112OSM    H5F11673   1.394   5.738   9.975 -3.5130  0.4977  1.6324
  112OSM    H5G11674   1.544   5.813  10.041  0.0184 -1.4599 -4.1753
  112OSM    C6F11675   1.442   5.950   9.918  0.4946 -0.1820 -0.6075
  112OSM    H6F11676   1.532   5.937   9.854  1.9859  1.6638  1.0035
  112OSM    H6G11677   1.464   6.045   9.970 -2.3958  1.7187 -2.5420
  112OSM    C7F11678   1.324   5.959   9.821 -0.1414 -0.5140  0.7519
  112OSM    H7F11679   1.223   5.992   9.855  0.0334  1.2290 -0.2687
  112OSM    H7G11680   1.306   5.855   9.786 -1.1623 -0.3812  0.8405
  112OSM    C8F11681   1.361   6.038   9.693  0.1328 -0.2819 -0.1049
  112OSM    H8F11682   1.445   5.978   9.653 -0.8050 -1.5878 -0.1627
  112OSM    H8G11683   1.398   6.141   9.713  0.4526 -0.4136 -0.0284
  112OSM    C9F11684   1.232   6.056   9.605 -0.1259 -0.5906  0.0246
  112OSM    H9F11685   1.150   6.122   9.638  0.9824  1.8588 -1.7625
  112OSM   C10F11686   1.223   6.006   9.480 -1.0054 -0.3823  0.3217
  112OSM   H10F11687   1.123   5.995   9.435 -0.3042 -2.9524 -0.8408
  112OSM   C11F11688   1.323   5.924   9.395 -0.4307  0.1107  0.1877
  112OSM   H11F11689   1.280   5.824   9.370 -1.1336  0.3744  0.3005
  112OSM   H11G11690   1.420   5.902   9.443 -1.0733 -1.3172  0.8997
  112OSM   C12F11691   1.341   5.990   9.258 -0.0346  0.0114  0.1992
  112OSM   H12F11692   1.399   6.084   9.270 -1.5788  0.7490  2.3719
  112OSM   H12G11693   1.240   6.013   9.217 -0.3468 -1.2471  0.2217
  112OSM   C13F11694   1.421   5.904   9.155 -0.5896  0.3831 -1.0362
  112OSM   H13F11695   1.376   5.803   9.145  1.4993 -1.0793  2.4776
  112OSM   H13G11696   1.521   5.888   9.202 -0.5758  1.1222 -0.7930
  112OSM   C14F11697   1.449   5.979   9.023  0.2062  0.2108 -0.3366
  112OSM   H14F11698   1.528   6.056   9.038 -1.5548  2.0563 -0.1207
  112OSM   H14G11699   1.354   6.028   8.993 -0.1370  0.6862  1.4518
  112OSM   C15F11700   1.518   5.881   8.924  0.2693 -0.2050 -0.2536
  112OSM   H15F11701   1.447   5.796   8.910 -2.4182  1.8122  0.1687
  112OSM   H15G11702   1.610   5.834   8.965 -1.3155 -1.7890  1.7212
  112OSM   C16F11703   1.535   5.944   8.779 -0.3045 -0.6557  0.1876
  112OSM   H16F11704   1.602   5.892   8.707 -2.4148 -0.6653 -1.9151
  112OSM   H16G11705   1.578   6.046   8.771 -0.3944 -0.6844 -0.8391
  112OSM   C17F11706   1.408   5.959   8.684  0.3259 -0.8369 -0.2851
  112OSM   H17F11707   1.314   5.950   8.743  1.1393 -2.3347  0.8531
  112OSM   H17G11708   1.393   5.877   8.611 -4.1399  1.6891 -2.6530
  112OSM   C18F11709   1.411   6.089   8.596  0.0977  0.0140  0.2642
  112OSM   H18F11710   1.318   6.088   8.536 -0.2734 -0.1615  0.8329
  112OSM   H18G11711   1.500   6.081   8.530  1.5329 -0.7625  2.1890
  112OSM   H18H11712   1.421   6.178   8.663  2.1794 -0.8698  1.2423
  113OSM      N11713   5.363   3.584  11.074 -0.0560 -0.2129  0.1326
  113OSM    C1511714   5.320   3.496  10.970 -0.0503  0.3078  0.7351
  113OSM   H15A11715   5.323   3.550  10.876  2.3815  0.0738  0.6180
  113OSM   H15B11716   5.224   3.448  10.983  0.6499 -1.2406  0.3380
  113OSM   H15C11717   5.380   3.407  10.962 -0.1276  0.3505 -0.7242
  113OSM    C1411718   5.378   3.523  11.206  0.1451 -0.6382  0.3003
  113OSM   H14A11719   5.398   3.599  11.280  0.0641  1.0532 -1.3635
  113OSM   H14B11720   5.464   3.457  11.204  2.1726  1.8109 -2.7484
  113OSM   H14C11721   5.289   3.469  11.232 -2.0627  2.2792 -0.7143
  113OSM    C1311722   5.494   3.646  11.049 -0.1525 -0.6280  0.6805
  113OSM   H13A11723   5.522   3.702  11.137  0.8110 -2.0228  1.3068
  113OSM   H13B11724   5.481   3.721  10.972 -1.4539 -2.4846 -1.0100
  113OSM   H13C11725   5.572   3.575  11.026 -0.1799 -0.4724  0.0830
  113OSM    C1211726   5.270   3.707  11.081 -0.2745  0.7720  0.0347
  113OSM   H12A11727   5.316   3.771  11.155  0.4982 -0.2609  0.4844
  113OSM   H12B11728   5.172   3.684  11.120  0.5505  0.7744  2.2938
  113OSM    C1111729   5.235   3.797  10.958 -0.4827 -0.5723  0.2662
  113OSM   H11A11730   5.146   3.855  10.990 -0.1492 -0.8554  1.7371
  113OSM   H11B11731   5.194   3.732  10.878  0.5665 -0.8955 -0.0236
  113OSM      P11732   5.385   3.991  10.993 -0.2583  0.1046 -0.4213
  113OSM    O1311733   5.281   4.018  11.095 -0.0294 -0.1898  0.9409
  113OSM    O1411734   5.513   3.947  11.049 -0.0049  0.2031 -0.3603
  113OSM    O1111735   5.396   4.107  10.893  0.1517 -0.0643  0.1016
  113OSM    O1211736   5.342   3.874  10.894 -0.6958 -0.3414 -0.0378
  113OSM    C1S11737   5.503   4.104  10.792 -0.0847  0.3239  0.6639
  113OSM    H1S11738   5.551   4.005  10.774  0.3752  0.5664  0.5442
  113OSM    H1T11739   5.585   4.175  10.813  0.8832 -0.7707  0.6882
  113OSM     NF11740   5.519   4.099  10.554  0.3904 -0.1861  0.1249
  113OSM    HNF11741   5.581   4.169  10.521  2.0465 -0.2169  2.8600
  113OSM    C2S11742   5.432   4.144  10.660  0.1326 -0.3827 -0.0145
  113OSM    H2S11743   5.339   4.087  10.643 -0.0816  0.0961 -0.4678
  113OSM    C3S11744   5.403   4.300  10.657 -0.4363 -0.0278 -0.4629
  113OSM    H3S11745   5.502   4.350  10.649 -1.0799  1.0310 -2.6752
  113OSM     O311746   5.347   4.352  10.781  0.3745 -0.3172 -0.0377
  113OSM    HO311747   5.305   4.279  10.826 -3.6955  0.7780 -1.6135
  113OSM    C4S11748   5.313   4.331  10.542 -0.2623  0.2465 -0.5328
  113OSM    H4S11749   5.208   4.301  10.552 -0.0264 -0.0501  1.7224
  113OSM    C5S11750   5.351   4.406  10.437  0.3083  0.3236 -0.0479
  113OSM    H5S11751   5.451   4.450  10.425  0.6609 -0.1545  1.0058
  113OSM    C6S11752   5.262   4.437  10.329  0.0043  0.2491  0.5202
  113OSM    H6S11753   5.239   4.545  10.343 -0.1445  0.0328  2.2129
  113OSM    H6T11754   5.166   4.381  10.335  0.8042 -1.3771 -1.1567
  113OSM    C7S11755   5.333   4.397  10.196  0.3547  0.2439  0.7613
  113OSM    H7S11756   5.353   4.288  10.188  1.8063  0.6190 -1.3496
  113OSM    H7T11757   5.430   4.452  10.191  1.1190 -0.7209  3.3287
  113OSM    C8S11758   5.237   4.432  10.083 -0.8838  0.5808  0.2510
  113OSM    H8S11759   5.262   4.538  10.061  1.4499  0.0138 -0.0791
  113OSM    H8T11760   5.131   4.428  10.117 -1.8723 -1.8278 -2.6585
  113OSM    C9S11761   5.266   4.348   9.954  0.7021  0.2992 -0.2175
  113OSM    H9S11762   5.181   4.354   9.883  0.3517 -0.6432  0.1100
  113OSM    H9T11763   5.267   4.242   9.987  4.3274 -0.1770 -1.3946
  113OSM   C10S11764   5.397   4.381   9.892  0.0630  0.7767  0.4949
  113OSM   H10S11765   5.473   4.376   9.973  0.5478  0.3975  0.0177
  113OSM   H10T11766   5.394   4.490   9.867 -2.1069  0.0588 -3.1043
  113OSM   C11S11767   5.439   4.317   9.762 -0.0600  0.5479 -0.3038
  113OSM   H11S11768   5.347   4.281   9.711  1.7910 -2.5356 -1.7859
  113OSM   H11T11769   5.511   4.234   9.781 -0.0775  0.6026  0.0002
  113OSM   C12S11770   5.502   4.423   9.657 -0.1107  0.6358 -0.4123
  113OSM   H12S11771   5.593   4.451   9.713 -0.8092  0.9142  0.6104
  113OSM   H12T11772   5.422   4.500   9.646 -0.6077 -0.0744 -2.1103
  113OSM   C13S11773   5.527   4.359   9.519  0.0376  0.5392 -0.4776
  113OSM   H13S11774   5.424   4.336   9.486  0.3884 -0.5671 -0.8573
  113OSM   H13T11775   5.584   4.264   9.523 -0.9428 -0.2567 -3.1999
  113OSM   C14S11776   5.594   4.464   9.425 -0.3018  0.4785 -0.3480
  113OSM   H14S11777   5.704   4.462   9.439 -0.3343 -4.3021  0.9140
  113OSM   H14T11778   5.538   4.557   9.448 -1.4009 -0.4004  0.6041
  113OSM   C15S11779   5.562   4.445   9.276 -0.7954 -0.0243  0.0785
  113OSM   H15S11780   5.452   4.437   9.264 -0.8749 -0.6078  1.0896
  113OSM   H15T11781   5.610   4.354   9.232 -1.5101  1.0572 -3.1939
  113OSM   C16S11782   5.614   4.561   9.184  0.1571 -0.2351  0.6131
  113OSM   H16S11783   5.724   4.572   9.180  0.2615 -1.4592 -0.8121
  113OSM   H16T11784   5.569   4.658   9.215 -0.5814 -0.4338  0.1959
  113OSM   C17S11785   5.596   4.537   9.040 -0.2148  0.3907 -0.2705
  113OSM   H17S11786   5.491   4.502   9.027 -0.4800  0.4287  1.5294
  113OSM   H17T11787   5.665   4.459   9.001  0.9633  0.9053  0.7129
  113OSM   C18S11788   5.608   4.674   8.971  0.1733  0.6192 -0.1080
  113OSM   H18S11789   5.586   4.663   8.863 -1.7137 -0.7997  0.3540
  113OSM   H18T11790   5.712   4.706   8.991  1.3236 -2.2247 -1.0777
  113OSM   H18U11791   5.526   4.738   9.013 -1.5908 -0.7698 -1.2689
  113OSM    C1F11792   5.531   3.971  10.511 -0.2345 -0.3489  0.4248
  113OSM     OF11793   5.464   3.883  10.559 -0.3438  0.5313 -1.2088
  113OSM    C2F11794   5.646   3.948  10.409 -0.0207 -0.5053  0.1972
  113OSM    H2F11795   5.747   3.955  10.457  1.0837  0.3416 -2.0840
  113OSM    H2G11796   5.639   4.022  10.326 -0.8542 -1.9888 -1.0908
  113OSM    C3F11797   5.650   3.797  10.355 -0.1549  0.0562  0.2589
  113OSM    H3F11798   5.555   3.740  10.370 -1.5811  2.0875 -0.5623
  113OSM    H3G11799   5.740   3.747  10.395  0.2273  0.1799 -0.4312
  113OSM    C4F11800   5.693   3.802  10.204  0.4423 -0.6897 -0.1256
  113OSM    H4F11801   5.791   3.856  10.208  0.2108 -0.2120 -0.7652
  113OSM    H4G11802   5.622   3.856  10.138 -0.0944 -0.4349  0.6496
  113OSM    C5F11803   5.703   3.660  10.138 -0.2755  0.3161  0.0737
  113OSM    H5F11804   5.599   3.638  10.108  0.2935 -0.4549 -1.4849
  113OSM    H5G11805   5.730   3.588  10.217  0.2825  0.1904 -0.2237
  113OSM    C6F11806   5.798   3.653  10.014  0.8938 -0.2075  0.3032
  113OSM    H6F11807   5.810   3.549   9.979  0.7529 -0.1203 -0.0132
  113OSM    H6G11808   5.903   3.677  10.041  1.0165  0.6509 -0.8442
  113OSM    C7F11809   5.750   3.739   9.893  0.0422  0.7079 -0.5770
  113OSM    H7F11810   5.726   3.841   9.932 -1.0252  0.5237 -0.7389
  113OSM    H7G11811   5.655   3.709   9.843 -0.0280  2.7394 -1.7846
  113OSM    C8F11812   5.851   3.764   9.776 -0.5774  0.4646  0.0117
  113OSM    H8F11813   5.945   3.792   9.827 -0.3558 -0.1029 -0.0746
  113OSM    H8G11814   5.813   3.844   9.709 -1.2335 -1.9303 -2.6725
  113OSM    C9F11815   5.877   3.643   9.698  1.0465  0.3662  0.0127
  113OSM    H9F11816   5.923   3.559   9.753 -2.7186 -0.6192  2.0192
  113OSM   C10F11817   5.830   3.610   9.577  0.4468 -1.2531  0.5970
  113OSM   H10F11818   5.868   3.518   9.529 -1.1499 -1.9495  0.6035
  113OSM   C11F11819   5.742   3.691   9.485 -0.3716  0.0501  0.2258
  113OSM   H11F11820   5.724   3.790   9.532  1.7603  1.9902 -2.6890
  113OSM   H11G11821   5.642   3.642   9.475 -0.0694 -1.0066  1.9821
  113OSM   C12F11822   5.805   3.731   9.349  0.0646 -0.3722  0.2867
  113OSM   H12F11823   5.802   3.643   9.281  1.0404  0.3146 -0.6720
  113OSM   H12G11824   5.910   3.764   9.360  0.9390 -3.2739  1.7802
  113OSM   C13F11825   5.730   3.852   9.279  0.2709 -0.5602 -0.0120
  113OSM   H13F11826   5.747   3.938   9.346  2.0084 -0.5436 -0.4163
  113OSM   H13G11827   5.622   3.826   9.274 -0.2098  1.2023  0.5878
  113OSM   C14F11828   5.785   3.892   9.145  0.1858 -0.9775  0.3182
  113OSM   H14F11829   5.881   3.944   9.165  0.9420 -3.0021  2.3212
  113OSM   H14G11830   5.718   3.970   9.102  0.8317 -0.4564  0.2276
  113OSM   C15F11831   5.802   3.780   9.042 -0.3189 -0.3443 -0.0030
  113OSM   H15F11832   5.732   3.693   9.043 -0.3402 -0.3233  0.3502
  113OSM   H15G11833   5.896   3.731   9.076  0.1152  1.4412  1.5417
  113OSM   C16F11834   5.810   3.837   8.903  0.1840  1.2250  0.1441
  113OSM   H16F11835   5.708   3.875   8.882  0.3499  0.9214 -1.3213
  113OSM   H16G11836   5.829   3.751   8.834 -0.2871  0.8772  0.4433
  113OSM   C17F11837   5.919   3.940   8.889 -0.1530 -0.3957  0.3826
  113OSM   H17F11838   6.016   3.903   8.928 -0.2826  0.7152  1.8871
  113OSM   H17G11839   5.903   4.033   8.948  0.7804 -1.1495  1.9142
  113OSM   C18F11840   5.940   3.982   8.748  0.2695  0.1263  0.4431
  113OSM   H18F11841   5.961   3.889   8.691  1.3688  1.7422 -1.9603
  113OSM   H18G11842   6.022   4.055   8.730  0.5539 -0.3006 -0.0058
  113OSM   H18H11843   5.848   4.022   8.701 -0.4884 -1.9567  0.0776
  114OSM      N11844   1.094   6.668  11.145  0.0166  0.1646 -1.1187
  114OSM    C1511845   0.989   6.623  11.242  0.1984  0.3517  0.5406
  114OSM   H15A11846   0.913   6.699  11.257  1.2247  1.8076 -1.2134
  114OSM   H15B11847   1.042   6.586  11.329 -0.5587 -0.4393  0.6851
  114OSM   H15C11848   0.939   6.533  11.207 -0.1998  0.3729  1.0355
  114OSM    C1411849   1.116   6.812  11.181  0.7669 -0.2433 -0.1733
  114OSM   H14A11850   1.172   6.858  11.101  0.0092 -0.2990 -0.7594
  114OSM   H14B11851   1.148   6.831  11.282 -1.2182  0.0291  0.4441
  114OSM   H14C11852   1.016   6.853  11.185  0.1490 -1.7455  0.4972
  114OSM    C1311853   1.221   6.596  11.170  0.2897 -0.4799  0.0353
  114OSM   H13A11854   1.292   6.630  11.096  1.5358  1.3983  1.9497
  114OSM   H13B11855   1.213   6.490  11.186 -0.9668 -1.0177 -3.4140
  114OSM   H13C11856   1.263   6.640  11.260 -1.1078 -1.0617  0.9988
  114OSM    C1211857   1.043   6.667  11.000  0.0457 -0.3344 -0.8509
  114OSM   H12A11858   1.110   6.725  10.938 -2.7614 -0.2075 -4.1006
  114OSM   H12B11859   0.950   6.722  10.991  0.3838  0.3335 -0.3910
  114OSM    C1111860   1.032   6.531  10.931 -0.5368 -0.4234  0.5718
  114OSM   H11A11861   1.131   6.480  10.937  0.2517  1.0661  0.8745
  114OSM   H11B11862   1.015   6.551  10.823  1.2009  3.0570  0.8110
  114OSM      P11863   0.785   6.456  10.977  0.5236 -0.3008 -0.1909
  114OSM    O1311864   0.723   6.317  10.978  0.1103  0.4528  0.5819
  114OSM    O1411865   0.726   6.562  11.062  0.2599  0.2714 -0.1947
  114OSM    O1111866   0.783   6.506  10.823 -0.3547 -0.4407 -0.1909
  114OSM    O1211867   0.939   6.448  11.002  0.1323 -0.2138 -0.1284
  114OSM    C1S11868   0.733   6.641  10.800  0.6816 -0.2002  0.1080
  114OSM    H1S11869   0.786   6.708  10.872 -1.5652  0.0917  1.6087
  114OSM    H1T11870   0.627   6.650  10.833 -0.1519 -0.0338 -2.4309
  114OSM     NF11871   0.723   6.812  10.648 -0.3196 -1.0036  0.1787
  114OSM    HNF11872   0.633   6.845  10.620 -0.5770  2.0643  3.7925
  114OSM    C2S11873   0.741   6.674  10.655  0.2903 -0.4816  0.1077
  114OSM    H2S11874   0.841   6.645  10.617 -0.4817 -1.8304 -0.9513
  114OSM    C3S11875   0.638   6.590  10.570 -0.3433  0.1839  0.4246
  114OSM    H3S11876   0.535   6.617  10.604 -0.8821 -1.9998  0.6884
  114OSM     O311877   0.649   6.451  10.596 -0.5799 -0.3624 -0.1391
  114OSM    HO311878   0.719   6.449  10.662 -0.9051  1.2950  0.3045
  114OSM    C4S11879   0.653   6.616  10.423 -0.0568 -0.1903 -1.0439
  114OSM    H4S11880   0.582   6.692  10.387 -0.3371  0.7914  1.4077
  114OSM    C5S11881   0.739   6.556  10.330 -0.0071  0.3324 -0.0892
  114OSM    H5S11882   0.815   6.484  10.363 -1.5274 -0.9869  0.6544
  114OSM    C6S11883   0.755   6.577  10.184  0.2051  0.3552  0.2214
  114OSM    H6S11884   0.766   6.472  10.148 -1.7335 -0.1279  0.9330
  114OSM    H6T11885   0.856   6.613  10.153  1.3590 -0.0832  3.1256
  114OSM    C7S11886   0.632   6.630  10.106  0.1558 -0.0100  0.0523
  114OSM    H7S11887   0.643   6.736  10.139  1.0252  0.4131 -1.4915
  114OSM    H7T11888   0.535   6.590  10.144 -0.3427  1.0423 -0.0773
  114OSM    C8S11889   0.626   6.639   9.955 -0.0983 -0.2373  0.2792
  114OSM    H8S11890   0.539   6.707   9.944 -0.0709  0.0979  1.8480
  114OSM    H8T11891   0.600   6.539   9.914 -3.9953  0.5226  0.5073
  114OSM    C9S11892   0.753   6.706   9.908  0.2667  0.1764  0.4460
  114OSM    H9S11893   0.832   6.628   9.900 -1.8778 -2.0216 -0.7478
  114OSM    H9T11894   0.776   6.792   9.974 -0.5181  1.2305 -0.5960
  114OSM   C10S11895   0.734   6.776   9.768  0.0132 -0.5659  0.0162
  114OSM   H10S11896   0.816   6.851   9.758 -2.3407  2.1858  0.1164
  114OSM   H10T11897   0.645   6.840   9.783 -0.3828 -0.8918 -0.8527
  114OSM   C11S11898   0.724   6.686   9.653 -0.3055 -0.0143 -0.0937
  114OSM   H11S11899   0.638   6.619   9.674 -0.1521  0.2483  1.4841
  114OSM   H11T11900   0.819   6.628   9.661 -0.8030 -0.7887  0.3024
  114OSM   C12S11901   0.699   6.771   9.531 -0.2567  0.1986 -0.4290
  114OSM   H12S11902   0.795   6.781   9.476 -1.2785 -0.4494 -2.4229
  114OSM   H12T11903   0.659   6.871   9.556  3.7576  2.2374 -1.3713
  114OSM   C13S11904   0.598   6.710   9.433  0.5644  0.0241  0.0344
  114OSM   H13S11905   0.587   6.787   9.353 -1.5761 -1.3252 -1.0580
  114OSM   H13T11906   0.500   6.681   9.478  0.1405  0.3974 -0.6321
  114OSM   C14S11907   0.653   6.605   9.337 -0.2950 -0.0516 -0.2789
  114OSM   H14S11908   0.679   6.511   9.390  1.4318  0.9745  0.7759
  114OSM   H14T11909   0.746   6.648   9.295  0.7086 -1.4230  0.4571
  114OSM   C15S11910   0.568   6.576   9.207 -0.3370 -0.4165 -0.4435
  114OSM   H15S11911   0.550   6.672   9.156  0.0917  0.4397  0.9606
  114OSM   H15T11912   0.480   6.530   9.257  0.2203  0.5037  1.5026
  114OSM   C16S11913   0.633   6.471   9.108 -0.4220 -0.3047 -0.8544
  114OSM   H16S11914   0.616   6.366   9.141 -1.6293  0.5306  1.4398
  114OSM   H16T11915   0.742   6.490   9.101 -0.4831  0.9554  0.8827
  114OSM   C17S11916   0.583   6.494   8.967  0.3565  0.1413 -0.3711
  114OSM   H17S11917   0.610   6.594   8.926  0.3784 -0.3916 -1.7288
  114OSM   H17T11918   0.472   6.491   8.969  0.2330  2.2327  2.9252
  114OSM   C18S11919   0.635   6.390   8.874 -0.3126  0.4353  0.2979
  114OSM   H18S11920   0.584   6.291   8.880 -0.4704  0.5710  1.3717
  114OSM   H18T11921   0.743   6.366   8.883 -0.2170 -0.3591 -2.1270
  114OSM   H18U11922   0.629   6.419   8.767  2.2321  1.8530  0.4613
  114OSM    C1F11923   0.819   6.897  10.680  0.5929  0.1775 -0.0446
  114OSM     OF11924   0.919   6.854  10.729 -0.1949 -0.0759 -0.1004
  114OSM    C2F11925   0.798   7.047  10.653 -0.7333  0.5562  0.5070
  114OSM    H2F11926   0.748   7.096  10.739  2.7833  1.8348  2.0010
  114OSM    H2G11927   0.741   7.043  10.558  1.3333 -2.7573 -0.7514
  114OSM    C3F11928   0.925   7.126  10.628 -0.1110  0.7172 -0.2930
  114OSM    H3F11929   0.979   7.134  10.724  0.2947 -0.6579 -0.3859
  114OSM    H3G11930   0.895   7.230  10.604 -3.5823 -0.2957 -0.9676
  114OSM    C4F11931   1.018   7.060  10.517  0.3359  0.0617  0.3770
  114OSM    H4F11932   1.059   6.958  10.533 -0.1402 -0.3287 -0.7948
  114OSM    H4G11933   1.110   7.122  10.533 -1.4400  3.4805 -1.4350
  114OSM    C5F11934   0.950   7.066  10.382 -0.4012 -0.4559 -0.5365
  114OSM    H5F11935   0.909   7.168  10.366  1.0446  0.8111  2.9023
  114OSM    H5G11936   0.877   6.982  10.381  0.7231 -1.5097  1.3098
  114OSM    C6F11937   1.057   7.039  10.274  0.7197  0.8418  0.2482
  114OSM    H6F11938   0.993   6.988  10.198 -0.5388  0.4949  1.4970
  114OSM    H6G11939   1.138   6.981  10.324 -0.1031  0.8129  1.6017
  114OSM    C7F11940   1.117   7.162  10.206  0.6682 -0.0360 -0.0606
  114OSM    H7F11941   1.143   7.229  10.291  0.1480 -0.3396  0.3423
  114OSM    H7G11942   1.044   7.203  10.133 -0.1116  0.0912  0.7656
  114OSM    C8F11943   1.243   7.135  10.125  0.2307  0.8457  0.5018
  114OSM    H8F11944   1.218   7.066  10.042  0.7974  0.0432  0.9730
  114OSM    H8G11945   1.317   7.075  10.183 -0.4965 -0.0887  0.4882
  114OSM    C9F11946   1.312   7.258  10.081 -0.9222 -0.0621  0.1791
  114OSM    H9F11947   1.367   7.304  10.164  1.3617 -0.2042 -1.1730
  114OSM   C10F11948   1.301   7.326   9.967  0.0463  0.7435 -0.4857
  114OSM   H10F11949   1.364   7.416   9.969  0.1950  0.6494  2.0773
  114OSM   C11F11950   1.209   7.293   9.848  0.1428 -0.8359 -0.0158
  114OSM   H11F11951   1.143   7.378   9.821 -0.1361 -1.2915 -0.7645
  114OSM   H11G11952   1.137   7.212   9.872  0.2558 -0.6367  1.0707
  114OSM   C12F11953   1.301   7.273   9.732  0.5864 -0.1487  0.3902
  114OSM   H12F11954   1.357   7.180   9.754  0.7862  0.2840  1.8439
  114OSM   H12G11955   1.372   7.359   9.722  0.5983 -0.1375  0.5724
  114OSM   C13F11956   1.238   7.249   9.597 -0.1455  0.2364  1.0019
  114OSM   H13F11957   1.317   7.263   9.519  1.0348 -1.2666  1.8764
  114OSM   H13G11958   1.155   7.322   9.591 -0.1438  0.2777  1.4744
  114OSM   C14F11959   1.184   7.103   9.591 -0.5230 -0.0115 -0.1956
  114OSM   H14F11960   1.144   7.081   9.693  1.5019 -1.8608  0.2636
  114OSM   H14G11961   1.273   7.037   9.583  1.2995  2.3488 -0.7108
  114OSM   C15F11962   1.084   7.064   9.488 -1.1237  0.6149 -0.2992
  114OSM   H15F11963   1.026   7.155   9.459 -1.6676 -0.4759 -2.8711
  114OSM   H15G11964   1.014   6.992   9.536 -0.5957 -0.4147 -1.0369
  114OSM   C16F11965   1.134   7.003   9.357  0.2210  0.1104  0.1802
  114OSM   H16F11966   1.044   6.970   9.301  1.8083 -1.1102 -1.8324
  114OSM   H16G11967   1.199   6.914   9.371  1.0248  0.7506  0.6220
  114OSM   C17F11968   1.226   7.089   9.281 -0.3607 -0.3644  0.1769
  114OSM   H17F11969   1.324   7.107   9.330 -0.0475  0.7389 -0.8216
  114OSM   H17G11970   1.181   7.191   9.284 -0.0561 -0.2071  3.8121
  114OSM   C18F11971   1.246   7.054   9.135 -1.0486 -0.1581  0.6966
  114OSM   H18F11972   1.313   6.966   9.134  1.0034  1.2970  2.1617
  114OSM   H18G11973   1.293   7.142   9.085 -2.4866 -0.3960 -1.1884
  114OSM   H18H11974   1.153   7.031   9.079  0.6746 -3.6162 -1.1212
  115OSM      N11975   4.538   5.899  10.846  0.0352  0.3047  0.5924
  115OSM    C1511976   4.636   6.015  10.882  0.7929 -0.3455 -0.3467
  115OSM   H15A11977   4.665   6.055  10.786  1.0553  0.6821  0.1476
  115OSM   H15B11978   4.715   5.987  10.949  0.0325 -2.5720 -0.2874
  115OSM   H15C11979   4.579   6.094  10.928 -0.8313 -1.4040 -0.4556
  115OSM    C1411980   4.471   5.868  10.977 -0.0508  0.2881 -0.1707
  115OSM   H14A11981   4.412   5.952  11.011 -3.1533 -1.5957 -0.4192
  115OSM   H14B11982   4.547   5.838  11.048 -1.0794  0.5607  1.0861
  115OSM   H14C11983   4.409   5.781  10.960  1.0701 -0.2323 -1.8805
  115OSM    C1311984   4.439   5.942  10.745  0.0561 -0.2969 -0.2107
  115OSM   H13A11985   4.469   6.025  10.682 -0.9977  0.6099  0.4238
  115OSM   H13B11986   4.350   5.975  10.796  0.5333 -1.3748  1.4053
  115OSM   H13C11987   4.404   5.865  10.678  1.3094  0.8370 -2.2664
  115OSM    C1211988   4.617   5.783  10.789  0.4010  0.4638 -0.4820
  115OSM   H12A11989   4.679   5.738  10.865 -1.4213 -0.6691  0.3945
  115OSM   H12B11990   4.671   5.818  10.702 -0.1346 -0.8656 -1.3754
  115OSM    C1111991   4.531   5.665  10.749 -0.6020  0.5800 -0.3074
  115OSM   H11A11992   4.586   5.585  10.694 -2.1299 -1.1638  0.5786
  115OSM   H11B11993   4.451   5.692  10.677 -0.7040 -1.8633 -1.2277
  115OSM      P11994   4.541   5.521  10.969 -0.5563 -0.5875 -0.1662
  115OSM    O1311995   4.659   5.593  11.016 -0.6574 -0.0474 -0.4600
  115OSM    O1411996   4.453   5.467  11.072 -0.0141 -0.1792 -0.1632
  115OSM    O1111997   4.585   5.402  10.877  0.1699  0.0051 -0.0908
  115OSM    O1211998   4.471   5.612  10.864  0.3653  0.1009  0.3928
  115OSM    C1S11999   4.490   5.338  10.788 -0.7950 -0.6588  0.2703
  115OSM    H1S12000   4.415   5.409  10.746 -2.1555 -2.4058 -0.3653
  115OSM    H1T12001   4.435   5.256  10.837 -1.8473 -0.4724 -0.5634
  115OSM     NF12002   4.470   5.241  10.553  0.1841 -0.7597 -0.3851
  115OSM    HNF12003   4.450   5.144  10.548  1.2132 -1.1476  1.7374
  115OSM    C2S12004   4.567   5.274  10.662 -0.3375 -0.4853 -0.3983
  115OSM    H2S12005   4.634   5.360  10.642  0.7485 -0.7012  2.0357
  115OSM    C3S12006   4.644   5.155  10.717  0.0041  0.5926 -1.3248
  115OSM    H3S12007   4.561   5.094  10.756 -0.5861  2.5923  0.7911
  115OSM     O312008   4.735   5.172  10.827 -0.1152  0.2114 -0.1145
  115OSM    HO312009   4.692   5.243  10.876 -0.4659 -0.4674  0.5789
  115OSM    C4S12010   4.713   5.087  10.608  0.1068  0.5851 -0.6485
  115OSM    H4S12011   4.680   4.987  10.577  2.1413 -0.1956 -0.4220
  115OSM    C5S12012   4.832   5.123  10.561  0.9597  0.3648 -0.6573
  115OSM    H5S12013   4.886   5.211  10.600  0.5511  0.7570 -0.9662
  115OSM    C6S12014   4.914   5.043  10.460 -0.0434 -0.1217  0.2164
  115OSM    H6S12015   4.992   4.986  10.516  2.3758  0.7812 -2.0300
  115OSM    H6T12016   4.970   5.116  10.399  1.9435 -1.1921  0.6591
  115OSM    C7S12017   4.838   4.937  10.366 -0.0262 -1.0151  0.1089
  115OSM    H7S12018   4.765   4.993  10.304  0.6508 -0.3025 -0.0528
  115OSM    H7T12019   4.806   4.858  10.438  1.9854 -0.5186  1.6328
  115OSM    C8S12020   4.937   4.869  10.270  0.2889 -0.1077  0.2256
  115OSM    H8S12021   5.012   4.809  10.325  0.9891 -0.3463 -0.9390
  115OSM    H8T12022   4.994   4.943  10.210  0.8283 -0.5725  0.1573
  115OSM    C9S12023   4.874   4.785  10.155  0.4123 -0.5690  0.1208
  115OSM    H9S12024   4.808   4.853  10.097 -0.6741 -1.2816  0.4999
  115OSM    H9T12025   4.814   4.700  10.195 -0.6404  0.2299  0.2969
  115OSM   C10S12026   4.983   4.740  10.057  0.4095 -0.2034 -0.2413
  115OSM   H10S12027   5.046   4.667  10.111  3.0767  2.7372  0.9708
  115OSM   H10T12028   5.054   4.823  10.037 -0.4606  1.0267  1.4255
  115OSM   C11S12029   4.936   4.693   9.918  0.1697 -0.9397  0.4980
  115OSM   H11S12030   4.895   4.781   9.864  0.2186 -1.1042  0.1898
  115OSM   H11T12031   4.858   4.614   9.926 -0.4104 -0.4547 -0.1909
  115OSM   C12S12032   5.054   4.646   9.835 -0.5175  0.4768 -0.0527
  115OSM   H12S12033   5.099   4.562   9.892 -0.9357  0.5498  0.3966
  115OSM   H12T12034   5.125   4.728   9.815 -1.0787  0.9517 -0.1356
  115OSM   C13S12035   4.996   4.586   9.703  0.9115  1.2023 -1.0468
  115OSM   H13S12036   4.931   4.666   9.661  1.0639  2.4093  0.9169
  115OSM   H13T12037   4.929   4.503   9.734  2.7711 -0.1684 -0.5178
  115OSM   C14S12038   5.093   4.537   9.600  0.4744  0.8043 -0.4034
  115OSM   H14S12039   5.137   4.440   9.633 -0.4494  0.0041 -1.4261
  115OSM   H14T12040   5.185   4.599   9.605  0.6305  0.6919 -1.6300
  115OSM   C15S12041   5.049   4.527   9.457  0.6718  0.9344 -0.1902
  115OSM   H15S12042   5.000   4.623   9.431 -1.5585 -0.4085 -1.1758
  115OSM   H15T12043   4.969   4.451   9.444  0.1890  1.6439 -1.5792
  115OSM   C16S12044   5.156   4.485   9.356 -0.0830 -0.6738 -0.2281
  115OSM   H16S12045   5.198   4.384   9.377  0.8365 -0.1479  0.5492
  115OSM   H16T12046   5.235   4.563   9.351 -2.0871  1.3900 -2.9625
  115OSM   C17S12047   5.111   4.496   9.209  1.1026  0.5897 -0.0268
  115OSM   H17S12048   5.077   4.599   9.186 -0.6147 -0.4322 -2.6133
  115OSM   H17T12049   5.011   4.447   9.204  0.3241  2.2055 -1.9628
  115OSM   C18S12050   5.201   4.424   9.114 -0.3819 -0.4535 -0.1114
  115OSM   H18S12051   5.154   4.418   9.013  0.0406  0.9262 -0.4184
  115OSM   H18T12052   5.210   4.316   9.136 -0.2992 -0.8409 -1.8982
  115OSM   H18U12053   5.302   4.469   9.101 -0.4485  0.8690  3.0883
  115OSM    C1F12054   4.416   5.334  10.475 -0.2074  0.8761  0.8945
  115OSM     OF12055   4.441   5.453  10.488 -0.3780  0.2217 -0.2821
  115OSM    C2F12056   4.327   5.281  10.365 -0.2529 -0.1542  0.0565
  115OSM    H2F12057   4.246   5.222  10.413 -0.6592 -0.0720 -0.5177
  115OSM    H2G12058   4.389   5.226  10.291 -0.2423 -0.0131 -0.0409
  115OSM    C3F12059   4.264   5.389  10.280  0.0911  0.2210  0.0118
  115OSM    H3F12060   4.350   5.453  10.251 -0.2847  0.3038 -0.9672
  115OSM    H3G12061   4.185   5.441  10.338  0.1400 -0.6295  0.8824
  115OSM    C4F12062   4.217   5.342  10.134  0.2395  0.4659 -0.5483
  115OSM    H4F12063   4.122   5.284  10.132  0.4522  0.0880 -2.6928
  115OSM    H4G12064   4.291   5.271  10.090 -0.6676  0.4894 -2.2020
  115OSM    C5F12065   4.235   5.446  10.022 -0.6551 -0.1385 -0.0460
  115OSM    H5F12066   4.338   5.487  10.030 -1.1494  1.7805 -2.4246
  115OSM    H5G12067   4.172   5.536  10.038  0.5864  0.5957  0.9128
  115OSM    C6F12068   4.201   5.401   9.877  0.0720 -0.1555 -0.2014
  115OSM    H6F12069   4.218   5.480   9.801 -0.4868 -1.4551 -1.7436
  115OSM    H6G12070   4.091   5.388   9.877 -0.1368  0.0162  4.3204
  115OSM    C7F12071   4.293   5.283   9.827  0.2449 -0.3835  0.1339
  115OSM    H7F12072   4.279   5.189   9.885 -1.4892 -1.6498 -2.1829
  115OSM    H7G12073   4.395   5.320   9.854 -0.3880  0.5607  1.3172
  115OSM    C8F12074   4.293   5.260   9.677  0.0415  0.0285 -0.5622
  115OSM    H8F12075   4.382   5.198   9.654 -1.0213 -1.6344 -0.3921
  115OSM    H8G12076   4.308   5.361   9.632  0.1525  1.0055  1.5503
  115OSM    C9F12077   4.163   5.201   9.621 -0.6847  0.2090 -0.8377
  115OSM    H9F12078   4.076   5.172   9.680 -0.0428  2.1618  1.1863
  115OSM   C10F12079   4.163   5.172   9.492  0.0286 -1.0982  0.0467
  115OSM   H10F12080   4.075   5.121   9.451 -1.7660  0.5980  1.6078
  115OSM   C11F12081   4.274   5.206   9.392 -0.3404  0.0085 -0.2706
  115OSM   H11F12082   4.346   5.271   9.446 -0.0423 -0.5544  0.0167
  115OSM   H11G12083   4.231   5.281   9.322  0.6255  0.7242 -0.1209
  115OSM   C12F12084   4.343   5.091   9.312  0.1439 -0.2231 -1.3635
  115OSM   H12F12085   4.393   5.019   9.380  0.4383  0.7733 -0.5110
  115OSM   H12G12086   4.427   5.134   9.253 -0.7865  0.1154 -2.4818
  115OSM   C13F12087   4.247   5.022   9.215  0.6546  0.2465  0.6034
  115OSM   H13F12088   4.195   5.103   9.160  0.5233  0.5401  1.1528
  115OSM   H13G12089   4.171   4.974   9.279 -0.4039 -1.4008 -1.7689
  115OSM   C14F12090   4.310   4.921   9.123 -0.4969  0.2964 -0.5348
  115OSM   H14F12091   4.227   4.855   9.088 -2.7459  2.5169  0.2933
  115OSM   H14G12092   4.389   4.861   9.172 -0.0838  0.1213 -1.3985
  115OSM   C15F12093   4.377   4.991   9.002 -0.1708 -0.4443  0.4107
  115OSM   H15F12094   4.448   5.064   9.045 -2.0954  0.3498  2.4375
  115OSM   H15G12095   4.306   5.063   8.955  0.9689 -0.4456 -1.4218
  115OSM   C16F12096   4.439   4.896   8.889  0.1842 -0.3817 -1.4417
  115OSM   H16F12097   4.488   4.811   8.943 -2.6407 -0.7551  0.7993
  115OSM   H16G12098   4.507   4.948   8.819  0.6400 -1.9248 -2.1995
  115OSM   C17F12099   4.328   4.822   8.809 -0.5544 -0.6046 -0.3572
  115OSM   H17F12100   4.258   4.902   8.775 -0.3367 -0.2818 -0.0485
  115OSM   H17G12101   4.278   4.745   8.872  1.1179 -1.2620  0.2168
  115OSM   C18F12102   4.388   4.769   8.680  0.5579 -0.7469  0.5584
  115OSM   H18F12103   4.486   4.721   8.703  0.0242 -1.0428  2.3743
  115OSM   H18G12104   4.393   4.852   8.606 -2.1181 -2.3413 -1.6339
  115OSM   H18H12105   4.314   4.697   8.638 -0.2104 -1.3766  2.8278
  116OSM      N12106   1.266   1.710  11.154 -0.1079 -0.3880 -0.2272
  116OSM    C1512107   1.330   1.839  11.183  0.2872  0.2057  0.2421
  116OSM   H15A12108   1.308   1.877  11.282 -1.1127 -1.4384  0.5996
  116OSM   H15B12109   1.299   1.912  11.109  0.4403  1.0128  0.9586
  116OSM   H15C12110   1.435   1.818  11.166  0.3810  1.3049 -0.6379
  116OSM    C1412111   1.313   1.612  11.258  0.9019  0.2473  0.2472
  116OSM   H14A12112   1.293   1.509  11.233  2.2814  0.2839 -1.1527
  116OSM   H14B12113   1.272   1.638  11.355  2.3208 -2.0032  1.5355
  116OSM   H14C12114   1.420   1.614  11.272  0.9174 -0.3845  0.2413
  116OSM    C1312115   1.118   1.721  11.169 -0.4441 -0.6027  0.8755
  116OSM   H13A12116   1.076   1.785  11.092 -1.3789 -0.5158  1.4493
  116OSM   H13B12117   1.094   1.770  11.262  1.3331  1.8316  0.1602
  116OSM   H13C12118   1.068   1.626  11.164 -1.5151 -0.1150  1.7359
  116OSM    C1212119   1.310   1.669  11.012  0.4319 -0.3175  0.0796
  116OSM   H12A12120   1.280   1.570  10.985  0.8929  0.3227 -3.1158
  116OSM   H12B12121   1.417   1.655  11.007  0.6749  0.8907  1.1304
  116OSM    C1112122   1.259   1.750  10.889  0.1332 -0.7472 -0.1271
  116OSM   H11A12123   1.149   1.766  10.877  0.4711  2.2294  0.0500
  116OSM   H11B12124   1.271   1.692  10.795 -1.4570 -2.1469  0.4808
  116OSM      P12125   1.473   1.887  10.827  0.0829 -0.3263  0.4564
  116OSM    O1312126   1.503   2.029  10.784  0.7909 -0.2612 -0.0465
  116OSM    O1412127   1.560   1.829  10.930  0.0326  0.7249 -0.1496
  116OSM    O1112128   1.481   1.791  10.700 -0.1897  0.4593 -0.0869
  116OSM    O1212129   1.328   1.873  10.878  0.4273 -0.1087  0.0775
  116OSM    C1S12130   1.423   1.838  10.580  0.3564 -0.4923 -0.0856
  116OSM    H1S12131   1.425   1.947  10.558  1.5707 -0.4388  0.2178
  116OSM    H1T12132   1.317   1.807  10.580  0.6700 -1.6512  1.4687
  116OSM     NF12133   1.469   1.845  10.341 -0.2835  0.6678  0.0965
  116OSM    HNF12134   1.401   1.810  10.277 -1.2369 -0.0134  1.4193
  116OSM    C2S12135   1.489   1.768  10.464  0.6386 -0.4322  0.5993
  116OSM    H2S12136   1.597   1.773  10.490  0.7637 -0.5112  0.1116
  116OSM    C3S12137   1.452   1.617  10.464 -0.4158  0.5455  0.0636
  116OSM    H3S12138   1.346   1.602  10.433 -0.8046 -1.2737  2.0978
  116OSM     O312139   1.473   1.552  10.590  0.0768 -0.2012 -0.0109
  116OSM    HO312140   1.494   1.624  10.649 -0.6403  1.4593 -1.6926
  116OSM    C4S12141   1.542   1.559  10.355  1.0728  0.0875 -0.0609
  116OSM    H4S12142   1.649   1.569  10.379  0.5485  4.0510  1.3570
  116OSM    C5S12143   1.493   1.511  10.234  0.3835  0.0433  0.0692
  116OSM    H5S12144   1.383   1.511  10.221  0.5754 -0.4594 -1.8270
  116OSM    C6S12145   1.569   1.452  10.116 -0.0074 -0.0517  0.0429
  116OSM    H6S12146   1.680   1.452  10.121  0.1598 -1.5841 -1.9204
  116OSM    H6T12147   1.549   1.508  10.022  0.3530 -1.4591 -0.9133
  116OSM    C7S12148   1.529   1.309  10.073  0.2488  0.1512  0.2974
  116OSM    H7S12149   1.419   1.300  10.060  0.3192 -0.4333  0.0534
  116OSM    H7T12150   1.569   1.255  10.161 -1.0574 -0.8218  0.3281
  116OSM    C8S12151   1.611   1.270   9.951 -0.2551  0.7825 -0.3820
  116OSM    H8S12152   1.645   1.165   9.957  1.5426  1.4134  1.1249
  116OSM    H8T12153   1.701   1.336   9.952 -1.1348  2.0502  1.4870
  116OSM    C9S12154   1.536   1.283   9.826 -0.3698  0.5804  0.3049
  116OSM    H9S12155   1.492   1.385   9.825 -2.9369 -0.4332  0.6170
  116OSM    H9T12156   1.447   1.216   9.830  0.8274 -1.0890  0.2337
  116OSM   C10S12157   1.612   1.247   9.700  0.0176  0.3951 -0.6860
  116OSM   H10S12158   1.649   1.143   9.714  2.0936  1.1126 -0.5092
  116OSM   H10T12159   1.705   1.309   9.693 -0.7481  1.7201  0.3354
  116OSM   C11S12160   1.524   1.267   9.582 -0.8749 -0.8618  0.7259
  116OSM   H11S12161   1.507   1.376   9.569  1.1790 -0.6840 -0.9436
  116OSM   H11T12162   1.430   1.214   9.610 -0.8272 -1.1569  0.3284
  116OSM   C12S12163   1.584   1.217   9.452 -0.8021  1.4459 -0.8191
  116OSM   H12S12164   1.574   1.106   9.451  0.0729  1.3601 -0.4741
  116OSM   H12T12165   1.692   1.242   9.456 -0.1951 -1.0539  2.1279
  116OSM   C13S12166   1.522   1.269   9.325 -0.1538 -0.2308 -0.4850
  116OSM   H13S12167   1.534   1.380   9.329  0.5773 -0.3183 -0.0437
  116OSM   H13T12168   1.413   1.246   9.329  0.4397 -3.1124  1.6039
  116OSM   C14S12169   1.565   1.209   9.192 -0.1070  0.5682 -0.5513
  116OSM   H14S12170   1.546   1.099   9.196 -0.2160  0.6110  0.4456
  116OSM   H14T12171   1.675   1.227   9.188  0.6986 -3.3104 -0.2953
  116OSM   C15S12172   1.515   1.290   9.067  0.0400  0.0780 -0.6479
  116OSM   H15S12173   1.559   1.392   9.069 -2.5372  1.3143 -1.3304
  116OSM   H15T12174   1.410   1.326   9.081  0.9559  2.5966  0.2466
  116OSM   C16S12175   1.527   1.215   8.937 -0.0128 -0.2845 -0.6295
  116OSM   H16S12176   1.439   1.147   8.931  0.6512 -1.3051  0.6644
  116OSM   H16T12177   1.608   1.139   8.938 -0.7909 -1.1463 -1.2978
  116OSM   C17S12178   1.523   1.299   8.815  0.2973 -1.0709 -0.1352
  116OSM   H17S12179   1.595   1.383   8.812  0.8482 -1.5501 -2.1438
  116OSM   H17T12180   1.422   1.343   8.807  1.9192  2.9067 -1.3486
  116OSM   C18S12181   1.554   1.220   8.688 -0.2386 -0.1571  0.2669
  116OSM   H18S12182   1.489   1.130   8.681 -1.4759  0.4902  2.5527
  116OSM   H18T12183   1.658   1.184   8.701  0.0721  0.5656 -0.1309
  116OSM   H18U12184   1.543   1.276   8.592  0.2172 -0.1645  0.2096
  116OSM    C1F12185   1.532   1.961  10.316  0.6888 -0.4805 -0.8488
  116OSM     OF12186   1.603   2.010  10.403 -0.7315  0.8074  0.0781
  116OSM    C2F12187   1.505   2.026  10.178  0.5042  0.1373 -0.1315
  116OSM    H2F12188   1.528   2.134  10.177  0.3379  0.1808  0.5329
  116OSM    H2G12189   1.397   2.017  10.152 -0.1679  0.7844  2.2233
  116OSM    C3F12190   1.575   1.954  10.064 -0.1036 -0.6362  0.3893
  116OSM    H3F12191   1.557   1.844  10.063  0.1436 -0.6886 -1.5448
  116OSM    H3G12192   1.682   1.984  10.072 -1.0310  2.7174  1.7703
  116OSM    C4F12193   1.540   2.019   9.927  0.6272  0.2337 -0.0902
  116OSM    H4F12194   1.564   2.127   9.940 -2.3574  0.7981  1.8183
  116OSM    H4G12195   1.429   2.021   9.915  0.5817  0.8899  0.3842
  116OSM    C5F12196   1.608   1.945   9.812  0.1087  0.2501  0.1804
  116OSM    H5F12197   1.592   1.836   9.828 -2.1117  0.4542 -0.2591
  116OSM    H5G12198   1.718   1.959   9.816  0.2560 -1.1265  1.8218
  116OSM    C6F12199   1.550   1.979   9.675 -0.5105  0.5245  0.4508
  116OSM    H6F12200   1.561   2.087   9.656 -0.0009  0.3784 -0.1134
  116OSM    H6G12201   1.447   1.945   9.651 -0.0034 -1.3263  0.7145
  116OSM    C7F12202   1.644   1.922   9.565  0.4051 -0.8161  0.2121
  116OSM    H7F12203   1.661   1.814   9.585  0.2935 -0.3492  3.4228
  116OSM    H7G12204   1.746   1.965   9.557 -0.4252  1.2599  0.2842
  116OSM    C8F12205   1.571   1.942   9.430 -0.6236  0.6773 -0.3084
  116OSM    H8F12206   1.461   1.928   9.430 -0.6414  0.5408  1.5129
  116OSM    H8G12207   1.616   1.861   9.370 -0.2872 -0.4063  1.3231
  116OSM    C9F12208   1.600   2.074   9.356 -0.7074  0.4299 -0.0307
  116OSM    H9F12209   1.662   2.152   9.404  1.0158 -0.6875 -0.3448
  116OSM   C10F12210   1.536   2.116   9.244  0.3408 -0.4425 -0.4605
  116OSM   H10F12211   1.563   2.211   9.194  1.6442 -0.9177 -0.7045
  116OSM   C11F12212   1.432   2.039   9.170 -0.1222  0.0698  0.1896
  116OSM   H11F12213   1.335   2.092   9.173  1.0732  2.6530 -2.0110
  116OSM   H11G12214   1.419   1.935   9.209 -0.6279  0.1106  0.1297
  116OSM   C12F12215   1.475   2.008   9.024 -0.0811 -1.3081  0.4890
  116OSM   H12F12216   1.561   1.937   9.018 -0.3879 -1.6038 -0.6159
  116OSM   H12G12217   1.491   2.103   8.968 -0.9624 -0.6494  1.3249
  116OSM   C13F12218   1.362   1.927   8.948 -0.8770 -0.3102  0.3011
  116OSM   H13F12219   1.259   1.969   8.947 -0.7771 -0.0544 -1.0024
  116OSM   H13G12220   1.356   1.821   8.983  4.1870 -0.4666  1.4014
  116OSM   C14F12221   1.395   1.927   8.803 -0.4294 -0.0726  0.5299
  116OSM   H14F12222   1.502   1.897   8.797 -0.5206 -0.4483  0.7225
  116OSM   H14G12223   1.410   2.028   8.758 -0.5977  1.1679  3.1036
  116OSM   C15F12224   1.310   1.826   8.722 -0.5655  0.3121  0.0704
  116OSM   H15F12225   1.203   1.848   8.742 -0.4558  2.3883 -1.3710
  116OSM   H15G12226   1.339   1.723   8.754  0.8751  0.2248 -1.3791
  116OSM   C16F12227   1.329   1.841   8.573 -0.1876 -1.4018 -0.3620
  116OSM   H16F12228   1.435   1.860   8.545 -1.0259  1.5072 -1.9814
  116OSM   H16G12229   1.288   1.940   8.544  2.3476  0.2938  1.5459
  116OSM   C17F12230   1.279   1.731   8.479 -0.2673 -0.0107 -1.0458
  116OSM   H17F12231   1.183   1.688   8.514 -0.7971  2.3146  0.5156
  116OSM   H17G12232   1.357   1.651   8.477  0.4499  0.6350  0.0971
  116OSM   C18F12233   1.269   1.775   8.328  0.2164  0.0918  0.5856
  116OSM   H18F12234   1.359   1.829   8.292 -0.4321  0.2996 -0.7954
  116OSM   H18G12235   1.182   1.842   8.314  0.4395  0.1768 -0.4418
  116OSM   H18H12236   1.272   1.692   8.254  1.0529  1.3534 -0.8421
  117OSM      N12237   6.422   3.220  11.044 -0.1495 -0.5515 -0.4205
  117OSM    C1512238   6.483   3.083  11.067 -0.3469 -0.6857 -0.4266
  117OSM   H15A12239   6.456   3.009  10.992  3.0381 -3.4525  0.7884
  117OSM   H15B12240   6.453   3.041  11.162  1.3760 -0.8217  0.0861
  117OSM   H15C12241   6.589   3.080  11.084 -0.4296  1.3159  0.6973
  117OSM    C1412242   6.453   3.306  11.156 -0.9652  0.2417  0.1463
  117OSM   H14A12243   6.422   3.263  11.250 -0.9248 -3.0036 -1.2147
  117OSM   H14B12244   6.403   3.401  11.144  0.0315  0.9077  1.0484
  117OSM   H14C12245   6.560   3.325  11.159 -1.1895  1.4984  0.9410
  117OSM    C1312246   6.493   3.274  10.924 -0.3595 -0.5005  0.2079
  117OSM   H13A12247   6.598   3.281  10.946 -0.5079 -1.6491  1.4115
  117OSM   H13B12248   6.466   3.374  10.893 -0.1737 -0.9247 -1.4451
  117OSM   H13C12249   6.480   3.218  10.832  0.9737 -1.1583  0.3968
  117OSM    C1212250   6.275   3.212  11.015 -0.7923  0.2863  0.2830
  117OSM   H12A12251   6.218   3.166  11.095 -1.4514 -0.3932 -0.5558
  117OSM   H12B12252   6.251   3.136  10.942  1.7752 -0.1629 -0.1848
  117OSM    C1112253   6.209   3.342  10.971 -0.0435 -0.3015 -0.4413
  117OSM   H11A12254   6.103   3.314  10.960  0.4996 -2.5096 -0.5210
  117OSM   H11B12255   6.259   3.374  10.877 -1.3539 -1.1185 -1.4490
  117OSM      P12256   6.119   3.462  11.193  0.2162 -0.4243  0.3589
  117OSM    O1312257   6.027   3.348  11.204 -0.3399  0.1092  0.3974
  117OSM    O1412258   6.177   3.495  11.323 -0.5753 -0.3435  0.3317
  117OSM    O1112259   6.026   3.592  11.160  0.0004  1.2835 -0.3637
  117OSM    O1212260   6.219   3.449  11.071  0.0226 -0.3434 -0.2011
  117OSM    C1S12261   6.049   3.657  11.039 -0.2324 -0.1498  0.7122
  117OSM    H1S12262   6.156   3.676  11.018 -0.3336  0.4059  0.6810
  117OSM    H1T12263   6.009   3.760  11.038  4.0852  1.7253 -0.6400
  117OSM     NF12264   6.031   3.681  10.798 -0.9619 -0.0439  0.5951
  117OSM    HNF12265   5.970   3.752  10.763 -1.8167 -0.6141  0.9036
  117OSM    C2S12266   5.990   3.597  10.907 -0.1078 -0.2084  0.1099
  117OSM    H2S12267   6.031   3.495  10.891  0.3118  0.0539 -0.5468
  117OSM    C3S12268   5.838   3.595  10.918 -0.6578  0.3594 -0.2915
  117OSM    H3S12269   5.800   3.697  10.939 -0.8181 -0.3822  3.7690
  117OSM     O312270   5.788   3.502  11.015 -0.0738 -0.3999  0.1721
  117OSM    HO312271   5.863   3.467  11.065 -1.6051 -0.6969  2.4302
  117OSM    C4S12272   5.775   3.552  10.793  0.2381 -0.4431 -0.2780
  117OSM    H4S12273   5.735   3.631  10.729 -0.0485 -0.6220 -0.3212
  117OSM    C5S12274   5.753   3.427  10.747 -0.6151 -0.0966 -0.0485
  117OSM    H5S12275   5.772   3.335  10.806 -3.0952 -0.9772 -0.4929
  117OSM    C6S12276   5.692   3.407  10.613 -0.4532 -0.3395  0.1500
  117OSM    H6S12277   5.680   3.507  10.566 -1.8978  1.1702  3.4330
  117OSM    H6T12278   5.589   3.366  10.619 -0.2781 -0.9438 -0.6886
  117OSM    C7S12279   5.788   3.334  10.518 -0.2936 -0.6543 -0.0755
  117OSM    H7S12280   5.723   3.291  10.438 -1.1971 -0.8353  0.7445
  117OSM    H7T12281   5.825   3.242  10.567 -2.2530 -2.6556 -2.1010
  117OSM    C8S12282   5.904   3.416  10.466 -0.0355  0.1945 -0.2962
  117OSM    H8S12283   5.983   3.435  10.542 -0.8685 -3.7574  1.8312
  117OSM    H8T12284   5.864   3.513  10.429 -1.7342 -0.3118  0.1216
  117OSM    C9S12285   5.966   3.348  10.340 -0.1251 -0.4670  0.4624
  117OSM    H9S12286   6.006   3.254  10.385  3.0854 -0.8469 -2.7886
  117OSM    H9T12287   6.048   3.418  10.314 -0.9553  0.5635  0.5448
  117OSM   C10S12288   5.880   3.317  10.222  0.0522  0.4363 -0.1750
  117OSM   H10S12289   5.828   3.412  10.198  0.2299  0.2196 -1.5159
  117OSM   H10T12290   5.803   3.238  10.232 -1.3660  1.9825  1.8863
  117OSM   C11S12291   5.961   3.287  10.091  0.8346 -0.2422 -0.0542
  117OSM   H11S12292   6.031   3.202  10.108 -0.3182 -1.2925 -0.4032
  117OSM   H11T12293   6.020   3.377  10.063  1.1104  0.0038  1.2251
  117OSM   C12S12294   5.868   3.256   9.972 -0.2554  0.2486  0.2592
  117OSM   H12S12295   5.801   3.344   9.958 -2.7002 -1.5128  0.1786
  117OSM   H12T12296   5.806   3.164   9.982  1.1697 -0.8868 -0.8364
  117OSM   C13S12297   5.950   3.246   9.836  0.0756 -0.3585 -0.9257
  117OSM   H13S12298   6.020   3.161   9.855 -0.8740 -0.9354  0.1213
  117OSM   H13T12299   6.004   3.343   9.827 -0.1741 -0.1510 -0.2474
  117OSM   C14S12300   5.853   3.234   9.722  0.0606 -0.4265  0.2527
  117OSM   H14S12301   5.777   3.315   9.726 -0.0044 -0.3705 -1.3320
  117OSM   H14T12302   5.798   3.137   9.726  0.2734 -0.6251 -1.0930
  117OSM   C15S12303   5.931   3.231   9.594 -0.5711  0.7201  0.3171
  117OSM   H15S12304   5.994   3.140   9.591 -2.4256 -0.5903 -2.0114
  117OSM   H15T12305   5.993   3.323   9.587 -0.1660  0.7259  3.0831
  117OSM   C16S12306   5.832   3.232   9.473  0.4109  0.6431  0.6316
  117OSM   H16S12307   5.790   3.335   9.476  1.8349  1.2372  2.7034
  117OSM   H16T12308   5.765   3.144   9.480  3.1183 -1.6951 -0.8518
  117OSM   C17S12309   5.895   3.215   9.334  0.3843 -0.3808  0.1397
  117OSM   H17S12310   5.830   3.157   9.265 -0.2620  0.1235  0.3096
  117OSM   H17T12311   5.988   3.155   9.331  0.0704 -0.8841  0.3353
  117OSM   C18S12312   5.910   3.349   9.254 -0.2214 -0.0365 -0.4612
  117OSM   H18S12313   5.959   3.323   9.158 -1.8277 -2.0619 -0.7938
  117OSM   H18T12314   5.970   3.414   9.322 -1.1888  1.7563 -1.2538
  117OSM   H18U12315   5.809   3.391   9.235 -0.6000 -0.7631 -0.0940
  117OSM    C1F12316   6.152   3.690  10.739 -0.4070  0.0013  0.3117
  117OSM     OF12317   6.251   3.624  10.785  0.3038  0.4716  0.3224
  117OSM    C2F12318   6.157   3.786  10.628 -0.3417  0.8700 -0.6364
  117OSM    H2F12319   6.262   3.788  10.592 -1.1315 -0.8879 -3.3056
  117OSM    H2G12320   6.114   3.882  10.664 -0.6241 -0.0270  1.5486
  117OSM    C3F12321   6.073   3.735  10.511  0.6111  0.3866  0.4440
  117OSM    H3F12322   5.969   3.708  10.540  0.2019 -3.7007 -3.5982
  117OSM    H3G12323   6.123   3.649  10.461 -0.6760  0.2558 -0.6697
  117OSM    C4F12324   6.066   3.845  10.407  0.1283 -1.0633  0.2023
  117OSM    H4F12325   6.073   3.943  10.460  0.4508 -1.0700  0.1710
  117OSM    H4G12326   5.973   3.853  10.347 -0.6430  2.5650  1.5618
  117OSM    C5F12327   6.186   3.834  10.302  0.6403  0.3496  0.0296
  117OSM    H5F12328   6.239   3.736  10.301  0.2986  0.1652 -1.2265
  117OSM    H5G12329   6.268   3.903  10.328 -0.3606  1.1621  1.1551
  117OSM    C6F12330   6.145   3.866  10.159 -0.5107 -0.5672 -0.0899
  117OSM    H6F12331   6.098   3.967  10.159  1.6533  0.5185  1.2258
  117OSM    H6G12332   6.071   3.789  10.128 -1.5376  1.0462 -1.8507
  117OSM    C7F12333   6.268   3.858  10.062 -0.2023 -0.1723 -0.4931
  117OSM    H7F12334   6.341   3.784  10.102  0.8366 -0.0722 -2.0893
  117OSM    H7G12335   6.320   3.956  10.067 -0.0798 -0.1547 -1.7145
  117OSM    C8F12336   6.226   3.830   9.917  0.4167 -0.1134 -0.2891
  117OSM    H8F12337   6.143   3.902   9.902 -1.5487 -2.0246  0.9132
  117OSM    H8G12338   6.173   3.733   9.921  0.1260  0.0826  2.0158
  117OSM    C9F12339   6.335   3.828   9.814  0.8170 -0.3805 -0.8271
  117OSM    H9F12340   6.422   3.771   9.850 -0.2339 -2.7065 -1.7164
  117OSM   C10F12341   6.342   3.891   9.697  0.1211 -0.0739  0.1618
  117OSM   H10F12342   6.427   3.860   9.635 -0.4124  1.4763 -1.4404
  117OSM   C11F12343   6.233   3.974   9.635 -0.5985 -0.5512  0.3163
  117OSM   H11F12344   6.268   4.077   9.609 -0.8785 -0.0681  1.7706
  117OSM   H11G12345   6.141   3.988   9.696 -0.6545  0.9947 -0.0640
  117OSM   C12F12346   6.177   3.893   9.514 -0.0953 -0.4616  0.5000
  117OSM   H12F12347   6.070   3.918   9.494 -0.1451 -0.9072  0.1930
  117OSM   H12G12348   6.164   3.789   9.550 -1.4035 -0.1180  1.0917
  117OSM   C13F12349   6.262   3.904   9.382 -0.8812  0.7054 -0.0752
  117OSM   H13F12350   6.349   3.836   9.396 -2.6355 -1.9259 -1.2625
  117OSM   H13G12351   6.285   4.010   9.358 -0.6355  0.5459 -0.5467
  117OSM   C14F12352   6.189   3.840   9.260 -0.4969  0.4630  0.6983
  117OSM   H14F12353   6.102   3.896   9.219  0.9535  0.4494 -2.7643
  117OSM   H14G12354   6.162   3.739   9.297  0.9423  0.0794  0.7367
  117OSM   C15F12355   6.273   3.832   9.131 -0.4740  0.5923  0.6931
  117OSM   H15F12356   6.210   3.780   9.055  1.0475 -1.4925  0.7633
  117OSM   H15G12357   6.368   3.776   9.144 -0.3096  0.3907 -1.1148
  117OSM   C16F12358   6.294   3.971   9.070  0.0939  0.1375  0.6340
  117OSM   H16F12359   6.372   4.019   9.134  1.4851  1.2608 -1.7462
  117OSM   H16G12360   6.197   4.025   9.072 -1.0192 -1.7109 -0.6055
  117OSM   C17F12361   6.336   3.974   8.926 -0.5709  1.0260 -0.0323
  117OSM   H17F12362   6.253   3.927   8.869 -1.1702  0.4789  1.2481
  117OSM   H17G12363   6.427   3.912   8.914 -1.2868  0.1718 -1.4101
  117OSM   C18F12364   6.373   4.116   8.876  0.1669  0.0606  0.2624
  117OSM   H18F12365   6.287   4.165   8.825 -0.1405 -0.9241 -0.1970
  117OSM   H18G12366   6.453   4.102   8.800 -0.2086 -0.1138 -0.1054
  117OSM   H18H12367   6.419   4.178   8.955 -0.1733 -0.4252  0.8486
  118OSM      N12368   5.467   4.402  11.232 -0.5789  0.6601 -0.1294
  118OSM    C1512369   5.416   4.261  11.247  0.5939  0.2783 -0.3380
  118OSM   H15A12370   5.490   4.183  11.254  1.0681  0.3291 -3.4514
  118OSM   H15B12371   5.357   4.242  11.159  1.8812  1.5113 -1.5174
  118OSM   H15C12372   5.352   4.257  11.334 -0.1071  1.4372 -0.7760
  118OSM    C1412373   5.368   4.503  11.257  0.3276 -1.4781  0.4763
  118OSM   H14A12374   5.310   4.475  11.344 -0.9645 -0.5164 -0.0366
  118OSM   H14B12375   5.306   4.522  11.171  1.3999  3.0502  0.4213
  118OSM   H14C12376   5.414   4.600  11.273  0.7458 -1.5108 -0.4966
  118OSM    C1312377   5.579   4.421  11.330  0.1075 -0.3548 -0.5919
  118OSM   H13A12378   5.659   4.350  11.314  0.5215  0.1250 -0.6785
  118OSM   H13B12379   5.535   4.404  11.427 -1.1643 -1.0080 -1.2501
  118OSM   H13C12380   5.624   4.518  11.321 -1.2134  0.1303 -2.9351
  118OSM    C1212381   5.518   4.426  11.089  0.2261  0.2013  0.5945
  118OSM   H12A12382   5.560   4.526  11.089  0.6488  0.0675 -1.6122
  118OSM   H12B12383   5.432   4.431  11.023  1.2029 -2.0262 -0.9618
  118OSM    C1112384   5.626   4.331  11.027  0.5127  0.6980 -0.1063
  118OSM   H11A12385   5.650   4.353  10.920  3.2459  1.6006  0.6097
  118OSM   H11B12386   5.582   4.230  11.044  0.7866  1.0893  3.7170
  118OSM      P12387   5.842   4.462  11.098  0.1880  0.1112  0.1880
  118OSM    O1312388   5.799   4.557  11.205 -0.0065 -0.0549  0.4264
  118OSM    O1412389   5.976   4.411  11.110 -0.4001  0.2221  0.2352
  118OSM    O1112390   5.814   4.537  10.956 -0.1784 -0.4155  0.1486
  118OSM    O1212391   5.748   4.334  11.088  0.0004  0.4443  0.2402
  118OSM    C1S12392   5.868   4.477  10.837 -0.3434 -0.0469  0.0984
  118OSM    H1S12393   5.890   4.369  10.846  0.6170  0.2061  0.9402
  118OSM    H1T12394   5.967   4.520  10.810  0.7227 -1.9350  0.7872
  118OSM     NF12395   5.836   4.433  10.598 -0.2011 -0.6672  0.4924
  118OSM    HNF12396   5.892   4.500  10.550  1.8228 -1.9755  0.8739
  118OSM    C2S12397   5.770   4.497  10.714  0.4192  1.0455 -0.0937
  118OSM    H2S12398   5.676   4.443  10.738  0.7235  0.4035 -0.3151
  118OSM    C3S12399   5.758   4.654  10.692  0.6312 -1.0053  0.1123
  118OSM    H3S12400   5.865   4.682  10.679  0.5407  0.3843  2.0527
  118OSM     O312401   5.723   4.738  10.799 -0.0517 -0.3011 -0.0349
  118OSM    HO312402   5.720   4.684  10.878  0.0052 -0.2048  0.0323
  118OSM    C4S12403   5.680   4.687  10.566 -0.0394  0.2729  0.0437
  118OSM    H4S12404   5.738   4.660  10.477  0.1958 -1.3718  0.6683
  118OSM    C5S12405   5.556   4.738  10.563  0.1972 -0.3502 -0.0568
  118OSM    H5S12406   5.505   4.752  10.660  2.2495 -0.5534  1.1143
  118OSM    C6S12407   5.471   4.765  10.444 -0.4902 -0.3550 -0.3007
  118OSM    H6S12408   5.458   4.875  10.450  0.1173 -0.3343  1.0488
  118OSM    H6T12409   5.372   4.719  10.465  0.3533 -1.2707  1.9495
  118OSM    C7S12410   5.536   4.741  10.306  0.2579 -0.2841  0.7178
  118OSM    H7S12411   5.568   4.637  10.286 -1.5419 -0.5292 -1.1772
  118OSM    H7T12412   5.624   4.807  10.293  1.1566 -1.5279  0.3410
  118OSM    C8S12413   5.443   4.789  10.192  0.1011 -0.1023 -0.1735
  118OSM    H8S12414   5.403   4.892  10.206  0.4936  0.1125 -0.6138
  118OSM    H8T12415   5.352   4.726  10.185 -1.8769  2.2388  2.0928
  118OSM    C9S12416   5.500   4.787  10.059  0.5905  0.3028 -0.3382
  118OSM    H9S12417   5.507   4.679  10.035 -0.7043  0.2371 -0.4803
  118OSM    H9T12418   5.600   4.833  10.042  1.1364 -0.4265  0.8196
  118OSM   C10S12419   5.400   4.829   9.952  0.3796 -0.1131 -0.7720
  118OSM   H10S12420   5.373   4.933   9.979  0.5870 -0.1975 -0.2251
  118OSM   H10T12421   5.308   4.768   9.964  0.2841  0.3449  1.0677
  118OSM   C11S12422   5.455   4.824   9.809  0.3766  0.2895 -0.6128
  118OSM   H11S12423   5.505   4.726   9.789  2.9027  1.5173 -0.6808
  118OSM   H11T12424   5.530   4.903   9.790  1.1664 -0.3063 -0.0559
  118OSM   C12S12425   5.361   4.847   9.696 -0.0251 -0.2058  0.6764
  118OSM   H12S12426   5.319   4.949   9.697  0.5170  0.0341  2.0840
  118OSM   H12T12427   5.272   4.782   9.696  1.1457 -2.0407 -2.5039
  118OSM   C13S12428   5.432   4.841   9.560  0.1073  0.0957 -0.1178
  118OSM   H13S12429   5.471   4.739   9.540 -0.4806 -0.5642  1.9090
  118OSM   H13T12430   5.511   4.918   9.554 -1.1710  1.3636 -2.7130
  118OSM   C14S12431   5.334   4.872   9.447 -0.1190 -0.0550  0.6339
  118OSM   H14S12432   5.234   4.850   9.490 -0.2947  0.1424  0.3243
  118OSM   H14T12433   5.342   4.807   9.357 -0.7389  0.8406 -0.0801
  118OSM   C15S12434   5.339   5.018   9.402 -0.1917 -0.9313  0.4507
  118OSM   H15S12435   5.446   5.046   9.395 -1.1174  3.1312 -0.0833
  118OSM   H15T12436   5.292   5.089   9.474  0.2770  0.6835 -0.7545
  118OSM   C16S12437   5.285   5.037   9.256 -0.7055 -0.6537 -0.3693
  118OSM   H16S12438   5.288   5.144   9.228  0.7761 -0.5092  0.2268
  118OSM   H16T12439   5.177   5.015   9.240 -1.1013  1.1656 -0.3828
  118OSM   C17S12440   5.372   4.976   9.146  0.6977  0.0139 -0.7145
  118OSM   H17S12441   5.345   4.868   9.141 -0.0254  0.2144 -1.2197
  118OSM   H17T12442   5.480   4.983   9.170  0.9614  1.4322 -2.1537
  118OSM   C18S12443   5.348   5.032   9.009 -0.4850  0.5495 -0.7220
  118OSM   H18S12444   5.254   4.999   8.958 -0.8115  1.5102 -0.7618
  118OSM   H18T12445   5.423   4.991   8.938  0.2132 -0.0916  0.3596
  118OSM   H18U12446   5.339   5.142   9.001 -1.3745  0.6055  0.7121
  118OSM    C1F12447   5.861   4.309  10.576 -0.0734  0.3238 -0.4516
  118OSM     OF12448   5.820   4.214  10.639  0.2940 -0.1787 -0.6058
  118OSM    C2F12449   5.965   4.280  10.472  0.1029  0.9336 -0.5255
  118OSM    H2F12450   6.025   4.195  10.511 -0.3124  1.7713  2.1467
  118OSM    H2G12451   6.031   4.369  10.461  0.7375  0.4946 -0.3416
  118OSM    C3F12452   5.887   4.246  10.345 -0.3076 -0.0156  0.0197
  118OSM    H3F12453   5.828   4.154  10.364 -1.7281  1.3134  2.5903
  118OSM    H3G12454   5.974   4.235  10.277 -0.9188 -0.9541 -0.6225
  118OSM    C4F12455   5.802   4.345  10.269  0.2528 -0.4937  0.0182
  118OSM    H4F12456   5.869   4.428  10.236  0.9443 -0.4936  1.3599
  118OSM    H4G12457   5.734   4.391  10.344  0.5072  0.4770 -0.3248
  118OSM    C5F12458   5.722   4.297  10.150 -0.7312  0.4978 -0.1791
  118OSM    H5F12459   5.673   4.385  10.103  0.1988  1.8066  1.2459
  118OSM    H5G12460   5.637   4.233  10.182  0.3789 -1.1997 -0.4964
  118OSM    C6F12461   5.791   4.218  10.038 -0.4572  0.1275  1.0523
  118OSM    H6F12462   5.716   4.174   9.969  1.1832 -1.6706  0.3282
  118OSM    H6G12463   5.841   4.128  10.079  2.6818  0.8008 -0.9699
  118OSM    C7F12464   5.891   4.299   9.951  0.1995 -0.0089 -0.3444
  118OSM    H7F12465   5.976   4.335  10.011  0.8560 -1.6427 -0.2256
  118OSM    H7G12466   5.843   4.388   9.906 -0.1160  0.4223  0.8198
  118OSM    C8F12467   5.972   4.206   9.852 -0.0106  0.2860  0.8441
  118OSM    H8F12468   6.002   4.115   9.909  0.0747 -0.8487 -0.9198
  118OSM    H8G12469   6.067   4.258   9.829  1.7163 -2.1246  1.9943
  118OSM    C9F12470   5.893   4.180   9.724  0.5556  0.2370  0.0409
  118OSM    H9F12471   5.822   4.096   9.735  0.5783  0.0790 -0.9543
  118OSM   C10F12472   5.900   4.220   9.600 -0.2539  0.0163  0.5562
  118OSM   H10F12473   5.843   4.170   9.520  0.6605 -1.4171  0.7720
  118OSM   C11F12474   5.995   4.330   9.553 -0.8340  0.2301 -0.3069
  118OSM   H11F12475   6.059   4.367   9.636 -3.5533 -4.3252  4.4167
  118OSM   H11G12476   5.929   4.418   9.542  0.4893  1.9513  3.6336
  118OSM   C12F12477   6.064   4.291   9.421 -0.0584  0.0986  0.6501
  118OSM   H12F12478   6.090   4.183   9.433  0.1042 -0.3529 -2.7421
  118OSM   H12G12479   6.153   4.355   9.406 -0.0685 -0.1446 -0.5681
  118OSM   C13F12480   5.966   4.312   9.306 -0.7128 -0.6534 -0.2563
  118OSM   H13F12481   5.904   4.404   9.315  0.1995 -0.1003  0.5703
  118OSM   H13G12482   5.899   4.224   9.302 -0.2413 -1.2672  2.7936
  118OSM   C14F12483   6.050   4.304   9.176  0.3431  0.4837 -0.0266
  118OSM   H14F12484   6.108   4.210   9.177  0.0277  0.2545 -1.4387
  118OSM   H14G12485   6.119   4.392   9.172  0.9092  0.2655  2.9182
  118OSM   C15F12486   5.972   4.312   9.045 -0.4809  0.0104  0.0867
  118OSM   H15F12487   5.934   4.417   9.045 -0.7545 -0.0825  0.7680
  118OSM   H15G12488   5.881   4.247   9.048  0.0181 -0.7025  0.0099
  118OSM   C16F12489   6.066   4.288   8.923 -0.1733 -0.3407 -0.8253
  118OSM   H16F12490   6.108   4.185   8.929  1.8613  0.4608 -0.5935
  118OSM   H16G12491   6.156   4.352   8.931 -1.7377  2.1127 -1.8720
  118OSM   C17F12492   6.010   4.316   8.781  0.2513 -0.4395 -0.6267
  118OSM   H17F12493   5.918   4.265   8.744 -0.3554 -0.3704  0.7291
  118OSM   H17G12494   6.091   4.285   8.712  0.3697  0.3138 -0.8349
  118OSM   C18F12495   5.990   4.466   8.761 -0.3001 -0.2926 -0.0783
  118OSM   H18F12496   6.081   4.525   8.785 -1.2636  1.5315 -0.7376
  118OSM   H18G12497   5.911   4.501   8.830 -2.1917  1.0804 -2.7494
  118OSM   H18H12498   5.959   4.493   8.657  1.8232  2.8602 -0.0306
  119OSM      N12499   0.445   3.715  10.881  0.0204  0.1850 -0.2433
  119OSM    C1512500   0.417   3.792  11.006 -0.2937  0.3560 -0.3720
  119OSM   H15A12501   0.365   3.887  10.996 -0.2744  0.6163  1.6305
  119OSM   H15B12502   0.507   3.809  11.063 -0.5991  0.8237 -0.0135
  119OSM   H15C12503   0.350   3.737  11.071  1.7311 -1.7007  0.0810
  119OSM    C1412504   0.532   3.797  10.797 -0.4143 -0.3091 -0.0525
  119OSM   H14A12505   0.540   3.759  10.697 -0.7763  1.3397 -0.7381
  119OSM   H14B12506   0.635   3.792  10.832  0.2991 -0.0707 -1.9926
  119OSM   H14C12507   0.502   3.901  10.793  0.1947 -0.1736 -1.4510
  119OSM    C1312508   0.518   3.588  10.918 -0.1155  0.5129 -0.1512
  119OSM   H13A12509   0.541   3.517  10.840  0.4681 -0.9193  1.2613
  119OSM   H13B12510   0.463   3.526  10.988  2.8228 -1.7868  0.3177
  119OSM   H13C12511   0.610   3.619  10.964 -0.2609 -0.8936  1.1876
  119OSM    C1212512   0.311   3.679  10.823 -0.1620 -0.1405  0.1780
  119OSM   H12A12513   0.337   3.621  10.735 -3.4185 -0.0701 -0.9428
  119OSM   H12B12514   0.271   3.774  10.792  1.4864  0.6504  0.3794
  119OSM    C1112515   0.200   3.613  10.898 -0.3826  0.4339 -0.8530
  119OSM   H11A12516   0.106   3.614  10.838 -0.8258 -2.3295 -0.3409
  119OSM   H11B12517   0.166   3.673  10.986 -0.2211  0.4911 -0.8289
  119OSM      P12518   0.136   3.363  10.936 -0.4806 -0.0121 -0.2931
  119OSM    O1312519   0.204   3.234  10.961 -0.0631 -0.5004 -0.0417
  119OSM    O1412520   0.018   3.403  11.018 -0.4005  0.0917  0.1043
  119OSM    O1112521   0.089   3.361  10.792 -0.0281 -0.2103  0.3804
  119OSM    O1212522   0.242   3.481  10.935 -0.1612  0.2171 -0.0808
  119OSM    C1S12523   0.182   3.373  10.682  1.1377 -0.2210 -0.2547
  119OSM    H1S12524   0.219   3.272  10.655  1.6488 -0.0766 -0.1091
  119OSM    H1T12525   0.273   3.433  10.706  0.6236  1.1795 -1.6883
  119OSM     NF12526   0.207   3.488  10.462  0.1925 -0.0774  0.2140
  119OSM    HNF12527   0.182   3.580  10.431  1.1097 -0.2443 -1.0799
  119OSM    C2S12528   0.113   3.432  10.553 -0.1757  0.5961  0.4046
  119OSM    H2S12529   0.066   3.355  10.488 -0.6488  0.9390  0.3264
  119OSM    C3S12530  -0.003   3.531  10.577  0.2928 -0.0771  0.4432
  119OSM    H3S12531   0.039   3.629  10.610 -1.1264  0.0168  2.1070
  119OSM     O312532  -0.100   3.505  10.677  0.6800  0.8682  0.4064
  119OSM    HO312533  -0.041   3.455  10.734  0.4498 -0.4712 -0.4680
  119OSM    C4S12534  -0.078   3.562  10.448 -0.1513 -0.1026  0.3618
  119OSM    H4S12535  -0.131   3.472  10.415  0.0530 -1.1320  2.6474
  119OSM    C5S12536  -0.108   3.676  10.382 -0.3855  0.4033 -0.3000
  119OSM    H5S12537  -0.062   3.767  10.422  2.6025 -1.0562 -0.1585
  119OSM    C6S12538  -0.180   3.683  10.249 -0.2654  0.7926  0.1356
  119OSM    H6S12539  -0.260   3.760  10.253  0.5760  1.6807  0.2645
  119OSM    H6T12540  -0.224   3.584  10.224  0.0876  0.6144  0.2238
  119OSM    C7S12541  -0.080   3.704  10.133 -0.0009 -0.1474 -0.8819
  119OSM    H7S12542   0.001   3.628  10.137  1.2044  1.1206 -0.4275
  119OSM    H7T12543  -0.025   3.800  10.148  0.0029 -0.1541 -0.8513
  119OSM    C8S12544  -0.139   3.700   9.992  0.2396  0.0837 -0.0319
  119OSM    H8S12545  -0.208   3.787   9.983 -0.6987 -0.7128 -0.7325
  119OSM    H8T12546  -0.189   3.604   9.968 -1.5430  0.7817  0.7118
  119OSM    C9S12547  -0.027   3.734   9.891  0.0376  0.0432  0.4952
  119OSM    H9S12548   0.061   3.666   9.891  0.7559  0.9597  0.4268
  119OSM    H9T12549   0.025   3.820   9.936 -1.2651  0.8824  0.4581
  119OSM   C10S12550  -0.069   3.768   9.749 -0.1256  0.2433  0.8852
  119OSM   H10S12551   0.018   3.796   9.686 -0.0216 -2.3704 -0.2842
  119OSM   H10T12552  -0.142   3.852   9.743 -3.4918 -2.5414 -1.0182
  119OSM   C11S12553  -0.134   3.642   9.689 -0.7464 -0.3011 -0.0412
  119OSM   H11S12554  -0.234   3.626   9.734 -0.2121 -0.5767  1.0788
  119OSM   H11T12555  -0.071   3.558   9.723 -1.0444  0.9122  4.0195
  119OSM   C12S12556  -0.150   3.659   9.544  0.0543  0.6637  0.1779
  119OSM   H12S12557  -0.202   3.754   9.518  0.0336  0.1817 -1.6461
  119OSM   H12T12558  -0.210   3.573   9.508 -2.0821  2.1577 -0.0452
  119OSM   C13S12559  -0.021   3.647   9.454  0.1853 -0.4920  1.1243
  119OSM   H13S12560   0.021   3.545   9.459 -1.0834 -1.2111 -1.4141
  119OSM   H13T12561   0.064   3.711   9.488  0.5452 -0.8558  0.9141
  119OSM   C14S12562  -0.041   3.681   9.308 -0.0946 -0.6596 -0.2100
  119OSM   H14S12563  -0.103   3.603   9.257  1.1884  0.0039 -2.9757
  119OSM   H14T12564   0.063   3.680   9.268  1.5245 -2.2150  3.5949
  119OSM   C15S12565  -0.102   3.825   9.279  0.6201 -1.1168  0.0002
  119OSM   H15S12566  -0.204   3.825   9.323  1.1953 -0.2169  1.4071
  119OSM   H15T12567  -0.097   3.840   9.169  2.2088 -0.0526  0.1744
  119OSM   C16S12568  -0.013   3.926   9.344 -0.3525  0.3152 -0.4216
  119OSM   H16S12569   0.094   3.899   9.327 -0.3135 -0.4239  0.8481
  119OSM   H16T12570  -0.029   3.920   9.454  1.1350 -0.6370 -0.2306
  119OSM   C17S12571  -0.047   4.066   9.302 -0.1443 -0.4864  0.2976
  119OSM   H17S12572  -0.041   4.088   9.193  0.8880 -0.2840  0.3819
  119OSM   H17T12573   0.031   4.134   9.342  0.1135 -0.1382 -0.7674
  119OSM   C18S12574  -0.184   4.110   9.352 -0.3564 -0.0598 -0.0628
  119OSM   H18S12575  -0.259   4.045   9.301 -0.3997  0.4228 -0.6239
  119OSM   H18T12576  -0.200   4.219   9.340  1.4516  0.1769 -0.5349
  119OSM   H18U12577  -0.193   4.090   9.461  1.2136  1.5834  0.4145
  119OSM    C1F12578   0.322   3.439  10.419  0.4070 -0.1568  0.1927
  119OSM     OF12579   0.363   3.336  10.466 -0.2756  0.1011  0.0965
  119OSM    C2F12580   0.405   3.517  10.328 -0.1426 -0.4539  0.5076
  119OSM    H2F12581   0.507   3.523  10.372  0.5813 -1.5800 -0.9126
  119OSM    H2G12582   0.373   3.621  10.307 -0.6654 -1.1002 -2.4224
  119OSM    C3F12583   0.408   3.450  10.190  0.0652 -0.3898 -0.4391
  119OSM    H3F12584   0.446   3.346  10.189  1.3143  0.0322  0.2850
  119OSM    H3G12585   0.463   3.516  10.120 -0.1171  0.5047  0.2361
  119OSM    C4F12586   0.270   3.456  10.116  0.1012 -0.1760 -0.0721
  119OSM    H4F12587   0.228   3.558  10.109 -0.3333 -0.3195  0.3936
  119OSM    H4G12588   0.191   3.399  10.171 -0.8082 -0.1754 -1.3184
  119OSM    C5F12589   0.266   3.390   9.973 -0.3817  0.3678 -0.8403
  119OSM    H5F12590   0.157   3.395   9.952 -1.1678  1.0674  2.7099
  119OSM    H5G12591   0.289   3.283   9.986  2.6622  1.1542  1.2682
  119OSM    C6F12592   0.352   3.466   9.872  0.5842 -0.0534  0.4662
  119OSM    H6F12593   0.457   3.435   9.893  1.1348  2.0455  1.0878
  119OSM    H6G12594   0.344   3.575   9.891 -0.1463  0.1517 -0.8874
  119OSM    C7F12595   0.316   3.434   9.732  0.2606 -0.5161 -0.2254
  119OSM    H7F12596   0.218   3.485   9.718  0.8184  1.1814  1.5924
  119OSM    H7G12597   0.309   3.323   9.733  0.7268 -0.5464  0.4326
  119OSM    C8F12598   0.410   3.469   9.616  0.9938  0.6216  1.0624
  119OSM    H8F12599   0.503   3.409   9.623  0.6036 -0.1614 -0.1616
  119OSM    H8G12600   0.432   3.578   9.621 -4.1427  2.1449 -1.9997
  119OSM    C9F12601   0.350   3.440   9.483  0.4950  0.6647 -0.1616
  119OSM    H9F12602   0.332   3.334   9.459  0.2885  0.5926  0.2926
  119OSM   C10F12603   0.330   3.526   9.383  1.2203 -0.8137 -0.1976
  119OSM   H10F12604   0.288   3.486   9.289  1.1233  1.4876 -1.1832
  119OSM   C11F12605   0.354   3.676   9.372 -0.3057  0.9558  0.0320
  119OSM   H11F12606   0.450   3.692   9.427 -0.4813  0.2191  0.5687
  119OSM   H11G12607   0.271   3.728   9.423 -0.5750  0.9953 -0.4437
  119OSM   C12F12608   0.363   3.737   9.230  0.0425 -0.1191 -0.6747
  119OSM   H12F12609   0.259   3.726   9.191 -0.8958  1.3697  1.2173
  119OSM   H12G12610   0.439   3.686   9.167  1.6983  1.3556  0.0606
  119OSM   C13F12611   0.407   3.889   9.241 -0.1915  0.3970 -0.9435
  119OSM   H13F12612   0.517   3.896   9.255 -0.3126  0.6028 -0.0102
  119OSM   H13G12613   0.354   3.929   9.330 -0.1393 -1.6001  0.0318
  119OSM   C14F12614   0.364   3.971   9.108  0.2719 -0.2565 -0.0144
  119OSM   H14F12615   0.399   4.076   9.121  1.1892 -0.2897 -1.8228
  119OSM   H14G12616   0.253   3.971   9.103  0.2811  1.4158 -1.5046
  119OSM   C15F12617   0.406   3.913   8.967 -0.5824  0.0824  0.7105
  119OSM   H15F12618   0.378   3.994   8.896  1.6890  0.8820  0.6433
  119OSM   H15G12619   0.346   3.821   8.949  0.2420 -0.0295 -1.8033
  119OSM   C16F12620   0.560   3.892   8.954  0.7732  0.4487 -0.1891
  119OSM   H16F12621   0.608   3.814   9.018 -1.1722 -0.2567  0.4840
  119OSM   H16G12622   0.601   3.991   8.985  0.5483  1.0221 -1.6398
  119OSM   C17F12623   0.591   3.886   8.807  0.2440 -0.2041  0.4912
  119OSM   H17F12624   0.566   3.986   8.764  1.8607 -1.0642 -2.8494
  119OSM   H17G12625   0.519   3.816   8.760 -0.0760 -0.2665  1.0731
  119OSM   C18F12626   0.732   3.846   8.781  1.0431 -0.1613  0.0097
  119OSM   H18F12627   0.773   3.884   8.685 -0.3023 -1.1959 -0.9997
  119OSM   H18G12628   0.735   3.735   8.782  0.2353 -0.1947 -0.5022
  119OSM   H18H12629   0.813   3.884   8.847  3.4209 -0.2620 -2.6345
  120OSM      N12630   4.798   0.611  10.830 -0.2715  0.3825 -0.2679
  120OSM    C1512631   4.672   0.542  10.862  0.4194 -0.4232  0.0674
  120OSM   H15A12632   4.604   0.610  10.913 -0.0782 -0.1078 -0.9874
  120OSM   H15B12633   4.681   0.457  10.927  0.5356 -0.9848 -0.6761
  120OSM   H15C12634   4.622   0.517  10.770 -0.3059  0.0975  0.3064
  120OSM    C1412635   4.800   0.696  10.711 -0.6103  0.3452 -0.0484
  120OSM   H14A12636   4.710   0.755  10.706 -1.1407 -0.4709 -0.2839
  120OSM   H14B12637   4.798   0.630  10.625 -0.8570  1.5566 -1.0042
  120OSM   H14C12638   4.883   0.764  10.699 -0.5061 -0.0038 -1.4697
  120OSM    C1312639   4.849   0.682  10.951 -0.6691 -0.3462 -0.0238
  120OSM   H13A12640   4.866   0.615  11.033  1.4468  1.4938  1.1547
  120OSM   H13B12641   4.772   0.753  10.979  0.8170  0.7339  1.5146
  120OSM   H13C12642   4.943   0.730  10.927 -0.2437  0.1824  2.4144
  120OSM    C1212643   4.898   0.496  10.805 -0.4390  0.2074 -0.5504
  120OSM   H12A12644   4.869   0.432  10.722  4.0814  0.0443 -2.2771
  120OSM   H12B12645   4.894   0.428  10.888 -0.3370  0.9307  0.0573
  120OSM    C1112646   5.044   0.528  10.774  0.8348  0.0822 -0.0308
  120OSM   H11A12647   5.086   0.427  10.757  0.8502  0.3485 -1.7258
  120OSM   H11B12648   5.090   0.568  10.867  0.2929  2.8754 -0.8421
  120OSM      P12649   5.181   0.710  10.634 -0.2927  0.2541  0.1987
  120OSM    O1312650   5.154   0.789  10.509 -0.3270  0.2522 -0.2571
  120OSM    O1412651   5.179   0.796  10.758 -0.3956  0.8525  0.1994
  120OSM    O1112652   5.308   0.622  10.616 -0.5727  0.3181  0.3583
  120OSM    O1212653   5.068   0.606  10.659  0.5279  0.4299  0.9306
  120OSM    C1S12654   5.308   0.505  10.526  0.2277 -0.2849  0.2373
  120OSM    H1S12655   5.208   0.457  10.526  0.1605 -0.1707 -0.9841
  120OSM    H1T12656   5.380   0.438  10.577  0.7550  0.7347  0.8817
  120OSM     NF12657   5.312   0.418  10.291  0.3453 -0.0871 -0.4286
  120OSM    HNF12658   5.380   0.352  10.262 -1.7962 -2.3876 -0.5521
  120OSM    C2S12659   5.348   0.533  10.376 -0.4272 -0.1291 -0.3974
  120OSM    H2S12660   5.286   0.623  10.352  0.5295  0.7448  0.3300
  120OSM    C3S12661   5.502   0.563  10.359  0.9765  0.5772 -0.1799
  120OSM    H3S12662   5.576   0.482  10.376  0.2820 -0.0862 -0.3048
  120OSM     O312663   5.562   0.667  10.441 -0.0749  0.6673 -0.3427
  120OSM    HO312664   5.516   0.666  10.526  3.5756 -1.2253  1.8537
  120OSM    C4S12665   5.529   0.616  10.216 -0.1430  0.0124 -0.8402
  120OSM    H4S12666   5.453   0.683  10.174  1.8112  2.2353 -1.0776
  120OSM    C5S12667   5.626   0.569  10.139  0.0784  0.1273  0.6931
  120OSM    H5S12668   5.667   0.472  10.170  1.0258  1.1923  2.9223
  120OSM    C6S12669   5.645   0.611   9.995  1.1295 -0.0732 -0.4488
  120OSM    H6S12670   5.749   0.606   9.955  0.6106 -0.1831 -1.8483
  120OSM    H6T12671   5.622   0.719   9.996  0.1431 -0.2595  1.0403
  120OSM    C7S12672   5.547   0.545   9.900  0.1085  0.2914 -0.1635
  120OSM    H7S12673   5.446   0.535   9.945 -0.1044 -3.0102 -1.0993
  120OSM    H7T12674   5.587   0.443   9.882 -0.5286  0.1828 -1.0233
  120OSM    C8S12675   5.539   0.632   9.769 -0.2238  0.7779 -0.4588
  120OSM    H8S12676   5.639   0.634   9.721  0.4332  2.2900  0.8830
  120OSM    H8T12677   5.521   0.737   9.800 -2.1071  0.8861 -1.7591
  120OSM    C9S12678   5.427   0.588   9.675 -0.1858 -0.5462  0.1839
  120OSM    H9S12679   5.412   0.673   9.605  0.2721  0.8676  1.7614
  120OSM    H9T12680   5.326   0.565   9.713 -1.3870 -0.1926 -2.5264
  120OSM   C10S12681   5.465   0.473   9.587 -1.3159 -0.0761 -0.4803
  120OSM   H10S12682   5.453   0.375   9.638 -0.4275 -0.4707 -1.0006
  120OSM   H10T12683   5.576   0.473   9.577 -0.9624 -2.5279  2.1361
  120OSM   C11S12684   5.390   0.484   9.453  0.1913  0.2014  1.0672
  120OSM   H11S12685   5.410   0.587   9.416  1.2806 -0.2740  0.2608
  120OSM   H11T12686   5.281   0.474   9.470  0.5930 -1.0331  3.1363
  120OSM   C12S12687   5.446   0.398   9.338  0.0331  0.6121 -0.6268
  120OSM   H12S12688   5.381   0.316   9.301  1.9754 -1.1258 -0.3150
  120OSM   H12T12689   5.524   0.333   9.382 -0.4353 -0.3044 -1.1189
  120OSM   C13S12690   5.513   0.467   9.222  1.3972 -0.0713 -0.2899
  120OSM   H13S12691   5.594   0.405   9.177 -0.5996 -2.7766 -0.3806
  120OSM   H13T12692   5.563   0.562   9.251  1.7177 -0.6645  1.1931
  120OSM   C14S12693   5.401   0.499   9.119 -0.2138 -0.0717 -0.3631
  120OSM   H14S12694   5.330   0.577   9.155 -0.2443  0.2216 -1.0356
  120OSM   H14T12695   5.345   0.407   9.090  2.3943 -1.3264 -1.6894
  120OSM   C15S12696   5.462   0.564   8.993  0.1394  0.2930  0.0482
  120OSM   H15S12697   5.521   0.487   8.939 -0.3051  0.1392 -0.2292
  120OSM   H15T12698   5.524   0.655   9.006 -1.6455  1.2766  2.7331
  120OSM   C16S12699   5.355   0.593   8.880  0.4327 -0.0431 -0.0962
  120OSM   H16S12700   5.292   0.506   8.851 -0.5274  0.0027  1.7169
  120OSM   H16T12701   5.414   0.618   8.789  2.2480 -1.3715  0.6445
  120OSM   C17S12702   5.267   0.715   8.910  0.1239 -0.1025  0.3764
  120OSM   H17S12703   5.200   0.682   8.993 -2.0418 -0.2188 -1.3253
  120OSM   H17T12704   5.188   0.721   8.832  0.4344  1.2535  0.1500
  120OSM   C18S12705   5.334   0.842   8.940  0.2276  0.3864 -0.1727
  120OSM   H18S12706   5.260   0.924   8.943 -0.6215 -0.3878  0.5414
  120OSM   H18T12707   5.405   0.861   8.856  1.3923  0.3674  0.7674
  120OSM   H18U12708   5.394   0.834   9.034 -1.7533 -1.6841  1.0159
  120OSM    C1F12709   5.186   0.399  10.259  0.0585 -0.2723 -0.0312
  120OSM     OF12710   5.098   0.485  10.268 -0.2125  0.3778  0.2051
  120OSM    C2F12711   5.154   0.257  10.216  0.0627  0.1534 -0.0097
  120OSM    H2F12712   5.088   0.215  10.295  0.4187  2.4126  1.5891
  120OSM    H2G12713   5.252   0.207  10.206 -0.0900 -0.2052  0.2773
  120OSM    C3F12714   5.085   0.255  10.075 -0.0111 -0.5033  0.8202
  120OSM    H3F12715   4.979   0.286  10.091  0.3450  0.9826  0.4774
  120OSM    H3G12716   5.082   0.150  10.040  0.7406 -0.3165  0.1805
  120OSM    C4F12717   5.136   0.348   9.967 -0.1361 -0.1329 -0.0049
  120OSM    H4F12718   5.241   0.317   9.949  0.3100  1.9855 -1.4567
  120OSM    H4G12719   5.128   0.452  10.006  2.4913  0.0069  0.3503
  120OSM    C5F12720   5.056   0.344   9.836  0.2799 -0.4884 -0.5181
  120OSM    H5F12721   5.075   0.444   9.791  3.5825  0.1413  1.8996
  120OSM    H5G12722   4.957   0.313   9.876  0.0709 -0.0670 -0.6958
  120OSM    C6F12723   5.099   0.246   9.730 -0.3052 -0.1031  0.3040
  120OSM    H6F12724   5.116   0.145   9.771  0.9606  0.6621  1.7859
  120OSM    H6G12725   5.194   0.279   9.683 -0.5005  0.1382  0.0770
  120OSM    C7F12726   5.000   0.243   9.619  0.0686 -0.4711 -0.0822
  120OSM    H7F12727   4.973   0.346   9.587  0.2018  0.4769  2.5996
  120OSM    H7G12728   4.907   0.200   9.662  0.8164  0.5063  2.7564
  120OSM    C8F12729   5.045   0.155   9.500 -0.1483  0.0749 -0.6982
  120OSM    H8F12730   5.091   0.060   9.535  0.8862  0.2105 -1.6209
  120OSM    H8G12731   5.128   0.210   9.452  1.7995  0.0713  2.4122
  120OSM    C9F12732   4.931   0.134   9.405  0.0087 -0.0071 -0.0695
  120OSM    H9F12733   4.855   0.060   9.435 -1.4665  1.0399 -1.0427
  120OSM   C10F12734   4.899   0.208   9.292 -0.3193 -0.0532 -0.2749
  120OSM   H10F12735   4.804   0.184   9.243 -1.7125  0.8950  1.8176
  120OSM   C11F12736   4.969   0.335   9.247 -0.3650  0.0967 -0.3990
  120OSM   H11F12737   5.071   0.344   9.290 -0.3567  0.5732 -0.5199
  120OSM   H11G12738   4.909   0.425   9.272  0.8297  1.1039 -1.0530
  120OSM   C12F12739   4.998   0.334   9.090  0.0715 -0.0877  0.4526
  120OSM   H12F12740   5.044   0.237   9.062 -0.0936 -0.0379 -0.0026
  120OSM   H12G12741   5.073   0.414   9.070  1.5365 -1.5063  0.1323
  120OSM   C13F12742   4.868   0.347   9.011  0.1795 -0.6317 -0.0225
  120OSM   H13F12743   4.784   0.395   9.066  0.9180  1.0355 -0.3058
  120OSM   H13G12744   4.824   0.249   8.983 -0.3248  0.1802 -2.2288
  120OSM   C14F12745   4.877   0.440   8.887 -0.4512  0.2262 -0.3932
  120OSM   H14F12746   4.913   0.539   8.923 -0.7551  0.5587 -0.9813
  120OSM   H14G12747   4.779   0.452   8.837 -0.6708 -2.3060 -0.7092
  120OSM   C15F12748   4.979   0.386   8.779  0.0725 -0.2710  0.0902
  120OSM   H15F12749   4.947   0.284   8.747  0.7545 -0.0260 -1.4166
  120OSM   H15G12750   5.079   0.375   8.826  1.6538 -4.5884 -3.5936
  120OSM   C16F12751   4.997   0.490   8.656 -0.2729  0.6389 -1.0612
  120OSM   H16F12752   5.005   0.590   8.705 -2.0113  2.2168 -3.7138
  120OSM   H16G12753   4.901   0.495   8.600  0.2582  1.1425 -1.9631
  120OSM   C17F12754   5.119   0.458   8.575 -0.2113  0.2157  0.3525
  120OSM   H17F12755   5.203   0.441   8.645  0.7457 -0.0393 -0.8189
  120OSM   H17G12756   5.148   0.547   8.515 -2.3237  1.0031  0.4048
  120OSM   C18F12757   5.107   0.357   8.469  0.0884 -0.3926 -0.1307
  120OSM   H18F12758   5.124   0.257   8.515 -0.3560  0.4887  2.0579
  120OSM   H18G12759   5.185   0.368   8.391 -1.3695  0.3993 -1.5161
  120OSM   H18H12760   5.006   0.361   8.424 -0.2257  2.1976  0.6336
  121OSM      N12761   4.981   3.049  11.188  0.2168  0.6943 -0.9554
  121OSM    C1512762   4.995   3.163  11.099  0.2473 -0.4922 -0.0078
  121OSM   H15A12763   5.062   3.144  11.016  1.3116 -1.9076  1.1139
  121OSM   H15B12764   5.050   3.249  11.133  0.2819  0.4808 -2.3498
  121OSM   H15C12765   4.898   3.195  11.065  0.7060 -0.7821 -1.7119
  121OSM    C1412766   5.115   2.986  11.235  0.1298 -0.3160  0.4911
  121OSM   H14A12767   5.094   2.909  11.308 -1.3875  0.0375  0.4600
  121OSM   H14B12768   5.169   3.061  11.291  0.6095 -0.1529 -0.1853
  121OSM   H14C12769   5.172   2.939  11.156  1.4473  1.6352  0.2117
  121OSM    C1312770   4.912   3.100  11.315 -0.1986  0.4341 -0.4745
  121OSM   H13A12771   4.910   3.026  11.393  1.0505 -0.3519 -1.1534
  121OSM   H13B12772   4.815   3.131  11.280 -0.5631 -2.1105 -1.9190
  121OSM   H13C12773   4.975   3.179  11.354 -0.6455  0.9644 -0.8222
  121OSM    C1212774   4.893   2.936  11.114 -0.1472  0.2782 -0.0522
  121OSM   H12A12775   4.937   2.923  11.017 -2.0552  0.0868 -0.9332
  121OSM   H12B12776   4.794   2.976  11.096 -0.3434 -1.0695 -2.2566
  121OSM    C1112777   4.884   2.807  11.191  0.0726  0.3635 -0.5048
  121OSM   H11A12778   4.806   2.742  11.145  0.1701  0.0943 -0.2895
  121OSM   H11B12779   4.860   2.830  11.297 -1.9713  0.7938 -0.9998
  121OSM      P12780   5.055   2.641  11.086 -0.1260 -0.1179  0.1583
  121OSM    O1312781   5.187   2.584  11.135 -0.0875 -0.2467 -0.1342
  121OSM    O1412782   4.939   2.546  11.060 -0.2767 -0.1618  0.7760
  121OSM    O1112783   5.078   2.736  10.963  0.5699  0.8587 -0.2108
  121OSM    O1212784   5.015   2.741  11.200 -0.6239 -0.1223  0.2965
  121OSM    C1S12785   5.093   2.696  10.829  0.4225  0.1097 -0.2992
  121OSM    H1S12786   5.009   2.630  10.800  0.1680  0.2185  0.1791
  121OSM    H1T12787   5.184   2.635  10.813 -0.0430  0.0710 -3.4254
  121OSM     NF12788   5.123   2.768  10.593  0.4503  0.4632  0.1024
  121OSM    HNF12789   5.211   2.743  10.552 -0.3909 -2.0544 -0.3494
  121OSM    C2S12790   5.118   2.819  10.728  0.8458  0.5068  0.0294
  121OSM    H2S12791   5.037   2.894  10.736  1.9860  1.9949 -1.5336
  121OSM    C3S12792   5.255   2.882  10.773  0.0491 -0.0182  0.2964
  121OSM    H3S12793   5.323   2.796  10.794 -0.2181 -0.2228  0.3280
  121OSM     O312794   5.242   2.949  10.901  0.0207 -0.7072 -0.2634
  121OSM    HO312795   5.158   2.921  10.937 -1.3770  1.4854 -1.6061
  121OSM    C4S12796   5.305   2.976  10.673 -1.1638 -0.0362 -0.2658
  121OSM    H4S12797   5.374   2.938  10.596  2.9182  0.6134  2.7083
  121OSM    C5S12798   5.277   3.104  10.662 -1.0756 -0.5440 -0.6491
  121OSM    H5S12799   5.206   3.149  10.733  0.0741  0.5003 -0.1194
  121OSM    C6S12800   5.329   3.198  10.556  0.5550  0.0447  0.3822
  121OSM    H6S12801   5.325   3.151  10.455 -1.5977 -0.6944  0.7499
  121OSM    H6T12802   5.437   3.219  10.570  1.3158 -1.5192 -2.4058
  121OSM    C7S12803   5.262   3.339  10.554 -0.4574 -0.3600  0.0537
  121OSM    H7S12804   5.279   3.378  10.657  1.8443 -1.3971  0.1438
  121OSM    H7T12805   5.152   3.327  10.547 -0.4414 -1.5305  1.4150
  121OSM    C8S12806   5.326   3.423  10.444 -0.2992 -0.8100  0.9217
  121OSM    H8S12807   5.438   3.422  10.445 -0.2890 -1.9538 -0.2311
  121OSM    H8T12808   5.308   3.533  10.448 -0.2489 -0.6145 -2.0622
  121OSM    C9S12809   5.283   3.381  10.296  0.4093  0.4149 -0.0510
  121OSM    H9S12810   5.176   3.407  10.284  0.1058 -0.7555  0.0680
  121OSM    H9T12811   5.289   3.272  10.278 -2.5995  0.5979 -3.1234
  121OSM   C10S12812   5.379   3.441  10.182 -0.0433  0.3853 -0.6897
  121OSM   H10S12813   5.479   3.408  10.218 -0.8828 -2.3163 -0.6380
  121OSM   H10T12814   5.372   3.552  10.185 -1.3514  0.3155 -0.2065
  121OSM   C11S12815   5.345   3.375  10.053 -0.3863 -1.4948  0.3144
  121OSM   H11S12816   5.236   3.386  10.039 -0.1368  1.5380  0.0585
  121OSM   H11T12817   5.365   3.266  10.061 -0.4081 -1.4054  2.1172
  121OSM   C12S12818   5.428   3.426   9.936 -0.1813  0.3126 -0.4038
  121OSM   H12S12819   5.538   3.417   9.947 -0.2432  1.4765  1.5484
  121OSM   H12T12820   5.406   3.531   9.906  0.1588  0.9913  1.5935
  121OSM   C13S12821   5.403   3.342   9.811 -0.7214 -0.2004  0.3126
  121OSM   H13S12822   5.298   3.320   9.781 -1.0996  1.0537  0.6428
  121OSM   H13T12823   5.452   3.244   9.828  0.8131 -0.1905 -3.2012
  121OSM   C14S12824   5.464   3.414   9.688 -0.5466  0.2422 -0.5079
  121OSM   H14S12825   5.573   3.421   9.704 -0.6802  2.0807 -0.2815
  121OSM   H14T12826   5.412   3.512   9.683 -1.2513 -0.1116 -0.3871
  121OSM   C15S12827   5.437   3.341   9.553 -0.6790  0.0936 -1.0494
  121OSM   H15S12828   5.334   3.298   9.550 -0.9974  0.7121  0.1777
  121OSM   H15T12829   5.492   3.244   9.546  1.2392  1.1167 -0.6982
  121OSM   C16S12830   5.445   3.430   9.427 -0.8071 -0.4378 -0.7843
  121OSM   H16S12831   5.548   3.468   9.412 -0.6531 -0.7179 -0.4459
  121OSM   H16T12832   5.384   3.522   9.440  1.0799  0.7112  0.4564
  121OSM   C17S12833   5.394   3.363   9.301  0.2158 -0.2163 -0.1752
  121OSM   H17S12834   5.415   3.436   9.219 -1.9475  0.4884 -0.1897
  121OSM   H17T12835   5.283   3.360   9.311  0.3653 -1.4725  1.4291
  121OSM   C18S12836   5.453   3.231   9.258  0.1463  0.2819  0.1454
  121OSM   H18S12837   5.421   3.207   9.154 -1.7654  2.4608  0.1487
  121OSM   H18T12838   5.427   3.154   9.333  1.0805 -1.1693 -0.9616
  121OSM   H18U12839   5.562   3.247   9.250 -0.1336  1.5918 -1.9299
  121OSM    C1F12840   5.005   2.731  10.537 -0.8894  0.1107 -0.3541
  121OSM     OF12841   4.901   2.730  10.600  0.1467  0.0406  0.4483
  121OSM    C2F12842   5.009   2.689  10.393  0.4771  0.2525 -0.0790
  121OSM    H2F12843   5.114   2.655  10.376  0.6646 -0.0300  1.4606
  121OSM    H2G12844   4.996   2.775  10.324  0.9362 -0.5427 -1.1709
  121OSM    C3F12845   4.909   2.584  10.355 -0.0969  0.3591  0.5909
  121OSM    H3F12846   4.804   2.619  10.359 -0.5198 -0.6936 -0.5911
  121OSM    H3G12847   4.912   2.495  10.422 -0.5367 -0.8544 -0.9532
  121OSM    C4F12848   4.920   2.520  10.204  0.0014 -0.1019 -0.1473
  121OSM    H4F12849   4.825   2.466  10.182 -0.1727  0.0122  0.3121
  121OSM    H4G12850   5.007   2.451  10.203  2.2633  2.3222  3.4833
  121OSM    C5F12851   4.926   2.629  10.091 -0.3879 -0.1646 -1.0352
  121OSM    H5F12852   5.003   2.706  10.112  0.0911 -0.7115 -0.7330
  121OSM    H5G12853   4.830   2.685  10.083  0.0322  0.5317 -1.2751
  121OSM    C6F12854   4.945   2.575   9.952 -1.5433  0.3365 -0.1090
  121OSM    H6F12855   4.933   2.656   9.877  0.1458  0.1299 -0.6524
  121OSM    H6G12856   4.872   2.493   9.934 -0.2899 -1.0084  0.6941
  121OSM    C7F12857   5.095   2.521   9.936  0.1658  0.5565  0.6422
  121OSM    H7F12858   5.107   2.431  10.000 -1.6270 -1.4788 -1.6711
  121OSM    H7G12859   5.159   2.607   9.965  0.1384  0.1787  1.8482
  121OSM    C8F12860   5.135   2.492   9.795  0.5947 -0.3492 -0.3918
  121OSM    H8F12861   5.242   2.461   9.784  1.5579  1.7329  2.1786
  121OSM    H8G12862   5.118   2.580   9.730 -1.4664  1.0727  1.9315
  121OSM    C9F12863   5.059   2.372   9.740 -0.3285  0.8480 -0.0618
  121OSM    H9F12864   5.029   2.299   9.816  0.7770 -1.3555 -1.6280
  121OSM   C10F12865   5.030   2.338   9.609  0.3380 -0.4085 -0.1379
  121OSM   H10F12866   4.979   2.241   9.604  0.5640 -1.0350  4.8333
  121OSM   C11F12867   5.055   2.424   9.484 -0.6023  0.1485  0.2006
  121OSM   H11F12868   5.069   2.530   9.513  1.0632  0.0327 -0.0763
  121OSM   H11G12869   4.973   2.425   9.409 -2.5313  0.3403  2.2091
  121OSM   C12F12870   5.174   2.355   9.408 -0.2808 -0.4925 -0.1016
  121OSM   H12F12871   5.149   2.252   9.375  1.7778 -0.4279 -2.1318
  121OSM   H12G12872   5.269   2.350   9.467 -1.3343  0.3737  1.7694
  121OSM   C13F12873   5.214   2.437   9.281  0.4639 -0.3707 -0.0360
  121OSM   H13F12874   5.247   2.536   9.317  1.2329 -0.3381 -0.7925
  121OSM   H13G12875   5.122   2.441   9.218 -2.2417 -1.4119  3.5310
  121OSM   C14F12876   5.329   2.375   9.205  0.7427 -0.5784  0.8325
  121OSM   H14F12877   5.326   2.264   9.202  0.6275 -0.6406  2.3925
  121OSM   H14G12878   5.415   2.389   9.273  2.1315 -0.7082 -0.8295
  121OSM   C15F12879   5.353   2.433   9.073  0.3478 -0.0974 -0.0266
  121OSM   H15F12880   5.341   2.543   9.069 -2.5434 -0.3145  0.5408
  121OSM   H15G12881   5.276   2.392   9.003  1.7386  0.2471 -1.8505
  121OSM   C16F12882   5.488   2.388   9.007  0.0510 -0.6263  0.2808
  121OSM   H16F12883   5.487   2.282   8.973 -2.1739  0.3654 -3.2183
  121OSM   H16G12884   5.569   2.398   9.083 -0.0771 -1.1612  0.4907
  121OSM   C17F12885   5.512   2.467   8.877 -0.1398  0.7348 -0.1722
  121OSM   H17F12886   5.542   2.574   8.883 -1.1432  1.0413 -0.5156
  121OSM   H17G12887   5.416   2.470   8.821 -0.1872 -3.3625 -0.6369
  121OSM   C18F12888   5.624   2.401   8.790 -0.2363 -0.4003 -0.1382
  121OSM   H18F12889   5.644   2.472   8.707  0.0050  0.6936  0.8154
  121OSM   H18G12890   5.607   2.295   8.761  0.6141 -0.5856  0.0065
  121OSM   H18H12891   5.725   2.405   8.836  0.0739 -3.2893 -0.4152
  122OSM      N12892   5.567   1.723  10.991 -0.3280 -0.0011  0.0538
  122OSM    C1512893   5.524   1.586  11.017  0.1538 -0.2284  0.6989
  122OSM   H15A12894   5.504   1.576  11.122 -0.8029  0.2692  0.5700
  122OSM   H15B12895   5.601   1.523  10.974  1.0219  1.7334 -0.7965
  122OSM   H15C12896   5.434   1.571  10.960  0.6072  1.0675 -0.4263
  122OSM    C1412897   5.706   1.744  11.049  0.7323  0.7103 -0.2636
  122OSM   H14A12898   5.746   1.844  11.049  0.1052  1.0750  2.8044
  122OSM   H14B12899   5.780   1.684  11.000 -0.3240 -0.0908 -0.9237
  122OSM   H14C12900   5.711   1.713  11.153  0.1135  2.1050  0.2111
  122OSM    C1312901   5.569   1.755  10.842 -0.2997  0.3040  0.0768
  122OSM   H13A12902   5.614   1.852  10.821  0.4309  0.3257  1.5902
  122OSM   H13B12903   5.469   1.768  10.804 -0.7047 -1.2831  0.5464
  122OSM   H13C12904   5.613   1.674  10.786 -1.9119 -0.5667  0.0183
  122OSM    C1212905   5.476   1.814  11.069 -0.0049  0.3474  0.3206
  122OSM   H12A12906   5.488   1.919  11.044 -0.4171  0.8601  2.1194
  122OSM   H12B12907   5.509   1.817  11.172 -0.1369  0.2359  0.3663
  122OSM    C1112908   5.322   1.789  11.065 -0.1223 -0.5492 -0.3231
  122OSM   H11A12909   5.276   1.835  11.155 -0.8338 -1.5679 -0.1437
  122OSM   H11B12910   5.294   1.684  11.090 -0.7529  0.0780  1.8832
  122OSM      P12911   5.207   1.967  10.927 -0.1742 -0.1556  0.2159
  122OSM    O1312912   5.074   1.973  10.993  0.4522 -0.1564 -0.6965
  122OSM    O1412913   5.313   2.061  10.967  0.3419  0.2931  0.2440
  122OSM    O1112914   5.188   1.982  10.759  0.0570  0.3676  0.5858
  122OSM    O1212915   5.260   1.826  10.945 -0.3247 -0.0002 -0.3663
  122OSM    C1S12916   5.251   1.883  10.668 -1.0260 -0.1375 -0.3558
  122OSM    H1S12917   5.255   1.778  10.704 -2.5496 -0.2388 -0.4237
  122OSM    H1T12918   5.356   1.917  10.657 -0.1088 -2.0865  1.6405
  122OSM     NF12919   5.215   1.803  10.437  0.6601  0.1522  0.1098
  122OSM    HNF12920   5.278   1.835  10.368 -1.0285  1.9125 -0.6956
  122OSM    C2S12921   5.176   1.905  10.533 -0.8562 -0.1495 -0.2793
  122OSM    H2S12922   5.066   1.904  10.545 -0.7210  0.7677  1.2619
  122OSM    C3S12923   5.201   2.052  10.480  0.2997 -0.0407  0.3983
  122OSM    H3S12924   5.310   2.071  10.477  0.7263 -2.2680  0.3100
  122OSM     O312925   5.134   2.149  10.556 -0.1687 -0.0997  0.0837
  122OSM    HO312926   5.105   2.115  10.640 -1.6790  3.8971  1.4124
  122OSM    C4S12927   5.157   2.068  10.336 -0.0590  0.1760 -0.2165
  122OSM    H4S12928   5.217   2.011  10.264 -1.1312 -1.1108 -0.1351
  122OSM    C5S12929   5.052   2.139  10.283  0.2205  0.0829 -0.1566
  122OSM    H5S12930   4.986   2.183  10.358 -0.0623 -0.1714 -0.2540
  122OSM    C6S12931   5.003   2.132  10.142  0.0711  0.0792  0.2612
  122OSM    H6S12932   4.978   2.230  10.096 -1.6375 -0.7293 -0.6435
  122OSM    H6T12933   4.913   2.067  10.134 -0.0496  0.3479 -0.6950
  122OSM    C7S12934   5.083   2.054  10.032  0.2931 -0.2636  0.0618
  122OSM    H7S12935   5.127   1.968  10.087 -0.9175  0.8369  2.9201
  122OSM    H7T12936   5.170   2.116  10.002  1.9081 -1.4694  1.9817
  122OSM    C8S12937   5.006   2.005   9.896 -0.0407 -0.3304  0.3106
  122OSM    H8S12938   4.943   2.091   9.867  1.9634  0.7959 -0.9673
  122OSM    H8T12939   4.940   1.918   9.917  0.3254 -0.7845 -0.3660
  122OSM    C9S12940   5.105   1.967   9.790 -0.4357 -0.0615  0.3662
  122OSM    H9S12941   5.148   1.869   9.821 -0.2787 -1.2207 -3.0749
  122OSM    H9T12942   5.180   2.048   9.781 -0.7884  0.2777  0.4778
  122OSM   C10S12943   5.036   1.940   9.659 -0.4205 -0.7169 -0.1249
  122OSM   H10S12944   4.967   2.025   9.637 -1.7852 -1.1747  2.0318
  122OSM   H10T12945   4.963   1.858   9.675 -0.1472 -0.4982  2.7982
  122OSM   C11S12946   5.130   1.920   9.539  0.5878 -0.0673  0.1401
  122OSM   H11S12947   5.177   1.823   9.567  1.6598  0.5443  0.5069
  122OSM   H11T12948   5.195   2.009   9.526  2.5928 -1.4654  0.0290
  122OSM   C12S12949   5.047   1.914   9.407 -0.0461 -0.2272 -0.2351
  122OSM   H12S12950   4.972   1.994   9.419  0.3804  0.5429 -2.2118
  122OSM   H12T12951   4.987   1.821   9.404 -1.3507  0.5661  0.4156
  122OSM   C13S12952   5.128   1.938   9.272  0.6234  0.3283 -0.2600
  122OSM   H13S12953   5.140   2.047   9.257 -3.0982  0.7338 -1.2866
  122OSM   H13T12954   5.068   1.900   9.186  1.8673  0.9305 -1.4375
  122OSM   C14S12955   5.267   1.873   9.268 -0.6340  0.1392 -0.0718
  122OSM   H14S12956   5.265   1.765   9.298 -2.0538  0.3488  0.7151
  122OSM   H14T12957   5.328   1.932   9.340 -1.4912 -0.1775  0.9484
  122OSM   C15S12958   5.337   1.888   9.132  0.4692  0.4897 -0.1454
  122OSM   H15S12959   5.318   1.992   9.097 -1.0989  0.3857  0.3276
  122OSM   H15T12960   5.291   1.812   9.065 -1.6792  2.2790 -0.8125
  122OSM   C16S12961   5.491   1.891   9.127 -0.1938  0.5757  0.5717
  122OSM   H16S12962   5.547   1.948   9.204 -0.5145 -0.1511  1.3538
  122OSM   H16T12963   5.514   1.935   9.027 -0.4496  0.1734  0.3324
  122OSM   C17S12964   5.548   1.750   9.111 -0.2834 -0.0614  0.1011
  122OSM   H17S12965   5.496   1.703   9.026 -0.3205  2.9010 -1.6465
  122OSM   H17T12966   5.523   1.689   9.201  1.4211 -1.9895 -0.6507
  122OSM   C18S12967   5.700   1.742   9.113 -0.0816  0.0026 -0.6635
  122OSM   H18S12968   5.735   1.718   9.215 -0.8265 -1.0825 -0.6355
  122OSM   H18T12969   5.740   1.841   9.084 -1.2013  0.8602  0.5912
  122OSM   H18U12970   5.739   1.674   9.034 -0.4602  1.4965 -2.1886
  122OSM    C1F12971   5.201   1.668  10.450 -0.0649 -0.8991 -0.4165
  122OSM     OF12972   5.139   1.618  10.545  0.5013 -0.1849 -0.1107
  122OSM    C2F12973   5.263   1.583  10.352  0.2325 -0.0643 -0.1196
  122OSM    H2F12974   5.314   1.498  10.402 -1.0085 -0.8552 -0.1548
  122OSM    H2G12975   5.332   1.636  10.283 -0.4928  2.7131  1.1596
  122OSM    C3F12976   5.154   1.514  10.256 -0.3692  0.1470  0.1979
  122OSM    H3F12977   5.085   1.459  10.323 -1.7211 -1.0830 -2.0970
  122OSM    H3G12978   5.203   1.433  10.199  1.5757 -0.3669  2.4037
  122OSM    C4F12979   5.092   1.606  10.157  0.5764 -0.0111  0.8895
  122OSM    H4F12980   5.172   1.657  10.101  1.1277 -0.2623  1.4304
  122OSM    H4G12981   5.043   1.685  10.218  0.4734 -0.5880  1.5750
  122OSM    C5F12982   5.001   1.527  10.054 -0.4849 -0.3723  0.0735
  122OSM    H5F12983   4.945   1.458  10.120  1.6745 -2.2560  0.0457
  122OSM    H5G12984   5.074   1.464  10.001  0.1091 -0.7336  1.2874
  122OSM    C6F12985   4.903   1.611   9.974  0.0205 -0.1453  0.7322
  122OSM    H6F12986   4.954   1.698   9.927 -1.9250  0.2396 -0.8061
  122OSM    H6G12987   4.827   1.650  10.045 -1.7871 -2.1902 -0.0022
  122OSM    C7F12988   4.830   1.525   9.862  0.3860 -0.0093 -0.8116
  122OSM    H7F12989   4.764   1.597   9.810 -1.6954 -0.1966  1.3878
  122OSM    H7G12990   4.762   1.459   9.920 -1.3892  2.0421 -0.4491
  122OSM    C8F12991   4.926   1.451   9.772 -0.9240  0.2901  0.0939
  122OSM    H8F12992   4.968   1.363   9.826 -0.2943  1.2387  1.1935
  122OSM    H8G12993   5.007   1.519   9.738 -0.1751  0.1804  1.5946
  122OSM    C9F12994   4.841   1.401   9.658 -0.2322  0.2274 -0.3296
  122OSM    H9F12995   4.787   1.307   9.681  1.0970  0.2340  3.5384
  122OSM   C10F12996   4.840   1.447   9.528  0.0180 -0.7435  0.2491
  122OSM   H10F12997   4.774   1.404   9.450 -1.3804 -1.5032  1.7956
  122OSM   C11F12998   4.915   1.567   9.471 -0.4098 -0.1595  0.3753
  122OSM   H11F12999   5.009   1.583   9.528 -1.2822 -0.1297  1.8393
  122OSM   H11G13000   4.845   1.650   9.496  1.1463  1.3994 -0.2589
  122OSM   C12F13001   4.957   1.564   9.316  1.1496 -0.1594 -0.4078
  122OSM   H12F13002   5.011   1.468   9.310  0.5093 -0.6608  1.2695
  122OSM   H12G13003   5.019   1.652   9.290 -0.1796  1.7292  2.2980
  122OSM   C13F13004   4.834   1.565   9.219 -0.5837  0.0093  0.4135
  122OSM   H13F13005   4.784   1.662   9.238  1.2814  1.4411 -1.4962
  122OSM   H13G13006   4.758   1.490   9.247 -0.1635  0.2476  2.3874
  122OSM   C14F13007   4.863   1.555   9.072  0.2685  1.1720 -0.4573
  122OSM   H14F13008   4.770   1.563   9.012 -0.1041  1.1087  0.1123
  122OSM   H14G13009   4.918   1.459   9.058  2.3630  2.2486 -0.0729
  122OSM   C15F13010   4.949   1.668   9.014  0.5410  0.1144  0.6808
  122OSM   H15F13011   5.051   1.667   9.059  0.8770  0.3261 -0.0637
  122OSM   H15G13012   4.898   1.764   9.037 -1.1333 -0.8603  1.2122
  122OSM   C16F13013   4.955   1.660   8.857  0.2236  0.1381  0.1798
  122OSM   H16F13014   4.902   1.752   8.825  0.6571 -0.2705 -1.8661
  122OSM   H16G13015   4.901   1.567   8.832  0.3880 -0.4448  1.8691
  122OSM   C17F13016   5.097   1.656   8.795 -0.0800 -0.3891 -0.0263
  122OSM   H17F13017   5.137   1.555   8.818  3.0267  0.7943  0.2331
  122OSM   H17G13018   5.160   1.731   8.848 -0.6761  0.4428 -0.4794
  122OSM   C18F13019   5.108   1.677   8.649  0.4442 -0.0077  0.5483
  122OSM   H18F13020   5.057   1.603   8.583  2.1225 -1.1754  0.4949
  122OSM   H18G13021   5.216   1.668   8.627  0.1587 -0.9766 -0.5943
  122OSM   H18H13022   5.063   1.775   8.622 -1.7642 -1.1425 -0.1794
  123OSM      N13023   3.478   6.170   5.931  0.0315  0.6370 -0.2843
  123OSM    C1513024   3.595   6.266   5.941  0.3933  0.9144 -0.2139
  123OSM   H15A13025   3.620   6.307   5.845  0.6222  0.1693 -0.4761
  123OSM   H15B13026   3.686   6.219   5.976  1.5108  1.6844 -1.9346
  123OSM   H15C13027   3.571   6.344   6.013 -0.8249 -1.0527  1.6529
  123OSM    C1413028   3.361   6.241   5.873  0.1783  0.4049 -0.2675
  123OSM   H14A13029   3.272   6.182   5.857  0.0686  0.9781 -1.8675
  123OSM   H14B13030   3.390   6.289   5.781 -1.4805 -0.2377 -1.1655
  123OSM   H14C13031   3.337   6.318   5.945 -0.9322  1.1930 -1.4431
  123OSM    C1313032   3.521   6.065   5.824 -0.0773 -0.5639 -0.5828
  123OSM   H13A13033   3.586   5.992   5.869 -1.5267 -1.9176 -0.5985
  123OSM   H13B13034   3.583   6.116   5.752 -1.4022  1.8662 -0.1003
  123OSM   H13C13035   3.433   6.016   5.784 -1.3278  0.7097  0.4675
  123OSM    C1213036   3.447   6.100   6.059  0.3524  0.7175  0.4456
  123OSM   H12A13037   3.364   6.033   6.044  0.9376  0.1690 -0.4043
  123OSM   H12B13038   3.410   6.177   6.125 -0.9633  2.3478 -2.0679
  123OSM    C1113039   3.554   6.017   6.140  0.6713 -1.0578 -0.5572
  123OSM   H11A13040   3.495   5.995   6.231  1.0261  1.7255  0.4417
  123OSM   H11B13041   3.643   6.078   6.165 -1.7835  3.0188 -0.8462
  123OSM      P13042   3.719   5.810   6.087 -0.2314 -0.1838 -0.2114
  123OSM    O1313043   3.697   5.673   6.028  0.1030 -0.0573 -0.5295
  123OSM    O1413044   3.845   5.880   6.046  0.4301  0.1468 -0.3727
  123OSM    O1113045   3.718   5.810   6.249  0.1241 -0.4382 -0.1247
  123OSM    O1213046   3.587   5.896   6.064 -0.7379 -0.4613  0.7475
  123OSM    C1S13047   3.621   5.748   6.333 -0.3759  0.2761  0.5023
  123OSM    H1S13048   3.589   5.647   6.298 -0.9619  0.3937  0.6835
  123OSM    H1T13049   3.529   5.810   6.339 -0.1331  0.4768  2.6437
  123OSM     NF13050   3.636   5.627   6.552 -0.2377  0.1908  0.2375
  123OSM    HNF13051   3.581   5.669   6.624 -2.6001 -0.1191 -1.2469
  123OSM    C2S13052   3.696   5.732   6.467 -0.6988  0.4030 -0.4173
  123OSM    H2S13053   3.797   5.692   6.448 -0.8421 -1.5859  2.3812
  123OSM    C3S13054   3.717   5.875   6.538  1.0312  0.4923  0.1303
  123OSM    H3S13055   3.615   5.901   6.574  0.5913  0.1841 -0.8539
  123OSM     O313056   3.742   5.978   6.448 -0.6635 -0.2873 -0.0283
  123OSM    HO313057   3.732   5.937   6.362 -0.9660 -1.3295  0.4901
  123OSM    C4S13058   3.815   5.862   6.650 -0.7208  0.2883 -0.2579
  123OSM    H4S13059   3.778   5.797   6.730 -0.1421 -0.4108 -0.5400
  123OSM    C5S13060   3.947   5.902   6.662  0.1508 -0.0045  0.4949
  123OSM    H5S13061   3.992   5.958   6.579 -1.2615  1.6239  0.7800
  123OSM    C6S13062   4.024   5.881   6.784 -0.6769 -0.5773 -0.4459
  123OSM    H6S13063   4.101   5.958   6.803 -1.5079  0.1604  0.0382
  123OSM    H6T13064   4.065   5.778   6.795  0.9366  0.1598  0.8520
  123OSM    C7S13065   3.946   5.903   6.914 -0.1661  0.0735 -0.4211
  123OSM    H7S13066   3.869   5.827   6.938  1.0396 -0.4681  2.0778
  123OSM    H7T13067   3.897   6.002   6.900  0.4465  0.4184 -0.1571
  123OSM    C8S13068   4.033   5.919   7.039 -0.7710  0.2897  0.2533
  123OSM    H8S13069   3.986   5.998   7.101 -5.0704 -1.1296 -0.8572
  123OSM    H8T13070   4.134   5.951   7.003  0.1252 -2.2787  0.2204
  123OSM    C9S13071   4.044   5.803   7.140  0.7333 -0.0978 -0.2975
  123OSM    H9S13072   4.032   5.707   7.086 -1.5941  0.8935 -1.6991
  123OSM    H9T13073   3.960   5.808   7.213 -0.5435  0.1755 -1.7498
  123OSM   C10S13074   4.172   5.811   7.232 -0.4728 -0.4160  0.2148
  123OSM   H10S13075   4.179   5.916   7.268 -0.5623 -0.7462  1.2365
  123OSM   H10T13076   4.254   5.780   7.163 -1.1125  0.2056 -0.8458
  123OSM   C11S13077   4.157   5.720   7.358  0.1061 -0.1815 -0.0557
  123OSM   H11S13078   4.202   5.621   7.337 -1.4573 -0.9011 -0.1529
  123OSM   H11T13079   4.050   5.702   7.383 -0.7345  1.1627 -2.3823
  123OSM   C12S13080   4.222   5.776   7.486  0.1431  0.0676  0.2125
  123OSM   H12S13081   4.319   5.816   7.449  1.3796 -2.8260  0.0194
  123OSM   H12T13082   4.250   5.692   7.554 -1.4659 -2.1314 -1.6953
  123OSM   C13S13083   4.143   5.885   7.555  0.4182 -0.0459 -0.0155
  123OSM   H13S13084   4.043   5.846   7.583  0.4251 -0.8338 -1.0450
  123OSM   H13T13085   4.119   5.967   7.483  2.1322 -0.4791 -1.1327
  123OSM   C14S13086   4.222   5.930   7.684  0.4892  0.5193 -0.2933
  123OSM   H14S13087   4.300   6.005   7.660  1.3657 -0.3078 -0.0976
  123OSM   H14T13088   4.273   5.847   7.738  0.7951  0.4581 -0.6800
  123OSM   C15S13089   4.110   5.995   7.780 -0.8075  0.1321  0.8426
  123OSM   H15S13090   4.010   5.947   7.786 -0.4216 -0.5709  2.5730
  123OSM   H15T13091   4.085   6.094   7.737 -2.7398  0.6319  2.9380
  123OSM   C16S13092   4.151   6.007   7.924 -0.1506  0.3475  0.3485
  123OSM   H16S13093   4.082   6.076   7.978 -0.4809 -1.3513  2.2211
  123OSM   H16T13094   4.254   6.049   7.927  0.6802 -1.6182  0.7627
  123OSM   C17S13095   4.175   5.878   8.002  0.1261  0.4403  0.7478
  123OSM   H17S13096   4.270   5.843   7.955 -0.6009  2.8958 -3.1135
  123OSM   H17T13097   4.090   5.809   7.986  1.1982 -0.5729 -0.8788
  123OSM   C18S13098   4.204   5.901   8.152 -0.0458 -0.0658  0.2598
  123OSM   H18S13099   4.239   5.803   8.191  0.5321  1.1607  3.1213
  123OSM   H18T13100   4.116   5.932   8.212 -1.8819 -1.4468 -1.6140
  123OSM   H18U13101   4.272   5.987   8.171 -1.2329  0.4539  2.4766
  123OSM    C1F13102   3.633   5.497   6.533  0.4659 -0.4197  0.6044
  123OSM     OF13103   3.715   5.453   6.455  0.0499 -0.0500 -0.3404
  123OSM    C2F13104   3.529   5.414   6.605  0.5156  0.5764 -0.6409
  123OSM    H2F13105   3.432   5.414   6.552  0.7326 -0.1233 -1.0490
  123OSM    H2G13106   3.510   5.459   6.705  1.0121 -0.5713 -0.0058
  123OSM    C3F13107   3.564   5.266   6.640  1.0489  0.0445  0.2706
  123OSM    H3F13108   3.617   5.225   6.551  0.2042 -1.4993  0.4456
  123OSM    H3G13109   3.465   5.217   6.651  1.2130 -0.4206 -0.2371
  123OSM    C4F13110   3.639   5.240   6.772  0.2098  0.1542 -0.0098
  123OSM    H4F13111   3.634   5.132   6.797 -1.6845  0.3546  0.7049
  123OSM    H4G13112   3.593   5.286   6.863  0.4393  0.4040 -0.0193
  123OSM    C5F13113   3.789   5.279   6.766  0.3953  0.2811  0.1067
  123OSM    H5F13114   3.783   5.388   6.747 -0.9839  0.0534 -0.8966
  123OSM    H5G13115   3.843   5.224   6.686  2.5205  2.1749  0.1307
  123OSM    C6F13116   3.866   5.235   6.902 -0.2969 -0.2735  0.8146
  123OSM    H6F13117   3.974   5.255   6.882 -0.5734  1.9205  1.2431
  123OSM    H6G13118   3.843   5.128   6.920  0.3347 -0.0805  3.1007
  123OSM    C7F13119   3.818   5.327   7.017 -0.3390 -0.2370  0.0887
  123OSM    H7F13120   3.714   5.293   7.038 -1.3664  1.9121 -1.2522
  123OSM    H7G13121   3.795   5.429   6.981 -2.5528 -0.9422 -0.6410
  123OSM    C8F13122   3.900   5.337   7.147  0.0185 -1.0950 -0.3747
  123OSM    H8F13123   3.854   5.412   7.215  2.2039  2.1849 -2.2262
  123OSM    H8G13124   3.990   5.400   7.129  0.6723 -1.1842  2.0824
  123OSM    C9F13125   3.942   5.204   7.207  0.3092 -0.0400  0.5585
  123OSM    H9F13126   3.970   5.131   7.130 -0.4411 -0.0284  0.2743
  123OSM   C10F13127   3.954   5.178   7.334  0.7071 -0.7225 -0.3354
  123OSM   H10F13128   3.971   5.073   7.362 -1.9111 -1.4095 -1.0361
  123OSM   C11F13129   3.922   5.268   7.446  0.1303  0.1542  0.2519
  123OSM   H11F13130   3.932   5.217   7.544 -1.0896 -0.7940 -0.0977
  123OSM   H11G13131   3.813   5.291   7.433  0.2451 -0.2231 -1.6451
  123OSM   C12F13132   4.007   5.398   7.459 -0.0427 -0.1648  0.3041
  123OSM   H12F13133   3.984   5.476   7.383  1.5967  0.7133  0.6550
  123OSM   H12G13134   4.117   5.389   7.449  0.1264  0.9206  1.0196
  123OSM   C13F13135   3.980   5.467   7.594 -0.0643  0.0942  0.4424
  123OSM   H13F13136   3.871   5.481   7.607 -0.2652  0.2865 -1.2572
  123OSM   H13G13137   4.031   5.565   7.583  2.7075 -1.4493 -2.1775
  123OSM   C14F13138   4.029   5.399   7.717  0.0534 -0.2706 -0.2898
  123OSM   H14F13139   4.136   5.379   7.692 -0.0339 -2.3133  0.7299
  123OSM   H14G13140   3.977   5.303   7.736  0.9600 -1.2994 -2.6190
  123OSM   C15F13141   4.021   5.485   7.848 -0.5200 -0.1416  0.3471
  123OSM   H15F13142   3.912   5.490   7.869 -0.4752  0.4048  0.4729
  123OSM   H15G13143   4.054   5.585   7.812 -0.9774  0.5290  1.7006
  123OSM   C16F13144   4.100   5.437   7.975 -0.1091  0.8757 -0.0504
  123OSM   H16F13145   4.210   5.438   7.964 -0.3763  0.7553 -3.7196
  123OSM   H16G13146   4.075   5.328   7.976  2.9495  0.0874 -0.0769
  123OSM   C17F13147   4.058   5.480   8.116 -0.1083 -0.9874 -0.3536
  123OSM   H17F13148   3.947   5.474   8.117 -0.2087  0.4450 -0.2611
  123OSM   H17G13149   4.077   5.589   8.128  3.8982 -1.5416 -0.3222
  123OSM   C18F13150   4.127   5.409   8.238 -0.0457 -0.2309  0.4442
  123OSM   H18F13151   4.235   5.424   8.216 -0.8524  2.0670 -2.6978
  123OSM   H18G13152   4.092   5.304   8.253 -0.7037  0.0011  0.5443
  123OSM   H18H13153   4.100   5.458   8.334 -2.7465  0.3896 -0.5346
  124OSM      N13154   6.604   3.274   6.146 -0.0218 -0.5576 -0.5251
  124OSM    C1513155   6.450   3.270   6.116  0.6286 -0.0749  0.2282
  124OSM   H15A13156   6.410   3.202   6.190  3.6936 -0.5045  1.6367
  124OSM   H15B13157   6.434   3.234   6.016  2.8257 -2.2707  0.5754
  124OSM   H15C13158   6.411   3.371   6.118 -1.5205 -0.8446  2.1690
  124OSM    C1413159   6.665   3.143   6.086  0.4534 -0.2172 -0.4366
  124OSM   H14A13160   6.771   3.134   6.104  0.1640 -0.1685  1.5052
  124OSM   H14B13161   6.638   3.154   5.982 -2.2256  0.8957  0.2906
  124OSM   H14C13162   6.620   3.056   6.132  1.2600 -0.9271 -0.9382
  124OSM    C1313163   6.659   3.394   6.079 -0.0823  0.4458  0.3101
  124OSM   H13A13164   6.638   3.485   6.133  0.2793  2.1568 -2.2604
  124OSM   H13B13165   6.607   3.413   5.986 -1.6040  2.3396  1.4791
  124OSM   H13C13166   6.766   3.393   6.067 -0.0417  1.1178  0.6126
  124OSM    C1213167   6.624   3.268   6.294 -0.0966 -0.2911  0.5550
  124OSM   H12A13168   6.597   3.367   6.327 -0.0259  0.0774 -0.4592
  124OSM   H12B13169   6.730   3.250   6.308  0.2547 -0.0346 -1.4642
  124OSM    C1113170   6.539   3.159   6.370  0.0507 -0.0274 -0.0178
  124OSM   H11A13171   6.429   3.167   6.359  0.0736  0.2730 -0.0496
  124OSM   H11B13172   6.557   3.187   6.476  0.2936 -0.5847  0.0892
  124OSM      P13173   6.506   2.903   6.319 -0.0131 -0.3979 -0.0858
  124OSM    O1313174   6.363   2.939   6.340 -0.1682  0.1139  0.0826
  124OSM    O1413175   6.554   2.840   6.197  0.2254 -0.3363  0.2476
  124OSM    O1113176   6.547   2.807   6.431 -0.0956  0.3574  0.2769
  124OSM    O1213177   6.598   3.030   6.345  0.0139 -0.6589 -0.5523
  124OSM    C1S13178   6.573   2.845   6.568  0.0694  0.1073  1.0233
  124OSM    H1S13179   6.513   2.937   6.586 -0.0140  0.2319  0.1672
  124OSM    H1T13180   6.682   2.869   6.568  0.1989 -0.4466  0.3792
  124OSM     NF13181   6.537   2.804   6.805 -0.2384  0.4325  0.1250
  124OSM    HNF13182   6.605   2.757   6.861 -0.3752  0.8671  0.6656
  124OSM    C2S13183   6.512   2.749   6.671  0.0811  0.1312 -0.5945
  124OSM    H2S13184   6.403   2.733   6.657  0.2185  1.2346 -3.3997
  124OSM    C3S13185   6.572   2.602   6.647  0.1273  0.1670 -0.1154
  124OSM    H3S13186   6.673   2.606   6.695  0.1692  1.2452 -0.2763
  124OSM     O313187   6.603   2.569   6.512  0.6215 -0.6309  0.0274
  124OSM    HO313188   6.590   2.658   6.478 -2.6095 -0.8317  0.4482
  124OSM    C4S13189   6.496   2.503   6.737 -0.1796 -0.4259  0.2187
  124OSM    H4S13190   6.518   2.507   6.845 -0.3775  0.8418  0.2328
  124OSM    C5S13191   6.391   2.427   6.694 -0.1011  0.2301 -0.7073
  124OSM    H5S13192   6.357   2.433   6.589 -0.3436  0.3965 -0.6188
  124OSM    C6S13193   6.322   2.327   6.785 -0.1910 -0.3885  0.4887
  124OSM    H6S13194   6.394   2.243   6.794 -1.6014 -1.5875  1.0483
  124OSM    H6T13195   6.229   2.290   6.738 -0.3540 -1.8156  1.8458
  124OSM    C7S13196   6.284   2.384   6.924  0.1746  0.3636  0.3037
  124OSM    H7S13197   6.208   2.464   6.925 -0.4841 -0.2473  1.7923
  124OSM    H7T13198   6.367   2.440   6.971 -0.3215  0.0320  1.6266
  124OSM    C8S13199   6.243   2.268   7.021  0.1425 -0.7187 -0.0889
  124OSM    H8S13200   6.242   2.174   6.962  0.9310 -0.4572 -0.5276
  124OSM    H8T13201   6.147   2.283   7.075  1.2473 -1.6177  2.2775
  124OSM    C9S13202   6.351   2.249   7.124  0.0095  0.4234  0.3059
  124OSM    H9S13203   6.377   2.341   7.181 -0.0366  1.1458 -0.8069
  124OSM    H9T13204   6.439   2.215   7.065  0.2364  0.4215  0.6409
  124OSM   C10S13205   6.306   2.147   7.228  0.0279  0.2342 -0.1602
  124OSM   H10S13206   6.265   2.062   7.169  0.0340 -1.1653  1.7462
  124OSM   H10T13207   6.224   2.191   7.289  0.6900 -0.6133  1.4176
  124OSM   C11S13208   6.409   2.095   7.325  0.1791  0.4130  0.1660
  124OSM   H11S13209   6.478   2.170   7.369  1.6966 -1.0098  0.3145
  124OSM   H11T13210   6.482   2.033   7.269  0.4931  2.2535 -1.6137
  124OSM   C12S13211   6.337   2.015   7.434 -0.6840 -0.2776 -0.1084
  124OSM   H12S13212   6.284   1.931   7.385 -1.1853  0.2057 -0.4138
  124OSM   H12T13213   6.251   2.070   7.479 -2.6748 -0.7061 -3.1140
  124OSM   C13S13214   6.440   1.947   7.531 -0.0164 -0.3365 -0.0348
  124OSM   H13S13215   6.532   1.935   7.471  0.1292 -0.8226  0.2774
  124OSM   H13T13216   6.410   1.844   7.560 -0.3513 -0.2426 -0.0392
  124OSM   C14S13217   6.461   2.034   7.661  0.4764 -1.0212  0.3583
  124OSM   H14S13218   6.424   2.138   7.648  0.7457 -1.0220 -0.4808
  124OSM   H14T13219   6.569   2.038   7.688  0.5658  2.4853 -0.0753
  124OSM   C15S13220   6.390   1.977   7.785  0.0378 -0.4387  0.5639
  124OSM   H15S13221   6.405   1.868   7.802  0.3574 -0.3564  0.8153
  124OSM   H15T13222   6.281   1.994   7.771  0.4229  0.4906 -1.8362
  124OSM   C16S13223   6.438   2.052   7.909 -0.0506  0.6133  0.1016
  124OSM   H16S13224   6.452   2.161   7.893  0.6477  0.9016  2.2883
  124OSM   H16T13225   6.539   2.015   7.935 -0.0146  0.9297  0.4310
  124OSM   C17S13226   6.346   2.032   8.030  0.4361  0.5033 -0.5899
  124OSM   H17S13227   6.329   1.924   8.051 -2.4089  1.3336  2.1373
  124OSM   H17T13228   6.243   2.059   7.997 -0.7500 -2.4092  0.4264
  124OSM   C18S13229   6.376   2.099   8.167 -0.6283  0.5272  0.4965
  124OSM   H18S13230   6.460   2.059   8.228 -0.3244  2.6880  1.5722
  124OSM   H18T13231   6.285   2.088   8.229  0.0001  1.0362  1.5289
  124OSM   H18U13232   6.401   2.207   8.161  1.2563  0.0789 -0.3413
  124OSM    C1F13233   6.470   2.915   6.836 -0.5676 -0.4902  0.0517
  124OSM     OF13234   6.370   2.945   6.772  0.0445  0.5066 -0.1540
  124OSM    C2F13235   6.513   2.995   6.950 -0.8476  0.2171  0.4201
  124OSM    H2F13236   6.614   2.956   6.976 -1.2740 -0.4903  1.0815
  124OSM    H2G13237   6.440   2.982   7.033 -1.7895  1.3130 -0.2134
  124OSM    C3F13238   6.534   3.145   6.933  0.0534  0.0316  0.3503
  124OSM    H3F13239   6.437   3.197   6.920 -0.5361 -1.1015  0.0459
  124OSM    H3G13240   6.597   3.160   6.843  1.1779  0.9581  1.2626
  124OSM    C4F13241   6.608   3.212   7.050 -0.2016  0.0437 -0.0050
  124OSM    H4F13242   6.643   3.316   7.029  2.0880 -0.7141 -0.2011
  124OSM    H4G13243   6.699   3.153   7.072  2.0160  2.8166 -1.1550
  124OSM    C5F13244   6.517   3.211   7.177  0.9613  0.5141  0.1415
  124OSM    H5F13245   6.490   3.105   7.192 -1.3613  0.8550 -1.2755
  124OSM    H5G13246   6.422   3.265   7.159 -0.6534 -1.5312  1.9206
  124OSM    C6F13247   6.595   3.255   7.300 -0.2042  0.6124  0.1605
  124OSM    H6F13248   6.624   3.358   7.273  0.7466  0.5898  1.0238
  124OSM    H6G13249   6.686   3.194   7.320 -0.9973 -0.2535  1.2428
  124OSM    C7F13250   6.507   3.262   7.434 -0.2594 -0.0933  0.5063
  124OSM    H7F13251   6.513   3.159   7.475  2.4140  0.2083  1.0741
  124OSM    H7G13252   6.402   3.291   7.410  0.1376  0.7589 -0.2855
  124OSM    C8F13253   6.566   3.364   7.535 -0.0191  0.0812  0.4591
  124OSM    H8F13254   6.607   3.459   7.495  0.6407 -0.1560  0.5552
  124OSM    H8G13255   6.658   3.308   7.563 -0.7950 -0.5643  1.8067
  124OSM    C9F13256   6.474   3.385   7.647 -0.8361 -0.3917  0.4881
  124OSM    H9F13257   6.379   3.434   7.619 -2.0135 -2.6637  0.3353
  124OSM   C10F13258   6.486   3.351   7.776  0.1275 -0.7123  0.3250
  124OSM   H10F13259   6.404   3.381   7.843 -0.0855  0.1334 -0.3060
  124OSM   C11F13260   6.596   3.277   7.838  0.1827 -0.0214  0.0640
  124OSM   H11F13261   6.695   3.293   7.791 -1.0310  3.5568 -1.6300
  124OSM   H11G13262   6.558   3.172   7.832 -3.0989  0.9498  1.4638
  124OSM   C12F13263   6.615   3.311   7.985 -0.3702 -0.2839  0.5025
  124OSM   H12F13264   6.514   3.310   8.032 -0.4823  0.1598  0.2792
  124OSM   H12G13265   6.648   3.416   7.998  0.8735 -0.3842 -1.4368
  124OSM   C13F13266   6.705   3.212   8.060  0.2269 -0.3586 -0.6493
  124OSM   H13F13267   6.733   3.243   8.162 -0.6962 -0.2615 -0.4155
  124OSM   H13G13268   6.802   3.193   8.009  1.9067 -1.0826  2.5997
  124OSM   C14F13269   6.639   3.073   8.085  0.0500 -0.6654  0.5140
  124OSM   H14F13270   6.711   2.998   8.122 -1.3905 -1.2745  2.2084
  124OSM   H14G13271   6.595   3.042   7.988 -3.8171  2.6137  0.9425
  124OSM   C15F13272   6.527   3.079   8.187 -0.4450 -0.4707 -0.3845
  124OSM   H15F13273   6.430   3.088   8.133 -0.4436 -0.2470 -0.3529
  124OSM   H15G13274   6.542   3.170   8.249 -2.3381  0.5338 -1.3202
  124OSM   C16F13275   6.531   2.957   8.275  0.1065 -0.6325  0.4122
  124OSM   H16F13276   6.624   2.963   8.336 -1.5150  3.7513  2.8081
  124OSM   H16G13277   6.543   2.869   8.208 -0.4083  0.0759 -0.6402
  124OSM   C17F13278   6.406   2.944   8.363 -1.1918  0.2020  0.6394
  124OSM   H17F13279   6.382   2.836   8.359  2.1040 -0.8112  3.3379
  124OSM   H17G13280   6.321   3.005   8.326 -0.3176  0.2156 -1.5445
  124OSM   C18F13281   6.430   2.987   8.508 -0.6006  0.4163 -0.4108
  124OSM   H18F13282   6.448   3.096   8.503  0.2229  0.5296  2.6577
  124OSM   H18G13283   6.529   2.942   8.535  0.1407 -0.2557 -3.7631
  124OSM   H18H13284   6.349   2.960   8.579  0.7199 -3.6121 -0.1627
  125OSM      N13285   6.099   3.920   6.392  0.0503  0.4270 -0.4476
  125OSM    C1513286   5.961   3.968   6.352  0.0224 -0.3347  0.0762
  125OSM   H15A13287   5.928   3.927   6.259 -0.9645 -0.0233  0.2794
  125OSM   H15B13288   5.959   4.075   6.338 -0.4937 -0.3795 -0.2180
  125OSM   H15C13289   5.883   3.951   6.425 -0.6937 -1.6068 -0.9427
  125OSM    C1413290   6.201   3.997   6.320 -0.1032  0.0740  0.5337
  125OSM   H14A13291   6.304   3.968   6.337 -0.2817 -0.3831  0.8697
  125OSM   H14B13292   6.191   4.101   6.345 -0.2077  0.4655 -1.0381
  125OSM   H14C13293   6.186   3.981   6.214 -0.7684  1.8556  0.3313
  125OSM    C1313294   6.128   3.959   6.535  0.0263  0.0418  0.2796
  125OSM   H13A13295   6.051   3.927   6.605 -0.2869 -1.9603 -0.9028
  125OSM   H13B13296   6.123   4.066   6.547 -3.1463 -0.0477  0.6519
  125OSM   H13C13297   6.224   3.918   6.561  0.5061  2.4572  2.8703
  125OSM    C1213298   6.114   3.772   6.374  0.6457 -0.0745 -0.4721
  125OSM   H12A13299   6.111   3.742   6.270  0.1352  0.4295 -0.6069
  125OSM   H12B13300   6.023   3.729   6.412  1.8155 -0.1339  2.5219
  125OSM    C1113301   6.224   3.695   6.457  0.2283  0.0873 -0.4972
  125OSM   H11A13302   6.205   3.586   6.446 -0.0906 -0.2349  2.2980
  125OSM   H11B13303   6.221   3.713   6.567  0.1564  1.1682 -0.6675
  125OSM      P13304   6.435   3.636   6.309 -0.6803  0.2101 -0.0790
  125OSM    O1313305   6.338   3.568   6.215 -0.2565 -0.0150 -0.3037
  125OSM    O1413306   6.537   3.726   6.249  0.3985  0.1091 -0.3405
  125OSM    O1113307   6.516   3.530   6.391 -0.5577 -0.4798 -0.1790
  125OSM    O1213308   6.355   3.729   6.408  0.4562 -0.3502 -0.0035
  125OSM    C1S13309   6.639   3.568   6.466  0.3136  0.2574  0.3789
  125OSM    H1S13310   6.688   3.658   6.425 -0.7723  1.1617  1.0071
  125OSM    H1T13311   6.717   3.489   6.468  1.3662  1.2832  0.9244
  125OSM     NF13312   6.699   3.655   6.685  0.0358  0.1013  0.0052
  125OSM    HNF13313   6.761   3.591   6.730  0.6486 -0.4876 -1.6258
  125OSM    C2S13314   6.590   3.597   6.610  0.9138  0.1706 -0.5543
  125OSM    H2S13315   6.513   3.677   6.607  2.7194  2.0071 -0.0133
  125OSM    C3S13316   6.539   3.463   6.675  0.2280  0.1050  0.1003
  125OSM    H3S13317   6.630   3.402   6.659  1.6456  2.0556  0.3085
  125OSM     O313318   6.436   3.389   6.618 -0.4694 -0.7648  0.1322
  125OSM    HO313319   6.437   3.423   6.528 -0.7179 -1.3657 -0.1070
  125OSM    C4S13320   6.506   3.494   6.819  0.0027  0.7767 -0.8386
  125OSM    H4S13321   6.573   3.446   6.892 -0.5719 -3.2878 -2.7304
  125OSM    C5S13322   6.396   3.565   6.861 -0.2857 -0.5892 -0.5243
  125OSM    H5S13323   6.321   3.601   6.789 -1.1677  1.2259  1.2033
  125OSM    C6S13324   6.359   3.610   7.001 -0.3457 -0.4799  0.1345
  125OSM    H6S13325   6.438   3.581   7.073 -0.5401  2.2334  1.5507
  125OSM    H6T13326   6.259   3.564   7.019 -0.8212 -0.1180 -1.3814
  125OSM    C7S13327   6.327   3.761   7.020 -0.0352  0.3291 -0.6304
  125OSM    H7S13328   6.251   3.788   6.944 -0.2825 -0.1110 -0.5390
  125OSM    H7T13329   6.406   3.838   7.005 -1.1879  1.3457 -1.7286
  125OSM    C8S13330   6.298   3.776   7.170  0.1651  0.8589  0.1028
  125OSM    H8S13331   6.236   3.691   7.205  1.9062  1.0125  4.1329
  125OSM    H8T13332   6.238   3.869   7.177  0.1342  0.7855  0.8824
  125OSM    C9S13333   6.418   3.792   7.258 -0.7201  0.2990  0.5291
  125OSM    H9S13334   6.467   3.891   7.245 -0.7974  0.4076  1.0318
  125OSM    H9T13335   6.489   3.717   7.217 -0.6461 -0.0918  1.3487
  125OSM   C10S13336   6.393   3.770   7.402 -0.1623  1.0405 -0.5173
  125OSM   H10S13337   6.361   3.663   7.409  1.0023  0.6937 -0.3209
  125OSM   H10T13338   6.305   3.828   7.435 -1.8576  0.0456 -2.9498
  125OSM   C11S13339   6.511   3.789   7.505  0.8845  0.2505  0.2353
  125OSM   H11S13340   6.560   3.889   7.501 -0.3928  0.9643  1.4814
  125OSM   H11T13341   6.587   3.712   7.480  1.0572  0.5469 -0.1728
  125OSM   C12S13342   6.448   3.772   7.645 -0.1840  0.3674 -0.0273
  125OSM   H12S13343   6.398   3.673   7.647  0.4189  0.0558 -0.4202
  125OSM   H12T13344   6.368   3.847   7.667 -0.1578  0.0311  1.3079
  125OSM   C13S13345   6.549   3.770   7.759 -0.3839 -0.2917  0.3151
  125OSM   H13S13346   6.578   3.877   7.771 -0.9977 -0.3029  2.1647
  125OSM   H13T13347   6.632   3.704   7.725 -1.2136 -0.8775 -0.6159
  125OSM   C14S13348   6.485   3.724   7.891  0.1817 -0.0335  0.5570
  125OSM   H14S13349   6.455   3.617   7.880  1.7502 -0.5818  1.2717
  125OSM   H14T13350   6.389   3.779   7.908  0.1425  0.2577 -0.5483
  125OSM   C15S13351   6.578   3.732   8.008 -0.3771  0.0616 -0.5445
  125OSM   H15S13352   6.602   3.838   8.030  0.3199 -0.2160  0.0762
  125OSM   H15T13353   6.675   3.687   7.978 -0.9804 -0.5295 -1.6952
  125OSM   C16S13354   6.515   3.666   8.132  0.0210 -0.7701 -0.3023
  125OSM   H16S13355   6.460   3.578   8.093 -4.0896  0.8540  1.2484
  125OSM   H16T13356   6.436   3.731   8.176  0.9819  0.2248  0.0206
  125OSM   C17S13357   6.616   3.618   8.238 -0.3982 -0.0450 -0.0365
  125OSM   H17S13358   6.644   3.712   8.290 -1.9392 -0.5196  1.7247
  125OSM   H17T13359   6.708   3.572   8.196 -0.4580 -3.0024  2.7340
  125OSM   C18S13360   6.553   3.528   8.342 -0.2799  0.9683  0.1501
  125OSM   H18S13361   6.617   3.484   8.422 -2.3206 -1.1732  0.7229
  125OSM   H18T13362   6.519   3.437   8.288  0.2857  0.8622 -0.0410
  125OSM   H18U13363   6.467   3.581   8.386 -1.1328 -0.1912 -0.0893
  125OSM    C1F13364   6.734   3.780   6.668  0.2993  0.1418  0.4339
  125OSM     OF13365   6.674   3.851   6.588  0.3679 -0.1736 -0.3157
  125OSM    C2F13366   6.852   3.829   6.738  0.8288 -0.6175 -0.4037
  125OSM    H2F13367   6.915   3.861   6.653  0.2836 -0.7256 -0.8569
  125OSM    H2G13368   6.913   3.755   6.794  3.0837  1.9476  0.7726
  125OSM    C3F13369   6.814   3.937   6.840  0.2090  0.4768  0.1024
  125OSM    H3F13370   6.723   3.905   6.894  0.7311 -1.5705 -0.1802
  125OSM    H3G13371   6.786   4.028   6.781  0.6317 -0.1463 -1.0957
  125OSM    C4F13372   6.921   3.962   6.948  0.5222 -0.1832 -0.1247
  125OSM    H4F13373   7.013   4.000   6.899 -0.0694 -1.3832 -2.3057
  125OSM    H4G13374   6.938   3.864   6.999  0.7969  0.0755  0.2818
  125OSM    C5F13375   6.884   4.068   7.054 -0.8967  0.0325  0.1526
  125OSM    H5F13376   6.873   4.166   7.004  0.1120 -0.9520 -2.1518
  125OSM    H5G13377   6.974   4.067   7.119 -1.8073  1.9968  1.5375
  125OSM    C6F13378   6.750   4.031   7.123 -0.5337  0.0148  0.2734
  125OSM    H6F13379   6.769   3.940   7.184  1.8025 -1.0501 -1.8527
  125OSM    H6G13380   6.668   4.005   7.053 -0.5784 -0.3773  0.4701
  125OSM    C7F13381   6.702   4.140   7.223  0.6050 -0.3539 -0.1820
  125OSM    H7F13382   6.604   4.112   7.268  0.0839  1.7861  0.1597
  125OSM    H7G13383   6.690   4.234   7.164  2.0423  0.8917  1.3801
  125OSM    C8F13384   6.815   4.155   7.327  0.0029 -0.1850 -0.1102
  125OSM    H8F13385   6.877   4.242   7.296 -0.2051  0.3948  1.0642
  125OSM    H8G13386   6.883   4.068   7.330  0.6480  0.3249  2.1871
  125OSM    C9F13387   6.767   4.189   7.460  0.2906  0.3381  0.0098
  125OSM    H9F13388   6.708   4.282   7.459 -0.1425  0.0764 -1.4883
  125OSM   C10F13389   6.780   4.122   7.579  0.1012  0.0417  0.1631
  125OSM   H10F13390   6.724   4.162   7.665  0.3610  1.1978 -0.1936
  125OSM   C11F13391   6.839   3.989   7.598  0.0682 -0.3916 -0.3806
  125OSM   H11F13392   6.869   3.947   7.500  2.0113 -1.9026  0.7975
  125OSM   H11G13393   6.757   3.920   7.629 -1.5520  1.6036  0.0229
  125OSM   C12F13394   6.948   3.990   7.708  0.1716  0.5024  1.2197
  125OSM   H12F13395   7.015   4.070   7.670  0.2422  0.3434  1.0086
  125OSM   H12G13396   7.000   3.893   7.694 -0.7257  0.2399 -0.5410
  125OSM   C13F13397   6.892   4.017   7.848 -0.4661 -0.2448 -0.2201
  125OSM   H13F13398   6.781   4.014   7.841 -0.4644  0.0288 -0.3866
  125OSM   H13G13399   6.930   4.115   7.885 -0.2732 -0.9729  1.6009
  125OSM   C14F13400   6.947   3.916   7.941 -0.2187 -0.2685 -0.3836
  125OSM   H14F13401   7.053   3.889   7.922 -0.0808  0.4190 -0.6285
  125OSM   H14G13402   6.905   3.816   7.920  1.1769 -1.0800  0.5464
  125OSM   C15F13403   6.930   3.957   8.088 -0.1357  0.1317 -0.2106
  125OSM   H15F13404   6.831   4.007   8.089 -0.6785 -0.8790 -1.3768
  125OSM   H15G13405   7.010   4.023   8.130 -0.1427  0.0316 -0.0368
  125OSM   C16F13406   6.930   3.838   8.189  0.8149 -0.3525  0.4556
  125OSM   H16F13407   7.035   3.806   8.203  0.5818 -0.0758  3.5254
  125OSM   H16G13408   6.881   3.744   8.155  0.9462 -0.0894 -0.4887
  125OSM   C17F13409   6.877   3.870   8.335  0.0083  0.4156  0.4113
  125OSM   H17F13410   6.769   3.893   8.324 -0.3028 -1.9179 -3.2097
  125OSM   H17G13411   6.939   3.954   8.371 -0.7636  1.5160 -0.7574
  125OSM   C18F13412   6.895   3.764   8.442 -0.2357  0.2456 -0.4302
  125OSM   H18F13413   6.991   3.709   8.435 -0.7129 -1.0809  2.0259
  125OSM   H18G13414   6.821   3.683   8.425  0.7837 -0.6074 -0.9179
  125OSM   H18H13415   6.887   3.803   8.546  0.7650  2.5007 -1.1447
  126OSM      N13416   5.579   4.604   6.410  0.1714  0.1990  0.0507
  126OSM    C1513417   5.562   4.682   6.279  0.1130  0.3060 -0.8083
  126OSM   H15A13418   5.597   4.605   6.212 -0.7825 -2.8832  2.0803
  126OSM   H15B13419   5.627   4.768   6.275  0.6411  0.0057  0.6970
  126OSM   H15C13420   5.460   4.708   6.256  0.4526  1.6991 -0.8218
  126OSM    C1413421   5.714   4.643   6.473  0.2773 -0.1590  0.3308
  126OSM   H14A13422   5.733   4.749   6.469 -2.9336  0.5168 -0.1420
  126OSM   H14B13423   5.796   4.598   6.419 -0.6160 -1.5494  0.0754
  126OSM   H14C13424   5.731   4.605   6.573 -0.2260 -0.8116  0.1811
  126OSM    C1313425   5.465   4.642   6.502  0.0896 -0.5600 -0.1439
  126OSM   H13A13426   5.374   4.590   6.477  0.7967 -0.3243 -3.7193
  126OSM   H13B13427   5.428   4.741   6.481  0.5890 -0.0815  1.1356
  126OSM   H13C13428   5.493   4.651   6.606 -1.1832 -1.4675  0.3106
  126OSM    C1213429   5.586   4.459   6.376 -0.6985  0.4743 -0.5587
  126OSM   H12A13430   5.624   4.398   6.457 -0.8710  0.9942 -0.0836
  126OSM   H12B13431   5.671   4.446   6.311 -0.2710  0.0492  0.0596
  126OSM    C1113432   5.461   4.381   6.328 -0.1219  0.4099  0.3620
  126OSM   H11A13433   5.489   4.276   6.308  0.7923  0.4854  1.1962
  126OSM   H11B13434   5.440   4.418   6.225 -0.4096 -2.2008 -0.5768
  126OSM      P13435   5.359   4.294   6.551 -0.0956 -0.0152 -0.5645
  126OSM    O1313436   5.307   4.163   6.523  0.4276  0.2643  0.3775
  126OSM    O1413437   5.495   4.293   6.610 -0.1148  0.1296 -0.7707
  126OSM    O1113438   5.255   4.365   6.644  0.3054  0.0042  0.2033
  126OSM    O1213439   5.356   4.386   6.422 -0.2643 -0.1412 -0.2244
  126OSM    C1S13440   5.115   4.345   6.657  0.2410 -0.4187  0.1524
  126OSM    H1S13441   5.073   4.270   6.586  1.2894  0.3507 -1.3474
  126OSM    H1T13442   5.064   4.438   6.623 -3.2656 -1.6286  1.7200
  126OSM     NF13443   4.916   4.320   6.787 -0.2257 -0.4186 -0.1037
  126OSM    HNF13444   4.846   4.389   6.804 -1.4830 -1.6227 -0.2493
  126OSM    C2S13445   5.057   4.342   6.804 -0.4817  0.1214  0.7332
  126OSM    H2S13446   5.106   4.250   6.843 -1.4743 -1.7217 -2.0480
  126OSM    C3S13447   5.105   4.466   6.886  0.2377  0.4719  0.5192
  126OSM    H3S13448   5.081   4.553   6.820  2.4761 -0.5932 -1.8916
  126OSM     O313449   5.246   4.482   6.907  0.0302  0.0598  0.6332
  126OSM    HO313450   5.274   4.437   6.827  1.3714 -0.4070  1.3206
  126OSM    C4S13451   5.052   4.463   7.021 -0.8489  0.5049 -0.3885
  126OSM    H4S13452   4.970   4.535   7.033 -0.4175  1.1501 -1.1734
  126OSM    C5S13453   5.097   4.393   7.126 -0.6427  0.1753 -0.0289
  126OSM    H5S13454   5.188   4.332   7.116 -0.0532  0.5202  2.6282
  126OSM    C6S13455   5.036   4.394   7.264 -0.5946  0.2490  0.3458
  126OSM    H6S13456   5.110   4.430   7.339 -0.7612 -1.7788  1.5360
  126OSM    H6T13457   5.014   4.290   7.297 -0.3511 -0.3651 -1.3397
  126OSM    C7S13458   4.907   4.482   7.278  0.6897  0.2032 -0.5122
  126OSM    H7S13459   4.826   4.446   7.211  0.3225  0.0200  0.0249
  126OSM    H7T13460   4.916   4.592   7.265  2.2309  0.3490  1.3442
  126OSM    C8S13461   4.853   4.471   7.419  0.9526 -0.1001 -0.0492
  126OSM    H8S13462   4.816   4.370   7.445  2.0571 -0.3415  0.6412
  126OSM    H8T13463   4.764   4.538   7.426  0.1664 -1.2252  1.3050
  126OSM    C9S13464   4.942   4.520   7.538  0.2999 -0.4756  0.0191
  126OSM    H9S13465   4.960   4.629   7.533 -2.6030  0.0940  0.5314
  126OSM    H9T13466   5.044   4.474   7.537  0.9486  0.8938  0.6253
  126OSM   C10S13467   4.881   4.506   7.678 -0.3772  0.1830 -0.0543
  126OSM   H10S13468   4.857   4.398   7.690  0.4058  0.1757  1.7436
  126OSM   H10T13469   4.785   4.559   7.690 -0.5860 -0.4183  1.0704
  126OSM   C11S13470   4.981   4.542   7.791  0.1387  0.1425  0.0566
  126OSM   H11S13471   5.021   4.645   7.784  1.1978 -0.1096  1.8222
  126OSM   H11T13472   5.069   4.476   7.776  1.1413  1.6114 -0.8270
  126OSM   C12S13473   4.930   4.522   7.931  1.0087  0.3958  0.0669
  126OSM   H12S13474   4.896   4.416   7.932 -0.4127  0.8285  1.2547
  126OSM   H12T13475   4.842   4.584   7.957  0.2334 -0.8282  0.4508
  126OSM   C13S13476   5.038   4.541   8.032 -0.5369 -0.3421 -0.5950
  126OSM   H13S13477   5.080   4.644   8.023  1.2117 -1.0264 -0.6484
  126OSM   H13T13478   5.129   4.482   8.006  1.1250  1.9174 -0.2362
  126OSM   C14S13479   5.015   4.503   8.178  0.8568 -0.1982 -0.0113
  126OSM   H14S13480   4.904   4.500   8.192  0.3069 -1.2333 -3.6389
  126OSM   H14T13481   5.060   4.570   8.254  2.4925 -3.2240  1.9122
  126OSM   C15S13482   5.066   4.356   8.207  0.6983 -0.1271 -0.6069
  126OSM   H15S13483   5.170   4.359   8.246  1.2628  0.8299 -2.0654
  126OSM   H15T13484   5.053   4.288   8.121  0.7766 -1.8170  0.6760
  126OSM   C16S13485   4.987   4.295   8.332  0.4928 -0.0827  0.6042
  126OSM   H16S13486   4.881   4.288   8.302  0.7897 -1.1035 -0.2851
  126OSM   H16T13487   5.011   4.364   8.416  1.0879 -2.0738  2.1411
  126OSM   C17S13488   5.048   4.165   8.372  0.5098  0.3580  0.0358
  126OSM   H17S13489   5.154   4.187   8.396  1.1402  0.0740 -2.2508
  126OSM   H17T13490   5.049   4.100   8.281  0.7613  1.9664 -1.1647
  126OSM   C18S13491   4.963   4.093   8.470 -0.5339  0.2004 -0.1709
  126OSM   H18S13492   4.866   4.047   8.441  0.9636 -3.2200 -0.2230
  126OSM   H18T13493   4.932   4.166   8.549  0.7198 -1.8258  2.3381
  126OSM   H18U13494   5.012   4.011   8.527 -3.5644 -2.0968 -0.6108
  126OSM    C1F13495   4.875   4.201   6.729 -0.5338  0.1105  0.7946
  126OSM     OF13496   4.952   4.107   6.725 -0.0999  0.6471 -0.0146
  126OSM    C2F13497   4.737   4.198   6.680  0.6772 -0.3295  0.5640
  126OSM    H2F13498   4.729   4.128   6.594 -1.5250  1.0860 -0.4761
  126OSM    H2G13499   4.700   4.298   6.650 -0.4796  0.1225  3.2215
  126OSM    C3F13500   4.635   4.139   6.785  0.2032 -0.2738  0.0931
  126OSM    H3F13501   4.663   4.032   6.794  0.9080 -0.0992  0.0377
  126OSM    H3G13502   4.537   4.128   6.734 -0.1418 -2.6452  1.1331
  126OSM    C4F13503   4.602   4.224   6.904 -0.9132 -0.4901  0.6732
  126OSM    H4F13504   4.589   4.329   6.873 -1.5547 -0.6376  0.4147
  126OSM    H4G13505   4.697   4.215   6.960 -0.0211  2.4981 -0.2074
  126OSM    C5F13506   4.477   4.193   6.987  0.0483  0.3656  0.2603
  126OSM    H5F13507   4.467   4.087   7.018 -0.9037 -0.6991 -3.2037
  126OSM    H5G13508   4.391   4.229   6.925 -0.1806  3.4928  2.1878
  126OSM    C6F13509   4.479   4.281   7.116  0.4768  0.2619  0.1431
  126OSM    H6F13510   4.447   4.382   7.084 -1.8066 -0.7379 -0.9720
  126OSM    H6G13511   4.580   4.279   7.162  0.9169  3.1553 -0.5481
  126OSM    C7F13512   4.379   4.235   7.220  0.1994 -0.5227  0.1850
  126OSM    H7F13513   4.386   4.138   7.274  2.9268  0.8733  2.6461
  126OSM    H7G13514   4.278   4.248   7.176  1.1942  1.5916 -1.6701
  126OSM    C8F13515   4.377   4.333   7.338 -0.1579  0.0858 -0.0240
  126OSM    H8F13516   4.286   4.323   7.400  0.5925 -1.2031  0.9445
  126OSM    H8G13517   4.371   4.437   7.301 -1.1667 -0.4955 -1.6212
  126OSM    C9F13518   4.503   4.313   7.434 -0.2199 -0.0105 -0.1535
  126OSM    H9F13519   4.604   4.334   7.397  0.7394 -1.0203  1.7535
  126OSM   C10F13520   4.495   4.274   7.560 -0.0215 -0.0284 -0.3214
  126OSM   H10F13521   4.586   4.262   7.621 -1.6930  0.3366  2.4304
  126OSM   C11F13522   4.375   4.238   7.652  0.1404 -0.8018 -0.8219
  126OSM   H11F13523   4.312   4.156   7.611  1.2563 -1.2651 -1.6631
  126OSM   H11G13524   4.306   4.325   7.655 -0.7857 -1.5207 -0.8819
  126OSM   C12F13525   4.395   4.208   7.806  0.0477 -0.0602  0.8606
  126OSM   H12F13526   4.447   4.111   7.820  1.1998  0.4030  0.0435
  126OSM   H12G13527   4.300   4.214   7.862 -0.7887 -1.1792 -0.3717
  126OSM   C13F13528   4.479   4.322   7.870 -0.1539 -0.2726 -0.0280
  126OSM   H13F13529   4.441   4.421   7.838 -0.0136 -0.9298 -2.3800
  126OSM   H13G13530   4.584   4.322   7.836 -0.9174  2.9233 -2.9846
  126OSM   C14F13531   4.475   4.315   8.024 -0.0560  0.8531 -0.1121
  126OSM   H14F13532   4.372   4.352   8.040  0.3060  0.6754  3.3331
  126OSM   H14G13533   4.550   4.385   8.067 -0.6694 -0.1604  2.8005
  126OSM   C15F13534   4.497   4.167   8.084  0.0906 -0.3430 -0.2209
  126OSM   H15F13535   4.598   4.133   8.056  0.9795  1.2764  0.8212
  126OSM   H15G13536   4.424   4.096   8.040  0.2326 -0.0818 -0.8776
  126OSM   C16F13537   4.480   4.171   8.239  0.3732 -0.4838  0.0905
  126OSM   H16F13538   4.441   4.078   8.284  0.0072 -0.6026 -0.4608
  126OSM   H16G13539   4.398   4.242   8.261  1.6477  1.7725 -1.8957
  126OSM   C17F13540   4.602   4.206   8.323  0.0180 -0.0894  0.2360
  126OSM   H17F13541   4.645   4.305   8.299  0.3831  0.0367  1.3745
  126OSM   H17G13542   4.680   4.132   8.297 -1.1704 -1.2516 -0.1608
  126OSM   C18F13543   4.579   4.212   8.475  0.3238 -0.0518 -0.7217
  126OSM   H18F13544   4.501   4.287   8.500  1.7843  1.2036  0.2716
  126OSM   H18G13545   4.671   4.232   8.533 -0.1044 -0.6040  0.1666
  126OSM   H18H13546   4.537   4.116   8.510  1.2279 -0.0415  0.4403
  127OSM      N13547   5.738   1.812   6.243 -0.1630  0.2699 -0.3097
  127OSM    C1513548   5.708   1.924   6.339  0.7122 -0.2514  0.3189
  127OSM   H15A13549   5.651   2.000   6.287 -1.0991 -0.3026  2.1108
  127OSM   H15B13550   5.800   1.966   6.377  1.2197 -1.7788  0.8493
  127OSM   H15C13551   5.648   1.909   6.427  3.0468 -1.3974  1.8185
  127OSM    C1413552   5.766   1.871   6.115  0.8518  0.8251 -0.3376
  127OSM   H14A13553   5.676   1.925   6.093  0.4718  1.6869  2.7723
  127OSM   H14B13554   5.774   1.802   6.033  1.1520  1.0285 -0.4811
  127OSM   H14C13555   5.852   1.936   6.108  2.8843 -1.8768 -3.0474
  127OSM    C1313556   5.857   1.746   6.309 -0.0838  0.1428  0.5683
  127OSM   H13A13557   5.940   1.815   6.302  0.6063 -0.7832 -1.2361
  127OSM   H13B13558   5.873   1.650   6.262 -2.4113  0.0933 -0.2415
  127OSM   H13C13559   5.843   1.731   6.415 -0.8847 -0.6463  0.3642
  127OSM    C1213560   5.626   1.716   6.232 -0.4998  0.3088 -1.0610
  127OSM   H12A13561   5.541   1.775   6.203  0.4910  1.0777 -2.5493
  127OSM   H12B13562   5.609   1.676   6.331 -0.9390  1.9475 -0.4456
  127OSM    C1113563   5.631   1.600   6.133 -0.5665  0.1908  0.7103
  127OSM   H11A13564   5.673   1.628   6.033  0.1677  0.7330  1.1567
  127OSM   H11B13565   5.530   1.557   6.115  0.3275 -2.1152  0.9308
  127OSM      P13566   5.719   1.420   6.316 -0.0549 -0.2722  0.1505
  127OSM    O1313567   5.629   1.304   6.298  0.0294 -0.1843  0.1213
  127OSM    O1413568   5.859   1.401   6.363  0.1419 -0.2782  0.0494
  127OSM    O1113569   5.647   1.520   6.417  0.3530 -0.3280 -0.3445
  127OSM    O1213570   5.726   1.500   6.182  0.4809 -0.5402 -0.4350
  127OSM    C1S13571   5.583   1.482   6.537  0.5302 -0.2579  0.2893
  127OSM    H1S13572   5.524   1.393   6.506  0.2064 -0.0005  0.1553
  127OSM    H1T13573   5.513   1.564   6.566  0.2514 -0.2445 -0.3973
  127OSM     NF13574   5.585   1.414   6.774 -0.1356  0.1952 -0.7399
  127OSM    HNF13575   5.547   1.497   6.814  0.2943  0.8779 -1.6788
  127OSM    C2S13576   5.666   1.448   6.657  0.6097  0.0686 -0.1200
  127OSM    H2S13577   5.722   1.355   6.634 -1.5100 -1.0688 -0.9250
  127OSM    C3S13578   5.764   1.563   6.689 -0.2007  0.5665 -0.1441
  127OSM    H3S13579   5.711   1.660   6.679 -0.7579  0.4555  1.4182
  127OSM     O313580   5.872   1.575   6.591  0.3653  0.0731  0.7233
  127OSM    HO313581   5.842   1.524   6.516  1.0979  0.7038 -0.0177
  127OSM    C4S13582   5.821   1.564   6.832  0.2907  0.5092  0.0149
  127OSM    H4S13583   5.885   1.479   6.858 -0.3232  0.4748  1.4647
  127OSM    C5S13584   5.816   1.661   6.918 -0.0117  0.7035 -0.0248
  127OSM    H5S13585   5.772   1.759   6.894 -0.4642  0.6459  0.5563
  127OSM    C6S13586   5.875   1.662   7.061  0.2016 -0.4556  0.3214
  127OSM    H6S13587   5.811   1.725   7.126 -0.8777 -1.9833  0.8161
  127OSM    H6T13588   5.977   1.703   7.075 -0.8923  2.6305 -0.0427
  127OSM    C7S13589   5.872   1.516   7.119  0.6631  0.2031  0.4063
  127OSM    H7S13590   5.941   1.455   7.058  1.6833  1.7231 -0.0235
  127OSM    H7T13591   5.777   1.465   7.091  2.6563 -2.8527 -1.2960
  127OSM    C8S13592   5.894   1.509   7.263  0.1303  0.1745 -0.2371
  127OSM    H8S13593   5.849   1.423   7.317 -0.6991  1.4984  1.2775
  127OSM    H8T13594   5.845   1.597   7.312 -0.5011 -0.4032  0.1966
  127OSM    C9S13595   6.035   1.519   7.312 -1.1159  0.3149 -0.9970
  127OSM    H9S13596   6.110   1.594   7.277  0.8538 -0.7874  0.6168
  127OSM    H9T13597   6.074   1.421   7.276 -3.1998 -0.8783 -0.1669
  127OSM   C10S13598   6.047   1.524   7.463 -0.3820  0.4456  0.3422
  127OSM   H10S13599   6.154   1.499   7.480 -0.3219  0.5355  0.0979
  127OSM   H10T13600   5.994   1.437   7.507  0.2067  0.1860  0.5465
  127OSM   C11S13601   6.016   1.656   7.532 -0.0053 -0.2375  0.0781
  127OSM   H11S13602   5.928   1.634   7.597  0.0599  0.8418  0.5481
  127OSM   H11T13603   5.983   1.732   7.458 -0.1522 -0.8550 -0.5020
  127OSM   C12S13604   6.130   1.720   7.609 -0.2130 -0.4040  0.9399
  127OSM   H12S13605   6.108   1.823   7.641  0.6910  1.2736 -3.1227
  127OSM   H12T13606   6.215   1.743   7.541 -0.7731  1.8650  0.9211
  127OSM   C13S13607   6.180   1.638   7.728 -0.3343 -0.0310 -0.4784
  127OSM   H13S13608   6.267   1.686   7.779 -1.3733 -1.5458  3.0966
  127OSM   H13T13609   6.217   1.542   7.686 -1.1320 -0.1945 -0.8285
  127OSM   C14S13610   6.062   1.597   7.820 -0.4245 -0.4548 -0.4320
  127OSM   H14S13611   5.969   1.556   7.774 -1.5652  0.7931  0.6407
  127OSM   H14T13612   6.028   1.699   7.852  0.8255 -0.2555  0.3214
  127OSM   C15S13613   6.106   1.514   7.939 -0.6121  0.5843  0.0102
  127OSM   H15S13614   6.147   1.414   7.911  0.4036  0.6084  1.3116
  127OSM   H15T13615   6.023   1.496   8.011 -0.9240  1.8691 -0.0133
  127OSM   C16S13616   6.224   1.570   8.025  0.0102 -1.2229  0.5170
  127OSM   H16S13617   6.191   1.668   8.066  0.2882 -1.3148  0.9678
  127OSM   H16T13618   6.315   1.580   7.963  1.0036  1.8609  2.2515
  127OSM   C17S13619   6.270   1.485   8.146  0.0849 -0.9969  0.3120
  127OSM   H17S13620   6.308   1.384   8.117 -1.3447 -1.7302  0.9246
  127OSM   H17T13621   6.182   1.472   8.211  0.0669  0.5822  0.6420
  127OSM   C18S13622   6.378   1.554   8.238 -0.1432  0.5178 -0.0606
  127OSM   H18S13623   6.406   1.496   8.329  1.3701  0.3032 -0.6279
  127OSM   H18T13624   6.337   1.656   8.251 -3.3400 -0.6924  0.2001
  127OSM   H18U13625   6.474   1.555   8.180 -1.4120  0.8416 -2.2683
  127OSM    C1F13626   5.529   1.294   6.785 -0.0448  0.2828 -0.2838
  127OSM     OF13627   5.567   1.203   6.711 -0.2244  0.2421 -0.2546
  127OSM    C2F13628   5.416   1.274   6.884  0.2063 -0.1651  0.7606
  127OSM    H2F13629   5.321   1.276   6.826  0.7227  1.6486 -0.1198
  127OSM    H2G13630   5.423   1.348   6.967 -1.0639  0.3329  0.4429
  127OSM    C3F13631   5.437   1.131   6.944 -0.1536 -0.3439 -0.1895
  127OSM    H3F13632   5.543   1.127   6.977 -0.5491 -1.6146  1.0499
  127OSM    H3G13633   5.407   1.049   6.875  1.3938 -0.8235 -0.3232
  127OSM    C4F13634   5.364   1.102   7.076  0.0124 -0.0837 -0.3368
  127OSM    H4F13635   5.381   0.995   7.101 -0.5914  0.2088  1.5686
  127OSM    H4G13636   5.255   1.112   7.058  0.5011  1.8562 -2.8182
  127OSM    C5F13637   5.399   1.200   7.192  0.1799 -0.1342 -0.3602
  127OSM    H5F13638   5.356   1.301   7.171  1.5154 -0.0881 -3.5872
  127OSM    H5G13639   5.510   1.211   7.194  0.2303 -0.5454  2.7798
  127OSM    C6F13640   5.368   1.143   7.329  0.0383 -0.1160 -0.4464
  127OSM    H6F13641   5.418   1.044   7.337  1.6302  0.6271 -0.9240
  127OSM    H6G13642   5.258   1.126   7.319  0.3162 -2.4091 -0.1562
  127OSM    C7F13643   5.407   1.236   7.432 -0.4194 -0.8291 -0.3131
  127OSM    H7F13644   5.365   1.338   7.414  1.3869  0.2910  1.4287
  127OSM    H7G13645   5.517   1.251   7.435 -0.7665  3.2563 -1.3656
  127OSM    C8F13646   5.371   1.181   7.578 -0.1693  0.4253  0.3430
  127OSM    H8F13647   5.439   1.094   7.594 -0.1939  0.4202  0.4167
  127OSM    H8G13648   5.271   1.133   7.586  0.1771 -0.0623  2.2127
  127OSM    C9F13649   5.391   1.285   7.683 -0.8197 -0.4747  0.5660
  127OSM    H9F13650   5.325   1.371   7.667 -1.1172 -0.3257  2.3437
  127OSM   C10F13651   5.474   1.282   7.789  0.1695  0.3907  0.1233
  127OSM   H10F13652   5.476   1.367   7.859  1.5124 -0.3172  0.9999
  127OSM   C11F13653   5.566   1.174   7.825 -0.1113  0.3830 -0.3534
  127OSM   H11F13654   5.652   1.207   7.887  0.6042 -0.3849 -0.9058
  127OSM   H11G13655   5.611   1.138   7.729 -1.8127  2.1731 -1.9131
  127OSM   C12F13656   5.507   1.055   7.904 -0.0242 -0.1581  0.2156
  127OSM   H12F13657   5.584   0.975   7.907  1.9417  1.2433 -4.0341
  127OSM   H12G13658   5.428   1.008   7.841  1.9730 -0.3884 -2.2907
  127OSM   C13F13659   5.446   1.087   8.044  0.1172 -0.4199  0.0589
  127OSM   H13F13660   5.381   1.175   8.024  1.0003 -0.4583 -3.5655
  127OSM   H13G13661   5.526   1.124   8.113 -0.2201  1.1248 -0.3435
  127OSM   C14F13662   5.358   0.976   8.096  0.3464  0.1724  0.3648
  127OSM   H14F13663   5.419   0.888   8.124 -0.8331 -0.9096 -0.3126
  127OSM   H14G13664   5.282   0.954   8.017 -0.5587  1.7704  0.7582
  127OSM   C15F13665   5.281   1.017   8.221  0.1825  0.2277 -0.8019
  127OSM   H15F13666   5.214   0.931   8.246 -0.3048  0.7309 -0.3471
  127OSM   H15G13667   5.224   1.103   8.180  1.0165  0.6588 -1.0720
  127OSM   C16F13668   5.356   1.061   8.344 -0.3662  0.2597 -0.4512
  127OSM   H16F13669   5.281   1.088   8.420  0.6870  0.5936  0.5005
  127OSM   H16G13670   5.425   1.148   8.338  1.4720 -0.6891  3.5152
  127OSM   C17F13671   5.433   0.943   8.412  0.2959  0.0100  0.5494
  127OSM   H17F13672   5.484   0.886   8.331 -1.7060 -0.9256 -0.1428
  127OSM   H17G13673   5.371   0.873   8.472  1.7735  0.1414  2.3043
  127OSM   C18F13674   5.530   0.995   8.510  0.3525  0.5134  0.2205
  127OSM   H18F13675   5.571   0.909   8.568  0.3573  0.9621  0.8905
  127OSM   H18G13676   5.474   1.068   8.573 -1.5835 -0.6747 -0.0549
  127OSM   H18H13677   5.621   1.042   8.465  0.9396 -1.5491 -0.8989
  128OSM      N13678   0.037   5.045   6.082 -1.1362 -0.4207  0.5922
  128OSM    C1513679  -0.001   5.120   5.953  0.2382 -0.6825  0.3968
  128OSM   H15A13680   0.004   5.226   5.974 -0.0190 -0.3215 -1.2293
  128OSM   H15B13681  -0.100   5.106   5.914 -0.4393 -0.5435  1.9802
  128OSM   H15C13682   0.071   5.100   5.875  0.3254  1.6201 -0.1870
  128OSM    C1413683  -0.027   5.117   6.187 -0.1853  0.8503 -0.4452
  128OSM   H14A13684   0.016   5.216   6.187 -0.2779  0.9223  1.4623
  128OSM   H14B13685   0.002   5.078   6.283  0.2274 -2.1394 -1.6611
  128OSM   H14C13686  -0.135   5.121   6.181 -0.1570  0.6785 -1.2647
  128OSM    C1313687  -0.014   4.907   6.074 -0.4094  0.0103 -0.1065
  128OSM   H13A13688   0.040   4.861   5.993  1.6088  1.3858  0.3707
  128OSM   H13B13689  -0.120   4.905   6.052 -0.3243 -1.9445 -0.4523
  128OSM   H13C13690   0.009   4.852   6.164 -1.9149  1.5392  1.2959
  128OSM    C1213691   0.188   5.041   6.104  1.2666 -0.3129  0.1020
  128OSM   H12A13692   0.224   4.973   6.029 -0.3445 -2.5432  1.2250
  128OSM   H12B13693   0.203   4.979   6.192  0.4640 -0.1671  0.3567
  128OSM    C1113694   0.271   5.172   6.092  0.0473 -0.1491  0.2436
  128OSM   H11A13695   0.268   5.187   5.982  0.8579 -0.7083  0.1313
  128OSM   H11B13696   0.379   5.163   6.116 -0.2700 -1.0524  1.4645
  128OSM      P13697   0.264   5.330   6.308 -0.1018 -0.0281 -0.1524
  128OSM    O1313698   0.397   5.401   6.298  0.1783  0.1564  0.2399
  128OSM    O1413699   0.155   5.399   6.375 -0.2698 -0.4220 -0.1146
  128OSM    O1113700   0.283   5.191   6.388 -0.0472  0.1582 -0.3145
  128OSM    O1213701   0.218   5.283   6.161  0.4981  0.8244  0.2614
  128OSM    C1S13702   0.305   5.182   6.525 -0.3713 -0.6385  0.4404
  128OSM    H1S13703   0.387   5.249   6.560 -1.3002 -0.4179  2.2974
  128OSM    H1T13704   0.357   5.084   6.530  0.5149 -0.4800 -3.0121
  128OSM     NF13705   0.231   5.220   6.756 -0.3546 -0.1913  0.2312
  128OSM    HNF13706   0.221   5.134   6.806 -2.8218 -0.2304 -0.2003
  128OSM    C2S13707   0.190   5.207   6.622 -0.0187 -0.4860 -0.4528
  128OSM    H2S13708   0.135   5.299   6.592  1.5214  0.2846 -1.0593
  128OSM    C3S13709   0.089   5.091   6.608 -0.7247 -0.3741 -0.0487
  128OSM    H3S13710   0.137   4.993   6.631 -1.2853 -0.5016  0.6054
  128OSM     O313711   0.034   5.076   6.486  0.4098 -0.0366  0.3876
  128OSM    HO313712   0.095   5.124   6.429 -1.3257  0.4016 -1.2259
  128OSM    C4S13713  -0.026   5.110   6.715 -0.0365  0.2254  0.1260
  128OSM    H4S13714  -0.022   5.042   6.801  1.6562  1.7902  1.3673
  128OSM    C5S13715  -0.125   5.202   6.704  0.5234  0.8381  0.6268
  128OSM    H5S13716  -0.131   5.269   6.617 -1.8010 -0.7718 -0.5703
  128OSM    C6S13717  -0.241   5.228   6.808  0.0448 -0.1724 -0.5613
  128OSM    H6S13718  -0.337   5.191   6.765  0.2036  0.7315 -1.7453
  128OSM    H6T13719  -0.260   5.337   6.807  1.0683  0.0540  1.0914
  128OSM    C7S13720  -0.232   5.175   6.949  0.3536  0.3695  0.2085
  128OSM    H7S13721  -0.130   5.168   6.993  0.8439  0.6810 -0.8397
  128OSM    H7T13722  -0.264   5.069   6.944  2.2627 -0.2450  0.2647
  128OSM    C8S13723  -0.322   5.254   7.046 -0.1414  0.2473  0.1880
  128OSM    H8S13724  -0.423   5.274   7.004  1.0725  3.1965 -1.6414
  128OSM    H8T13725  -0.273   5.352   7.060 -0.5416  0.5680 -0.5869
  128OSM    C9S13726  -0.334   5.176   7.176 -1.2109  0.5591 -0.0466
  128OSM    H9S13727  -0.261   5.092   7.177  0.5848  2.0037 -1.4325
  128OSM    H9T13728  -0.434   5.129   7.179 -1.2315  0.3029 -2.7495
  128OSM   C10S13729  -0.296   5.258   7.297 -0.2998  0.0248  0.2833
  128OSM   H10S13730  -0.334   5.362   7.289  0.2004  0.4091  2.3102
  128OSM   H10T13731  -0.186   5.265   7.305 -0.4039  0.0659  2.2148
  128OSM   C11S13732  -0.358   5.205   7.425 -0.0477  0.3475 -0.5083
  128OSM   H11S13733  -0.325   5.100   7.441  2.3776  0.8092 -1.9538
  128OSM   H11T13734  -0.467   5.215   7.409  0.2176  1.2162 -1.9406
  128OSM   C12S13735  -0.308   5.283   7.545  0.2724 -0.0445 -0.3255
  128OSM   H12S13736  -0.352   5.383   7.525  2.5388  0.5973 -2.6204
  128OSM   H12T13737  -0.198   5.297   7.535  0.1863  0.3246 -0.7415
  128OSM   C13S13738  -0.342   5.236   7.688  0.6709 -0.3474 -0.5370
  128OSM   H13S13739  -0.304   5.132   7.698 -0.1110 -0.5620  0.2993
  128OSM   H13T13740  -0.452   5.247   7.691  0.7529  0.3782  0.0987
  128OSM   C14S13741  -0.294   5.324   7.800  0.2959  0.4016 -0.6855
  128OSM   H14S13742  -0.327   5.429   7.792  0.1255  0.4010 -0.0377
  128OSM   H14T13743  -0.184   5.332   7.791  0.2108  0.8673 -1.4569
  128OSM   C15S13744  -0.336   5.271   7.937 -0.0916  0.2704 -0.7965
  128OSM   H15S13745  -0.309   5.164   7.942  0.6977  0.4954 -0.0343
  128OSM   H15T13746  -0.447   5.269   7.950  0.1309 -1.2879  1.5756
  128OSM   C16S13747  -0.272   5.324   8.067  0.3211 -0.1372 -0.4973
  128OSM   H16S13748  -0.292   5.433   8.067  0.2958 -0.1410  0.0348
  128OSM   H16T13749  -0.162   5.307   8.068  0.4710  0.8141  0.4391
  128OSM   C17S13750  -0.327   5.261   8.198 -0.6581  0.4937 -0.6585
  128OSM   H17S13751  -0.292   5.156   8.201 -0.6801  0.5045  1.1096
  128OSM   H17T13752  -0.438   5.257   8.191 -0.7452 -0.1439  0.7664
  128OSM   C18S13753  -0.282   5.334   8.332 -0.2617 -0.6157  0.3801
  128OSM   H18S13754  -0.171   5.328   8.342 -0.1946 -1.3664 -0.6430
  128OSM   H18T13755  -0.323   5.278   8.419  1.7110 -0.9278  1.1708
  128OSM   H18U13756  -0.319   5.438   8.340  1.9146  0.3413 -0.9564
  128OSM    C1F13757   0.299   5.325   6.808 -0.4351  0.7018  0.1166
  128OSM     OF13758   0.333   5.414   6.737 -0.1644 -0.3920  0.5952
  128OSM    C2F13759   0.321   5.325   6.954  0.1964  0.4122 -0.8046
  128OSM    H2F13760   0.330   5.223   6.996 -1.6491  0.8527  0.7699
  128OSM    H2G13761   0.234   5.384   6.990 -0.0261 -0.7604  0.6659
  128OSM    C3F13762   0.445   5.412   6.994  0.3326 -0.3060 -0.2667
  128OSM    H3F13763   0.422   5.519   6.972 -4.5205 -1.0585  0.0915
  128OSM    H3G13764   0.532   5.372   6.937  0.3368 -2.7664  1.3236
  128OSM    C4F13765   0.484   5.410   7.143 -0.0930  0.2609  0.1828
  128OSM    H4F13766   0.513   5.306   7.171 -0.0074  0.7051  1.8732
  128OSM    H4G13767   0.390   5.431   7.200 -1.5882 -1.9802 -1.2865
  128OSM    C5F13768   0.604   5.496   7.181  0.3652 -0.5069 -0.1723
  128OSM    H5F13769   0.607   5.473   7.290 -0.4055 -1.1976 -0.2879
  128OSM    H5G13770   0.592   5.606   7.166 -1.5367 -0.6084  0.4214
  128OSM    C6F13771   0.736   5.453   7.126  0.0052 -0.0087  0.2237
  128OSM    H6F13772   0.738   5.467   7.016 -1.2469 -4.5472 -0.5748
  128OSM    H6G13773   0.771   5.349   7.146  1.5931  0.3171 -0.7199
  128OSM    C7F13774   0.857   5.539   7.190  0.0365  0.1446 -0.6825
  128OSM    H7F13775   0.836   5.648   7.176 -0.8674  0.3125  1.6118
  128OSM    H7G13776   0.950   5.508   7.138  0.5053 -1.0533  0.8034
  128OSM    C8F13777   0.869   5.504   7.345  0.2352  0.7383  0.3114
  128OSM    H8F13778   0.915   5.403   7.359 -0.9551  0.0706 -0.4728
  128OSM    H8G13779   0.771   5.501   7.397 -0.7984  1.0903 -1.5242
  128OSM    C9F13780   0.960   5.607   7.408  0.1516 -1.0225  0.0595
  128OSM    H9F13781   1.065   5.612   7.375  0.4439  0.1551  1.0888
  128OSM   C10F13782   0.924   5.684   7.513 -0.1793 -1.1082  0.4435
  128OSM   H10F13783   1.001   5.754   7.550 -0.6610  1.1747 -2.4722
  128OSM   C11F13784   0.799   5.706   7.588  0.0813 -0.5084 -0.3848
  128OSM   H11F13785   0.708   5.672   7.533 -2.5755 -0.7608  3.6859
  128OSM   H11G13786   0.788   5.815   7.603  2.0759 -0.4867  1.3888
  128OSM   C12F13787   0.812   5.634   7.718  0.1916  0.1059 -0.2667
  128OSM   H12F13788   0.893   5.684   7.775  1.1984  2.2282 -3.3445
  128OSM   H12G13789   0.848   5.530   7.699  0.0882  0.1312 -0.5958
  128OSM   C13F13790   0.673   5.648   7.793  1.0760 -0.7303 -0.4585
  128OSM   H13F13791   0.612   5.561   7.761  1.2122  0.2194 -3.5461
  128OSM   H13G13792   0.631   5.744   7.757  0.5721 -0.3001  1.1722
  128OSM   C14F13793   0.684   5.659   7.948  0.1983  0.9488 -0.2646
  128OSM   H14F13794   0.740   5.571   7.984  1.2961  2.2141  1.2673
  128OSM   H14G13795   0.587   5.645   8.000  0.5441  3.3596  1.1705
  128OSM   C15F13796   0.754   5.782   8.010 -0.2868 -0.0945  0.2877
  128OSM   H15F13797   0.697   5.873   7.982 -1.6044 -0.1085  2.6350
  128OSM   H15G13798   0.858   5.793   7.974 -1.1027  0.8614 -1.9831
  128OSM   C16F13799   0.774   5.775   8.161  0.4733  0.6353 -0.3034
  128OSM   H16F13800   0.850   5.845   8.201  1.7080 -1.4636  1.2648
  128OSM   H16G13801   0.802   5.672   8.194  0.5645  0.2306 -1.5919
  128OSM   C17F13802   0.654   5.829   8.237  0.3800 -0.6047 -0.4399
  128OSM   H17F13803   0.565   5.764   8.221 -0.4193  0.3599 -0.0421
  128OSM   H17G13804   0.637   5.931   8.197  2.5771 -0.5986 -1.4692
  128OSM   C18F13805   0.675   5.835   8.390  0.0348 -0.0237 -0.7410
  128OSM   H18F13806   0.706   5.735   8.428 -1.2399 -0.5312 -1.0046
  128OSM   H18G13807   0.583   5.871   8.440  1.1598  1.2637  0.4792
  128OSM   H18H13808   0.760   5.905   8.408 -0.8087  1.0156 -0.7168
  129OSM      N13809   5.659   1.161   5.962 -0.1567 -0.1358 -0.3546
  129OSM    C1513810   5.580   1.074   6.053  0.3534 -0.1252 -0.0198
  129OSM   H15A13811   5.476   1.090   6.028  1.0587  0.5910 -2.8058
  129OSM   H15B13812   5.585   1.094   6.159 -3.1181 -2.5164  0.8042
  129OSM   H15C13813   5.614   0.974   6.031 -0.4924 -0.2216 -0.9873
  129OSM    C1413814   5.633   1.133   5.825 -0.2166  0.2458  0.2155
  129OSM   H14A13815   5.668   1.216   5.765 -1.8414 -0.7082 -2.2273
  129OSM   H14B13816   5.529   1.119   5.799 -1.0840  3.0137  1.8212
  129OSM   H14C13817   5.690   1.048   5.790 -0.6087  0.3908 -0.8131
  129OSM    C1313818   5.610   1.298   5.987  0.7238 -0.0161  0.2983
  129OSM   H13A13819   5.660   1.381   5.940  1.4277 -0.9401 -0.6345
  129OSM   H13B13820   5.585   1.312   6.091  0.5071  0.0795  0.2350
  129OSM   H13C13821   5.519   1.292   5.928  0.0004 -0.5992  1.4390
  129OSM    C1213822   5.807   1.156   5.989  0.0401  0.8305  0.2014
  129OSM   H12A13823   5.817   1.173   6.095 -0.8476 -2.2756  0.8901
  129OSM   H12B13824   5.859   1.234   5.935  0.4436  0.2617 -0.2441
  129OSM    C1113825   5.872   1.025   5.955  0.1815  0.0680  0.1382
  129OSM   H11A13826   5.981   1.042   5.972 -0.1093  1.4957  0.7525
  129OSM   H11B13827   5.883   1.002   5.847  2.4579 -0.5804  0.4618
  129OSM      P13828   5.892   0.848   6.155  0.3807 -0.0559  0.3360
  129OSM    O1313829   5.816   0.727   6.193  0.1787 -0.6862 -0.9260
  129OSM    O1413830   6.033   0.823   6.130  0.2933 -0.0777  0.1364
  129OSM    O1113831   5.895   0.958   6.269  0.1252 -0.2840 -0.0308
  129OSM    O1213832   5.826   0.917   6.038  0.1544 -0.2688 -0.2940
  129OSM    C1S13833   5.777   1.003   6.319 -0.3503  0.0950 -0.6261
  129OSM    H1S13834   5.689   0.954   6.273  1.9749 -1.8300 -3.3189
  129OSM    H1T13835   5.769   1.111   6.294 -2.9214  0.0431 -0.3844
  129OSM     NF13836   5.620   1.002   6.528 -0.5855 -0.1526  0.9844
  129OSM    HNF13837   5.591   1.069   6.596 -2.1264  0.5557 -0.2887
  129OSM    C2S13838   5.763   1.000   6.481  0.6915  0.2735  0.4225
  129OSM    H2S13839   5.798   0.897   6.506 -1.1053 -0.5335 -0.2076
  129OSM    C3S13840   5.862   1.096   6.539 -0.4895  0.0086 -0.0285
  129OSM    H3S13841   5.827   1.199   6.516  1.3992  1.5068  3.1645
  129OSM     O313842   5.997   1.081   6.488  0.7030  0.3236 -0.4916
  129OSM    HO313843   5.984   1.020   6.415  1.8756 -0.1535 -0.3117
  129OSM    C4S13844   5.860   1.096   6.698 -0.2069 -0.3317  0.8865
  129OSM    H4S13845   5.782   1.157   6.744 -0.8245 -2.2193  2.4568
  129OSM    C5S13846   5.947   1.029   6.786  0.5501 -0.3273  0.4270
  129OSM    H5S13847   6.012   0.950   6.746 -1.2380 -2.1719  0.9826
  129OSM    C6S13848   5.923   1.032   6.936 -0.0787 -0.1573 -0.3489
  129OSM    H6S13849   6.021   1.009   6.983 -0.1222  1.3331  0.5008
  129OSM    H6T13850   5.846   0.961   6.973 -0.5715  0.9637  0.8611
  129OSM    C7S13851   5.871   1.169   6.987  0.3931  0.2780  0.4014
  129OSM    H7S13852   5.774   1.193   6.938 -0.3767  2.6927  2.8607
  129OSM    H7T13853   5.938   1.252   6.956 -1.4866  1.4867 -0.6321
  129OSM    C8S13854   5.862   1.178   7.144 -0.5438  0.2287  0.0256
  129OSM    H8S13855   5.797   1.262   7.177 -0.8710  1.0566 -2.4934
  129OSM    H8T13856   5.968   1.188   7.176 -0.1324 -0.3255 -1.1059
  129OSM    C9S13857   5.816   1.050   7.218  0.6454  0.2149  0.3607
  129OSM    H9S13858   5.895   0.974   7.199  1.2060  1.1182 -1.1013
  129OSM    H9T13859   5.725   1.029   7.159  0.8657 -0.2789  0.1914
  129OSM   C10S13860   5.795   1.060   7.372  0.2288 -0.1460  0.8040
  129OSM   H10S13861   5.768   0.957   7.406  0.1735  0.0257  1.2869
  129OSM   H10T13862   5.715   1.131   7.401 -1.2874 -1.4275 -0.0427
  129OSM   C11S13863   5.926   1.092   7.439 -0.3139 -0.6383  0.2135
  129OSM   H11S13864   5.971   1.186   7.400  0.1184 -0.2348  1.6453
  129OSM   H11T13865   6.000   1.013   7.416  0.2316  0.4081 -1.9282
  129OSM   C12S13866   5.908   1.098   7.594  0.2407 -0.4634  0.6494
  129OSM   H12S13867   5.878   0.997   7.631 -0.6419 -0.2879  0.4320
  129OSM   H12T13868   5.828   1.173   7.613 -0.1473 -0.4048 -1.1254
  129OSM   C13S13869   6.036   1.148   7.663  0.1063 -0.0234 -0.8670
  129OSM   H13S13870   6.070   1.234   7.600  1.0837 -0.2903 -0.7250
  129OSM   H13T13871   6.119   1.075   7.658  1.8165  1.6396  1.2259
  129OSM   C14S13872   6.018   1.191   7.808 -0.1382 -0.0771  0.3576
  129OSM   H14S13873   5.958   1.285   7.818 -1.5394 -0.9811  0.8610
  129OSM   H14T13874   6.121   1.221   7.837 -0.5906  2.9516 -0.8058
  129OSM   C15S13875   5.966   1.078   7.903 -0.3463 -0.3734  0.6075
  129OSM   H15S13876   6.046   1.001   7.909 -0.0408 -0.0569  0.6414
  129OSM   H15T13877   5.876   1.028   7.862 -1.9533  0.7958  2.5149
  129OSM   C16S13878   5.921   1.132   8.035  0.3684 -0.3668  0.9006
  129OSM   H16S13879   5.857   1.221   8.019 -0.1823 -0.8614  0.3085
  129OSM   H16T13880   6.007   1.171   8.093  2.0566 -2.6551  0.0943
  129OSM   C17S13881   5.834   1.029   8.122 -0.3772 -0.2720  0.2688
  129OSM   H17S13882   5.736   1.027   8.069  0.1287 -1.5252 -0.6582
  129OSM   H17T13883   5.801   1.074   8.219  1.4041  2.0666 -0.1114
  129OSM   C18S13884   5.896   0.893   8.139  0.0546 -0.6845 -0.1242
  129OSM   H18S13885   5.940   0.837   8.054  1.3250 -0.3444  0.2883
  129OSM   H18T13886   5.830   0.820   8.192 -0.3548 -0.1709  0.0800
  129OSM   H18U13887   5.992   0.908   8.194 -0.6779 -2.3484  1.7564
  129OSM    C1F13888   5.524   0.921   6.491 -0.9111  0.1872 -0.6908
  129OSM     OF13889   5.549   0.804   6.450 -0.5515 -0.3655  0.0337
  129OSM    C2F13890   5.391   0.974   6.511 -0.0632 -0.4540 -0.0364
  129OSM    H2F13891   5.356   1.015   6.414  1.1121 -0.6310 -0.5560
  129OSM    H2G13892   5.389   1.071   6.566 -3.7842 -0.6670  0.4422
  129OSM    C3F13893   5.307   0.874   6.583  0.3183 -0.0102  0.0031
  129OSM    H3F13894   5.365   0.839   6.671 -3.0857 -1.3014  1.9176
  129OSM    H3G13895   5.292   0.789   6.513  0.3572  0.2824 -0.3663
  129OSM    C4F13896   5.161   0.918   6.614 -0.8687  0.6705  0.8640
  129OSM    H4F13897   5.097   0.874   6.535  1.2667  2.4163 -2.0321
  129OSM    H4G13898   5.167   1.029   6.617  0.0451  0.7420 -1.6540
  129OSM    C5F13899   5.119   0.869   6.755 -0.5651  0.7074 -0.0338
  129OSM    H5F13900   5.194   0.902   6.830  2.1683 -0.7794 -1.9497
  129OSM    H5G13901   5.111   0.758   6.752  0.9345  0.5913 -0.6543
  129OSM    C6F13902   4.982   0.936   6.780 -0.0774 -0.0921  0.1643
  129OSM    H6F13903   4.921   0.908   6.692 -1.5566 -0.4113  1.2627
  129OSM    H6G13904   4.980   1.047   6.783 -4.4430 -0.0395  0.9577
  129OSM    C7F13905   4.906   0.870   6.900 -0.5505  0.2508  0.2217
  129OSM    H7F13906   4.899   0.759   6.904 -2.0569  0.3295  2.8399
  129OSM    H7G13907   4.804   0.913   6.916 -1.2727 -1.6730  1.0589
  129OSM    C8F13908   4.977   0.891   7.037 -0.3703 -0.6168  0.2449
  129OSM    H8F13909   4.989   1.001   7.041 -0.1899 -0.5539 -1.3455
  129OSM    H8G13910   5.079   0.847   7.040  0.3477  0.9797  0.2763
  129OSM    C9F13911   4.902   0.863   7.160  0.7732  0.0779 -0.8491
  129OSM    H9F13912   4.794   0.875   7.144  0.5738  0.6937  0.8081
  129OSM   C10F13913   4.946   0.834   7.285  0.2861 -0.0286 -0.0426
  129OSM   H10F13914   4.870   0.805   7.359 -1.2282 -1.4033 -2.0225
  129OSM   C11F13915   5.093   0.824   7.314  0.5784 -0.0049  0.4836
  129OSM   H11F13916   5.157   0.887   7.248 -1.6220  6.1296  3.4627
  129OSM   H11G13917   5.124   0.719   7.293 -1.7893 -0.8066  0.7087
  129OSM   C12F13918   5.135   0.855   7.460 -0.3709 -0.3261  0.0665
  129OSM   H12F13919   5.114   0.961   7.483 -1.4423 -0.7029  0.9019
  129OSM   H12G13920   5.243   0.833   7.469 -0.0270  1.4041  0.4848
  129OSM   C13F13921   5.077   0.762   7.572  0.4334 -0.2839  0.2340
  129OSM   H13F13922   5.085   0.655   7.544 -1.1262 -0.3906  0.1213
  129OSM   H13G13923   4.969   0.771   7.593 -0.1206  1.2816 -2.7049
  129OSM   C14F13924   5.157   0.782   7.704 -0.3358  0.1880  0.3371
  129OSM   H14F13925   5.156   0.881   7.754  3.8037  0.7604 -0.3427
  129OSM   H14G13926   5.265   0.772   7.680 -0.5389  0.5558 -0.7888
  129OSM   C15F13927   5.130   0.669   7.799 -0.4389  0.5279  0.8677
  129OSM   H15F13928   5.142   0.567   7.758 -0.6391 -0.1138  2.3132
  129OSM   H15G13929   5.030   0.669   7.847 -1.1081 -4.5080 -0.0451
  129OSM   C16F13930   5.234   0.661   7.915  1.0206  0.1157  0.0297
  129OSM   H16F13931   5.244   0.768   7.941  1.9586  0.2926 -0.9847
  129OSM   H16G13932   5.331   0.626   7.875  0.1548 -1.7550 -0.5776
  129OSM   C17F13933   5.169   0.570   8.019 -0.8685  0.0349  0.1849
  129OSM   H17F13934   5.164   0.465   7.983  2.8948 -0.5386  0.8598
  129OSM   H17G13935   5.068   0.614   8.032  0.1242  2.1397  1.3672
  129OSM   C18F13936   5.244   0.556   8.154 -0.2041 -0.7211 -0.3311
  129OSM   H18F13937   5.274   0.647   8.210  0.1063 -0.2790 -1.1997
  129OSM   H18G13938   5.338   0.503   8.128  0.0914 -0.2016 -0.3358
  129OSM   H18H13939   5.189   0.488   8.223  0.2707 -0.8540 -0.0791
  130OSM      N13940   0.854   5.178   5.998  1.2012 -0.2158  0.1142
  130OSM    C1513941   0.986   5.233   5.981  0.0592 -0.2491  0.3334
  130OSM   H15A13942   1.004   5.323   6.037 -0.9974 -0.0591  0.3935
  130OSM   H15B13943   1.002   5.253   5.876 -0.0307 -2.2268 -0.0956
  130OSM   H15C13944   1.060   5.158   6.001 -0.4106 -0.8739 -0.1878
  130OSM    C1413945   0.757   5.261   5.921 -0.7893  1.0144 -0.1172
  130OSM   H14A13946   0.785   5.252   5.817 -0.8300 -1.0062  0.0024
  130OSM   H14B13947   0.750   5.365   5.949 -0.9275  1.3379 -1.3085
  130OSM   H14C13948   0.659   5.215   5.923 -0.0922 -0.5234  0.8806
  130OSM    C1313949   0.840   5.040   5.927  0.2242 -0.3185 -0.9070
  130OSM   H13A13950   0.889   4.963   5.985 -1.6250 -0.2095  0.8880
  130OSM   H13B13951   0.883   5.027   5.828 -0.2180 -1.3548 -0.9777
  130OSM   H13C13952   0.736   5.012   5.936 -0.7647  2.8221 -1.5555
  130OSM    C1213953   0.809   5.178   6.144  0.0925 -0.2667  0.5388
  130OSM   H12A13954   0.796   5.281   6.175 -2.7203 -0.3806  0.0311
  130OSM   H12B13955   0.884   5.134   6.207  0.8515  0.1179 -0.0758
  130OSM    C1113956   0.670   5.116   6.172  0.3835  0.1215  0.0808
  130OSM   H11A13957   0.598   5.176   6.113  0.8794  1.1426  0.4871
  130OSM   H11B13958   0.652   5.143   6.278  2.1297  0.1001  0.4054
  130OSM      P13959   0.768   4.879   6.236  0.1392  0.2672  0.2429
  130OSM    O1313960   0.689   4.787   6.318 -1.2788 -0.0113 -0.1677
  130OSM    O1413961   0.856   4.814   6.133 -0.1834 -0.5251 -0.1276
  130OSM    O1113962   0.858   4.968   6.327 -0.0936  0.3487 -0.4765
  130OSM    O1213963   0.667   4.973   6.154 -0.5355 -0.2769 -0.2956
  130OSM    C1S13964   0.831   5.027   6.455 -0.2325 -0.3440 -0.1655
  130OSM    H1S13965   0.722   5.047   6.460 -0.3472 -1.2267  2.7242
  130OSM    H1T13966   0.881   5.126   6.458 -1.0704  0.0502  1.5607
  130OSM     NF13967   0.826   5.019   6.692  0.4246 -0.1293  0.0879
  130OSM    HNF13968   0.901   5.072   6.729 -0.3876  0.9224  0.2931
  130OSM    C2S13969   0.871   4.943   6.579  0.7582  0.2907  0.3497
  130OSM    H2S13970   0.815   4.847   6.583  0.2668  0.5690  0.2248
  130OSM    C3S13971   1.027   4.916   6.570  0.2145  0.3896 -0.5037
  130OSM    H3S13972   1.085   5.010   6.576  2.8334 -1.2040  1.0227
  130OSM     O313973   1.066   4.865   6.446  0.1139 -0.1626 -0.2828
  130OSM    HO313974   0.993   4.888   6.388  0.3369 -0.0573 -0.5217
  130OSM    C4S13975   1.066   4.833   6.688 -0.2244 -0.7609  0.1371
  130OSM    H4S13976   1.100   4.894   6.773 -0.1198 -1.4916  0.6356
  130OSM    C5S13977   1.059   4.701   6.695  0.1092 -0.3691 -0.1925
  130OSM    H5S13978   1.056   4.641   6.602  0.7905 -0.6966 -0.0112
  130OSM    C6S13979   1.096   4.617   6.818  0.1724  0.0716  0.2976
  130OSM    H6S13980   1.202   4.586   6.813  0.4726  1.0542  0.3975
  130OSM    H6T13981   1.028   4.529   6.821  0.7063 -0.3885 -0.8494
  130OSM    C7S13982   1.089   4.683   6.953 -0.0184 -0.7606  0.3714
  130OSM    H7S13983   1.001   4.747   6.977 -0.3985 -1.6529  1.4574
  130OSM    H7T13984   1.174   4.754   6.963  0.3254 -0.9247 -1.2403
  130OSM    C8S13985   1.092   4.571   7.057  0.3405 -0.7418 -0.6540
  130OSM    H8S13986   1.172   4.495   7.048  0.2262 -0.9583  0.0893
  130OSM    H8T13987   0.994   4.519   7.055 -1.0462  1.7151 -0.6059
  130OSM    C9S13988   1.104   4.633   7.196 -0.1288  0.1032 -0.3045
  130OSM    H9S13989   1.022   4.708   7.198 -1.4510 -1.3252  0.6650
  130OSM    H9T13990   1.203   4.682   7.209 -0.1498 -0.1777  0.9614
  130OSM   C10S13991   1.081   4.532   7.313  0.1339 -0.0971 -0.6719
  130OSM   H10S13992   1.151   4.455   7.275  3.5920  1.3115  2.2830
  130OSM   H10T13993   0.974   4.499   7.315 -0.1782  0.8799 -0.6722
  130OSM   C11S13994   1.135   4.575   7.446 -0.4711 -0.1062  1.2477
  130OSM   H11S13995   1.244   4.596   7.436 -0.8600  1.2591 -0.8230
  130OSM   H11T13996   1.129   4.492   7.519 -0.0265 -0.0960  1.2991
  130OSM   C12S13997   1.060   4.696   7.499 -0.2215  0.2809  0.5813
  130OSM   H12S13998   0.951   4.679   7.484 -0.8558  2.2035  2.4193
  130OSM   H12T13999   1.085   4.787   7.440 -0.0762 -0.2758 -0.2361
  130OSM   C13S14000   1.074   4.721   7.649 -0.2267 -0.2705  0.0755
  130OSM   H13S14001   1.177   4.762   7.655  0.3678 -1.6361 -0.4366
  130OSM   H13T14002   1.072   4.627   7.709  0.1742  0.4485  1.2580
  130OSM   C14S14003   0.982   4.831   7.709 -0.2418  0.1137  0.5680
  130OSM   H14S14004   0.881   4.785   7.722 -1.4581  2.6320  0.6478
  130OSM   H14T14005   0.974   4.903   7.625  2.7573 -0.9579 -0.7698
  130OSM   C15S14006   1.060   4.882   7.832  0.0100 -0.0136  0.0325
  130OSM   H15S14007   1.160   4.923   7.807  0.2992 -0.8306 -0.1897
  130OSM   H15T14008   1.089   4.787   7.881 -0.9083 -0.8573 -0.9969
  130OSM   C16S14009   0.980   4.972   7.927  0.0905  1.1650 -0.3657
  130OSM   H16S14010   0.945   5.055   7.861  0.5877  1.1310 -0.6720
  130OSM   H16T14011   1.043   5.017   8.008 -0.4742 -0.2118  0.8765
  130OSM   C17S14012   0.867   4.898   8.005 -0.0867  0.4902  0.0009
  130OSM   H17S14013   0.832   4.810   7.948  0.0755  0.9338 -0.8097
  130OSM   H17T14014   0.790   4.979   8.013  0.9429  1.4457  0.4580
  130OSM   C18S14015   0.906   4.849   8.143  0.6282 -0.0271  0.2029
  130OSM   H18S14016   0.809   4.831   8.194 -0.6070  0.8075 -1.7428
  130OSM   H18T14017   0.956   4.929   8.201  2.0207 -1.0479  0.4561
  130OSM   H18U14018   0.972   4.760   8.147  0.8494  0.1764  1.5814
  130OSM    C1F14019   0.700   5.030   6.743 -0.0019  0.2656 -0.4485
  130OSM     OF14020   0.604   4.977   6.682 -0.2364 -0.4374 -0.6227
  130OSM    C2F14021   0.661   5.113   6.867 -0.5209  0.0604  0.1767
  130OSM    H2F14022   0.558   5.151   6.854 -0.4120  0.8102  1.3294
  130OSM    H2G14023   0.719   5.208   6.867  1.0906 -0.8400 -1.3674
  130OSM    C3F14024   0.659   5.037   7.003 -0.5258 -0.4665 -0.1332
  130OSM    H3F14025   0.610   4.938   6.991  1.3017 -1.1398 -3.4955
  130OSM    H3G14026   0.604   5.097   7.078  0.6950  1.6127 -0.7983
  130OSM    C4F14027   0.804   5.000   7.051  0.2631 -0.5644 -0.3712
  130OSM    H4F14028   0.863   5.094   7.055  0.9895 -0.9208 -1.9910
  130OSM    H4G14029   0.851   4.941   6.969 -0.5355 -1.1300 -0.4390
  130OSM    C5F14030   0.813   4.930   7.188 -1.0924  0.5658 -0.3167
  130OSM    H5F14031   0.920   4.912   7.213 -1.8409 -0.3973  2.6111
  130OSM    H5G14032   0.771   4.828   7.181 -0.5323  0.3909 -1.3184
  130OSM    C6F14033   0.752   5.017   7.298 -0.3333  0.3056  0.7732
  130OSM    H6F14034   0.642   5.031   7.294 -0.5721 -1.4524  0.0990
  130OSM    H6G14035   0.799   5.118   7.301 -0.0139  0.1332  2.3628
  130OSM    C7F14036   0.762   4.949   7.441  0.4919  0.0254  0.9447
  130OSM    H7F14037   0.869   4.917   7.446  0.4941  0.0491  1.0515
  130OSM    H7G14038   0.695   4.861   7.434 -1.9691  1.6520  2.5777
  130OSM    C8F14039   0.706   5.030   7.553 -0.1838  0.3445 -0.1229
  130OSM    H8F14040   0.693   4.976   7.649  3.4356 -0.6281 -0.0004
  130OSM    H8G14041   0.603   5.067   7.537  0.6570  2.8272 -0.3016
  130OSM    C9F14042   0.795   5.146   7.593 -1.3146 -0.0053  0.2515
  130OSM    H9F14043   0.876   5.175   7.524 -1.0680  0.8298  0.8831
  130OSM   C10F14044   0.780   5.242   7.688 -0.1145 -0.2034  0.0050
  130OSM   H10F14045   0.868   5.299   7.720  1.3171 -2.0101 -0.5403
  130OSM   C11F14046   0.669   5.239   7.794 -0.4148 -0.3654  0.4267
  130OSM   H11F14047   0.601   5.153   7.777  3.2824 -3.4434 -0.2093
  130OSM   H11G14048   0.596   5.317   7.765 -1.9282 -2.4835 -1.9169
  130OSM   C12F14049   0.732   5.258   7.945 -0.0276  0.2930  0.1093
  130OSM   H12F14050   0.792   5.351   7.938  0.2221  0.0678 -0.9508
  130OSM   H12G14051   0.815   5.186   7.963 -1.5074 -1.0154  2.1502
  130OSM   C13F14052   0.629   5.258   8.058 -0.6892  0.4054  0.1900
  130OSM   H13F14053   0.564   5.172   8.085 -1.3798  1.1215  0.8595
  130OSM   H13G14054   0.559   5.341   8.034  0.2533  0.3242 -3.5636
  130OSM   C14F14055   0.691   5.310   8.186 -0.0395  0.7704 -0.3306
  130OSM   H14F14056   0.609   5.354   8.248 -0.5701 -1.5205  0.6817
  130OSM   H14G14057   0.765   5.389   8.163  0.3352  0.0833 -1.5417
  130OSM   C15F14058   0.764   5.200   8.256 -0.1771  0.1507  0.3338
  130OSM   H15F14059   0.848   5.159   8.197 -0.1986  1.9042 -1.0007
  130OSM   H15G14060   0.693   5.117   8.274  0.9758 -0.6014  1.6208
  130OSM   C16F14061   0.819   5.240   8.391  0.2799 -0.6733  0.0111
  130OSM   H16F14062   0.739   5.265   8.464  0.6354 -1.1701  0.5800
  130OSM   H16G14063   0.888   5.323   8.368 -0.0976 -1.0006 -2.7153
  130OSM   C17F14064   0.889   5.118   8.446  0.4910 -0.1014  0.3006
  130OSM   H17F14065   0.971   5.092   8.376 -1.1269  0.7135 -1.9982
  130OSM   H17G14066   0.814   5.038   8.431 -0.7032  1.4825 -3.0356
  130OSM   C18F14067   0.932   5.123   8.586 -0.0016 -0.3669 -0.0866
  130OSM   H18F14068   1.029   5.176   8.596  0.6464 -1.4245 -0.6942
  130OSM   H18G14069   0.940   5.021   8.629 -3.4946 -0.7476 -0.0192
  130OSM   H18H14070   0.853   5.167   8.650 -0.0212  3.6698 -2.5006
  131OSM      N14071   0.727   1.000   5.710 -0.1225 -0.1175  0.4978
  131OSM    C1514072   0.765   0.925   5.588  0.1798 -0.0670 -0.9302
  131OSM   H15A14073   0.824   0.982   5.518 -0.7494  0.8538 -0.9898
  131OSM   H15B14074   0.682   0.873   5.542  0.9250  0.0607 -2.4823
  131OSM   H15C14075   0.829   0.844   5.620  0.5069  0.1683 -0.9888
  131OSM    C1414076   0.859   1.051   5.762 -0.2575 -0.2359 -0.4378
  131OSM   H14A14077   0.935   0.976   5.780  0.0774  0.4795  1.3446
  131OSM   H14B14078   0.832   1.093   5.857  1.3925  1.7001 -0.7624
  131OSM   H14C14079   0.904   1.132   5.707 -2.1642 -0.2301 -2.1200
  131OSM    C1314080   0.640   1.112   5.673 -0.1688  0.7977  0.1901
  131OSM   H13A14081   0.675   1.189   5.605 -2.3311 -0.0666 -2.0547
  131OSM   H13B14082   0.623   1.161   5.768 -1.0964  0.3810  0.2528
  131OSM   H13C14083   0.551   1.070   5.629 -0.3809  0.6417  0.7563
  131OSM    C1214084   0.667   0.918   5.821 -0.3172  0.5759 -0.0487
  131OSM   H12A14085   0.700   0.816   5.813 -1.3429  0.2643 -0.5298
  131OSM   H12B14086   0.562   0.907   5.798  0.2708 -1.5168 -2.0655
  131OSM    C1114087   0.669   0.978   5.964  0.4159  0.0035  0.4136
  131OSM   H11A14088   0.768   0.980   6.014  0.2721  0.8375  0.6798
  131OSM   H11B14089   0.620   0.906   6.033  1.2215  1.9732  3.1734
  131OSM      P14090   0.656   1.216   6.072  0.0047 -0.1192  0.2527
  131OSM    O1314091   0.798   1.241   6.043  0.2158  0.4517 -0.0245
  131OSM    O1414092   0.568   1.331   6.068  0.2996 -0.0454  0.1472
  131OSM    O1114093   0.634   1.136   6.210  0.0722  0.0117  0.0716
  131OSM    O1214094   0.607   1.107   5.967 -0.2974 -0.8315  0.5254
  131OSM    C1S14095   0.515   1.095   6.265  0.2497 -0.1308 -0.3621
  131OSM    H1S14096   0.480   1.003   6.214  1.2630 -1.7924  1.7888
  131OSM    H1T14097   0.436   1.173   6.260  1.0712  0.8979  1.4736
  131OSM     NF14098   0.404   0.975   6.460  0.2679 -0.2426  0.4353
  131OSM    HNF14099   0.327   1.032   6.487  0.5859  0.2032  0.3983
  131OSM    C2S14100   0.518   1.050   6.416  0.4806 -0.3072 -0.7045
  131OSM    H2S14101   0.609   0.986   6.427  1.5477  1.2823  0.2711
  131OSM    C3S14102   0.533   1.178   6.512 -0.1864  0.3220 -0.0313
  131OSM    H3S14103   0.447   1.247   6.500 -0.7388  0.0408  2.0112
  131OSM     O314104   0.642   1.258   6.469  0.2627 -0.2690 -0.1230
  131OSM    HO314105   0.663   1.224   6.381 -0.7165  0.6724 -0.7416
  131OSM    C4S14106   0.550   1.157   6.660 -0.4929 -0.1828  0.6332
  131OSM    H4S14107   0.651   1.126   6.689  0.0495 -0.4642 -1.4085
  131OSM    C5S14108   0.457   1.177   6.750 -0.1623 -0.7221 -0.4989
  131OSM    H5S14109   0.356   1.212   6.727 -0.6381 -0.9585  1.0979
  131OSM    C6S14110   0.476   1.154   6.904 -0.2317  0.2417  0.4177
  131OSM    H6S14111   0.413   1.225   6.963 -0.6633 -1.6177  2.3458
  131OSM    H6T14112   0.582   1.171   6.934 -0.0948 -1.4665  0.9771
  131OSM    C7S14113   0.438   1.008   6.953  0.3714 -0.1423  0.2583
  131OSM    H7S14114   0.517   0.941   6.912  0.2683 -1.1092  1.6042
  131OSM    H7T14115   0.350   0.984   6.890  1.1052  0.4689 -1.0416
  131OSM    C8S14116   0.411   0.993   7.102 -0.2483  0.1814 -0.1828
  131OSM    H8S14117   0.385   0.891   7.138  0.4327 -0.1854 -0.7037
  131OSM    H8T14118   0.325   1.057   7.132  0.5086  0.8532  0.5852
  131OSM    C9S14119   0.521   1.037   7.200  0.1281 -0.1391 -0.0612
  131OSM    H9S14120   0.536   1.145   7.181 -1.7725  0.5856  2.1241
  131OSM    H9T14121   0.621   0.999   7.171  0.6271  0.0231  1.3723
  131OSM   C10S14122   0.505   1.005   7.348 -1.0354 -0.4971  0.0266
  131OSM   H10S14123   0.401   1.023   7.384 -1.7711 -0.0698 -2.1593
  131OSM   H10T14124   0.574   1.063   7.413  1.7383  0.3808 -3.4194
  131OSM   C11S14125   0.544   0.860   7.379  0.6539  0.4037 -0.0991
  131OSM   H11S14126   0.645   0.841   7.338  1.0109 -1.2615  1.4243
  131OSM   H11T14127   0.476   0.791   7.325  1.6335 -0.7715  0.1267
  131OSM   C12S14128   0.549   0.829   7.526 -0.2354 -0.0633  0.0203
  131OSM   H12S14129   0.448   0.836   7.572  0.7952  1.9696  2.1683
  131OSM   H12T14130   0.615   0.898   7.583  0.8996  0.6645 -2.0523
  131OSM   C13S14131   0.609   0.681   7.534  0.3817 -0.7568  0.1706
  131OSM   H13S14132   0.714   0.684   7.498  0.3583  2.0791  0.1000
  131OSM   H13T14133   0.548   0.610   7.474 -0.0798 -0.8417  0.7310
  131OSM   C14S14134   0.606   0.630   7.685 -0.2628  0.7331  0.3746
  131OSM   H14S14135   0.506   0.647   7.731 -2.5439 -1.4022 -3.3249
  131OSM   H14T14136   0.683   0.691   7.737  1.8076 -0.6920 -0.9063
  131OSM   C15S14137   0.640   0.480   7.701  0.4485  0.4528 -0.0493
  131OSM   H15S14138   0.746   0.469   7.668  0.1547 -1.1131 -0.5228
  131OSM   H15T14139   0.577   0.425   7.628  0.9152  2.0894 -1.7737
  131OSM   C16S14140   0.615   0.429   7.839 -0.1425 -0.0344 -0.6516
  131OSM   H16S14141   0.635   0.320   7.844  0.4081  0.1045  0.4361
  131OSM   H16T14142   0.510   0.455   7.863  0.7359  1.2008  2.3595
  131OSM   C17S14143   0.701   0.486   7.947 -0.1804  0.3295 -0.5489
  131OSM   H17S14144   0.682   0.594   7.958 -1.6612  0.0691 -0.3298
  131OSM   H17T14145   0.805   0.469   7.912  0.8492  0.6797  2.0809
  131OSM   C18S14146   0.684   0.417   8.083  0.3436  0.6130  0.6532
  131OSM   H18S14147   0.768   0.438   8.153  1.7704  1.1347 -1.1379
  131OSM   H18T14148   0.678   0.306   8.078 -1.7558  0.7284 -0.4093
  131OSM   H18U14149   0.585   0.453   8.120  0.5283  3.8874 -1.6050
  131OSM    C1F14150   0.394   0.846   6.437 -0.5798  0.4880  0.2608
  131OSM     OF14151   0.472   0.782   6.370  0.4453 -0.9147  0.5417
  131OSM    C2F14152   0.274   0.772   6.499  0.1532  0.3641  0.1488
  131OSM    H2F14153   0.273   0.671   6.454 -0.0586 -0.0051  0.9559
  131OSM    H2G14154   0.188   0.832   6.463  0.8038  1.5574  0.5074
  131OSM    C3F14155   0.271   0.748   6.653  0.1300  0.5404  0.4681
  131OSM    H3F14156   0.173   0.702   6.677  0.1133 -0.2084 -0.9336
  131OSM    H3G14157   0.276   0.848   6.701  0.6642  0.6152  0.2647
  131OSM    C4F14158   0.386   0.662   6.709 -0.5696  0.1085 -0.4138
  131OSM    H4F14159   0.483   0.710   6.682 -1.7164  2.8543 -0.0154
  131OSM    H4G14160   0.383   0.564   6.657 -1.6214 -0.1200  0.0691
  131OSM    C5F14161   0.386   0.650   6.861  1.4241 -0.0253  0.0102
  131OSM    H5F14162   0.321   0.563   6.884 -0.9044  1.1685 -1.6717
  131OSM    H5G14163   0.344   0.739   6.911  0.1409 -0.1965 -0.7094
  131OSM    C6F14164   0.527   0.624   6.913 -0.2195  0.6972 -0.0604
  131OSM    H6F14165   0.594   0.703   6.875  0.6536  1.0513  2.0687
  131OSM    H6G14166   0.560   0.524   6.877  0.6267  1.8308 -2.6956
  131OSM    C7F14167   0.532   0.620   7.066  0.0716 -0.5264  0.1977
  131OSM    H7F14168   0.440   0.569   7.102  0.1859 -0.4494  0.6057
  131OSM    H7G14169   0.527   0.720   7.114  1.1567 -0.3805  0.0356
  131OSM    C8F14170   0.647   0.526   7.123 -0.0040  0.6265  0.1213
  131OSM    H8F14171   0.611   0.423   7.100  0.7012  0.4807 -0.3485
  131OSM    H8G14172   0.663   0.525   7.233 -2.1332  1.0202  0.4901
  131OSM    C9F14173   0.782   0.568   7.062 -0.0817  0.1128  0.4128
  131OSM    H9F14174   0.767   0.561   6.953 -1.8206  1.1418  0.5390
  131OSM   C10F14175   0.897   0.600   7.119  0.0879  1.0215  0.0802
  131OSM   H10F14176   0.978   0.635   7.053 -1.3208  0.4845 -2.0390
  131OSM   C11F14177   0.927   0.599   7.269  0.4029 -0.5279 -0.1081
  131OSM   H11F14178   1.008   0.525   7.287  0.4512 -0.6720 -0.8459
  131OSM   H11G14179   0.844   0.563   7.334  0.0985  0.1593 -0.1007
  131OSM   C12F14180   0.962   0.736   7.326  0.4693 -0.1552 -0.0024
  131OSM   H12F14181   0.867   0.792   7.339 -0.8402 -1.4507 -3.0595
  131OSM   H12G14182   1.010   0.788   7.240  0.6660  0.9826  0.7638
  131OSM   C13F14183   1.061   0.730   7.444 -0.0038  0.3736 -0.8724
  131OSM   H13F14184   1.091   0.830   7.482 -1.9277  0.0555  1.7771
  131OSM   H13G14185   1.154   0.679   7.413 -1.3582 -2.3612 -0.7043
  131OSM   C14F14186   1.007   0.658   7.571 -0.9099  0.2944 -0.1276
  131OSM   H14F14187   0.970   0.557   7.547 -1.1857  0.3305  0.1417
  131OSM   H14G14188   0.916   0.712   7.604 -0.4250  1.5166 -0.6887
  131OSM   C15F14189   1.104   0.647   7.691 -0.0861  0.1875  0.4543
  131OSM   H15F14190   1.154   0.744   7.713 -0.6416  0.8783 -1.2059
  131OSM   H15G14191   1.190   0.584   7.659  0.5806  1.7514 -0.9658
  131OSM   C16F14192   1.035   0.594   7.818  0.2444 -0.7548  0.2121
  131OSM   H16F14193   1.003   0.489   7.802  2.7788 -1.4476 -0.7916
  131OSM   H16G14194   0.949   0.663   7.832 -1.3624 -2.7123  0.4667
  131OSM   C17F14195   1.126   0.614   7.940  0.9956  0.6858 -0.0029
  131OSM   H17F14196   1.149   0.722   7.948  0.1883  0.9628 -1.2994
  131OSM   H17G14197   1.218   0.553   7.924  0.0489 -0.5382 -0.9528
  131OSM   C18F14198   1.070   0.554   8.074 -0.7439  0.0841 -0.3821
  131OSM   H18F14199   1.159   0.541   8.139 -2.1293 -2.2129  1.1737
  131OSM   H18G14200   1.023   0.457   8.049 -0.6164  0.6300 -3.1294
  131OSM   H18H14201   0.998   0.633   8.104 -1.0957  0.4187 -1.9821
  132OSM      N14202   6.254   2.549   6.283 -0.5618  0.3264 -0.4496
  132OSM    C1514203   6.208   2.692   6.276  0.5442 -0.8894  0.6039
  132OSM   H15A14204   6.251   2.737   6.188  0.1697  0.6452  1.1752
  132OSM   H15B14205   6.232   2.755   6.360  1.8151 -0.0395 -0.3633
  132OSM   H15C14206   6.102   2.704   6.267  0.8684  1.4695 -0.7852
  132OSM    C1414207   6.239   2.478   6.155 -0.0358 -0.4619  0.2879
  132OSM   H14A14208   6.317   2.512   6.088  0.2588  0.1044  0.8985
  132OSM   H14B14209   6.147   2.505   6.106  0.6103  0.0711 -0.6942
  132OSM   H14C14210   6.244   2.371   6.165 -2.7230 -0.8626 -1.6210
  132OSM    C1314211   6.395   2.547   6.317  0.1751  0.4684  0.5562
  132OSM   H13A14212   6.428   2.449   6.349 -1.5926  0.0636  1.2712
  132OSM   H13B14213   6.426   2.620   6.391  1.1112  0.9776 -0.3090
  132OSM   H13C14214   6.453   2.583   6.234 -0.2931  0.8542  0.3925
  132OSM    C1214215   6.183   2.466   6.394  0.3950  0.1777  0.0188
  132OSM   H12A14216   6.087   2.510   6.419  0.6073 -0.1031  1.4725
  132OSM   H12B14217   6.250   2.474   6.479  0.7497  0.5493 -0.2982
  132OSM    C1114218   6.168   2.311   6.375  0.4451 -0.5113  0.4643
  132OSM   H11A14219   6.110   2.293   6.283  2.3104  1.9472 -1.3279
  132OSM   H11B14220   6.105   2.261   6.451 -1.5715 -0.4761 -1.1056
  132OSM      P14221   6.322   2.128   6.265 -0.3336 -0.1619 -0.4506
  132OSM    O1314222   6.278   2.157   6.129 -0.1885  0.4142 -0.7081
  132OSM    O1414223   6.466   2.085   6.281 -0.3731  0.2258  0.1319
  132OSM    O1114224   6.231   2.019   6.332 -0.3844  0.7922 -0.4948
  132OSM    O1214225   6.299   2.253   6.365 -0.4738  0.5272 -0.2223
  132OSM    C1S14226   6.269   1.928   6.433 -0.1306 -0.4682  0.0192
  132OSM    H1S14227   6.375   1.937   6.463 -0.0389 -0.4240 -0.3211
  132OSM    H1T14228   6.249   1.827   6.392 -2.5679  0.8581 -2.4404
  132OSM     NF14229   6.246   1.868   6.671  0.1182  0.2092 -0.0840
  132OSM    HNF14230   6.202   1.779   6.683 -0.7132  0.8973  2.8450
  132OSM    C2S14231   6.192   1.955   6.567 -0.0582 -0.8323 -0.2215
  132OSM    H2S14232   6.204   2.065   6.579 -0.5166 -0.5085 -2.3212
  132OSM    C3S14233   6.038   1.945   6.549  0.3337  0.3608 -0.1363
  132OSM    H3S14234   6.020   1.840   6.515  0.0436  0.2039  0.4937
  132OSM     O314235   5.981   2.027   6.446  0.4355  0.3137 -0.0893
  132OSM    HO314236   6.054   2.046   6.386  0.8244 -0.2550  0.1929
  132OSM    C4S14237   5.961   1.964   6.679 -1.1547  0.2412  0.1129
  132OSM    H4S14238   5.989   1.892   6.757 -0.5238  0.9712  0.5859
  132OSM    C5S14239   5.865   2.057   6.708  0.4875 -0.3445  0.0177
  132OSM    H5S14240   5.823   2.122   6.630  0.2273  0.1766  0.5785
  132OSM    C6S14241   5.801   2.075   6.846 -0.2926  0.4533 -0.0661
  132OSM    H6S14242   5.717   2.002   6.852  0.8344 -0.9629 -0.6695
  132OSM    H6T14243   5.752   2.174   6.857 -1.1731  0.0765 -0.4700
  132OSM    C7S14244   5.891   2.048   6.965 -0.3545 -0.0857 -0.4450
  132OSM    H7S14245   5.981   2.113   6.959  0.4662 -1.0494  0.7710
  132OSM    H7T14246   5.941   1.948   6.970  0.3559  0.2584 -0.4938
  132OSM    C8S14247   5.808   2.061   7.096  0.4372  0.8048 -0.2214
  132OSM    H8S14248   5.732   1.981   7.101 -0.3701  1.4648 -1.4560
  132OSM    H8T14249   5.758   2.159   7.083 -1.0184  0.4556  2.1078
  132OSM    C9S14250   5.891   2.040   7.216 -1.0147 -0.0539 -0.1503
  132OSM    H9S14251   5.986   2.095   7.199 -0.8226 -0.2238  0.3492
  132OSM    H9T14252   5.932   1.936   7.225  0.6090  0.6453  1.1692
  132OSM   C10S14253   5.804   2.065   7.338  0.1167 -0.0132  0.2143
  132OSM   H10S14254   5.719   1.993   7.345  1.6111 -1.7254  2.1781
  132OSM   H10T14255   5.756   2.165   7.344  0.8505  0.3789 -0.3273
  132OSM   C11S14256   5.883   2.045   7.466 -0.2300 -0.0804 -0.8307
  132OSM   H11S14257   5.965   2.118   7.480  0.2136 -0.3044 -2.1756
  132OSM   H11T14258   5.922   1.942   7.454  3.1101  1.0931 -0.9342
  132OSM   C12S14259   5.809   2.054   7.599  0.5349  0.1144 -0.1689
  132OSM   H12S14260   5.729   1.977   7.591  1.0865 -0.4580 -0.2537
  132OSM   H12T14261   5.776   2.160   7.606  0.3459 -0.0446  2.5999
  132OSM   C13S14262   5.895   2.031   7.718 -0.5876  0.9994  0.4147
  132OSM   H13S14263   5.968   2.112   7.735 -0.2384  0.4259  1.8195
  132OSM   H13T14264   5.957   1.939   7.711 -1.9014  0.0458  0.8973
  132OSM   C14S14265   5.825   2.017   7.851  0.2866  0.7310  0.1816
  132OSM   H14S14266   5.768   1.922   7.862 -0.1124  1.0088  0.5208
  132OSM   H14T14267   5.774   2.115   7.865 -1.5675  0.0544 -1.3614
  132OSM   C15S14268   5.930   2.004   7.964  0.3813 -0.1215 -0.0482
  132OSM   H15S14269   6.003   2.087   7.949  0.2362 -0.0678 -0.4988
  132OSM   H15T14270   5.989   1.911   7.949 -0.0543 -0.5437  0.8181
  132OSM   C16S14271   5.873   1.997   8.106 -0.4803  0.4083 -0.1960
  132OSM   H16S14272   5.794   1.920   8.098  0.7531 -0.7731 -1.6015
  132OSM   H16T14273   5.854   2.100   8.143  1.0743  0.4569  0.5633
  132OSM   C17S14274   5.967   1.940   8.215  0.4179  0.2455  1.0143
  132OSM   H17S14275   6.046   2.014   8.240  0.5135  0.6425 -0.3882
  132OSM   H17T14276   6.028   1.852   8.185  0.8224  0.5809  0.8465
  132OSM   C18S14277   5.904   1.897   8.345 -0.2754 -0.3699  0.1150
  132OSM   H18S14278   5.839   1.976   8.388 -0.3438  0.4983 -1.5400
  132OSM   H18T14279   5.995   1.870   8.403 -0.7694  0.7636  1.4639
  132OSM   H18U14280   5.843   1.805   8.340 -1.6698  0.5908 -1.5753
  132OSM    C1F14281   6.362   1.890   6.732  0.1833  0.5172 -0.0812
  132OSM     OF14282   6.424   1.992   6.702 -0.8285  0.9718  0.0729
  132OSM    C2F14283   6.407   1.796   6.843  0.9820  0.0874  0.5827
  132OSM    H2F14284   6.511   1.820   6.873  1.3335  0.7601 -1.0498
  132OSM    H2G14285   6.403   1.695   6.796 -0.4438  0.2161  0.3873
  132OSM    C3F14286   6.319   1.808   6.978 -0.3233  0.1416  0.5168
  132OSM    H3F14287   6.213   1.824   6.950 -1.2855 -4.7731  0.5660
  132OSM    H3G14288   6.354   1.891   7.044 -0.2663  3.0563 -2.8841
  132OSM    C4F14289   6.340   1.679   7.060  0.5445  0.0053 -0.2173
  132OSM    H4F14290   6.347   1.596   6.985  0.0790 -0.0609 -0.1885
  132OSM    H4G14291   6.247   1.664   7.118  0.4604  3.3072  0.6606
  132OSM    C5F14292   6.459   1.691   7.151  0.0831 -0.3278  0.1319
  132OSM    H5F14293   6.440   1.765   7.232  0.7098  0.1342 -0.1313
  132OSM    H5G14294   6.549   1.717   7.091  1.1199 -1.2858  1.2175
  132OSM    C6F14295   6.500   1.564   7.211  0.0384  0.2039  0.1023
  132OSM    H6F14296   6.505   1.494   7.124 -0.1055  0.6182 -0.2413
  132OSM    H6G14297   6.418   1.528   7.277 -1.7034  2.4977 -0.6845
  132OSM    C7F14298   6.621   1.570   7.299 -0.0954 -0.5052  0.1633
  132OSM    H7F14299   6.700   1.607   7.231 -0.8922  0.2186 -0.3914
  132OSM    H7G14300   6.660   1.470   7.328  0.2810 -0.0820  1.1963
  132OSM    C8F14301   6.607   1.642   7.435 -0.0530  0.5896  0.1592
  132OSM    H8F14302   6.555   1.734   7.401 -0.6408 -0.2351 -1.2296
  132OSM    H8G14303   6.697   1.686   7.483  0.3660 -0.4191  0.3392
  132OSM    C9F14304   6.515   1.577   7.533 -0.2287 -1.1146  0.0546
  132OSM    H9F14305   6.412   1.560   7.501 -0.6263 -0.2692  0.8253
  132OSM   C10F14306   6.541   1.558   7.664 -0.5586 -0.0998 -1.2775
  132OSM   H10F14307   6.469   1.514   7.735  2.6106 -1.1747  1.4903
  132OSM   C11F14308   6.670   1.577   7.740  0.0185  0.2084  0.1139
  132OSM   H11F14309   6.744   1.644   7.690  1.6391  2.0842  4.5296
  132OSM   H11G14310   6.717   1.482   7.775  1.6419  0.3796 -1.4120
  132OSM   C12F14311   6.650   1.664   7.868 -0.8166  0.0446  0.2231
  132OSM   H12F14312   6.582   1.616   7.941 -2.1710 -0.7741 -1.4949
  132OSM   H12G14313   6.606   1.763   7.842  0.0783  0.3036 -0.3481
  132OSM   C13F14314   6.790   1.693   7.938  0.2225  0.0161  0.0396
  132OSM   H13F14315   6.786   1.785   8.000 -0.5627 -0.4717  0.7313
  132OSM   H13G14316   6.874   1.689   7.865  0.6580  0.6857  0.4929
  132OSM   C14F14317   6.821   1.589   8.048 -0.3942  0.3838 -0.0601
  132OSM   H14F14318   6.832   1.488   8.005  1.0692 -0.2737  1.7318
  132OSM   H14G14319   6.743   1.588   8.128 -0.3832 -1.9236 -0.0134
  132OSM   C15F14320   6.951   1.628   8.109  0.5316  0.3376  0.0822
  132OSM   H15F14321   6.955   1.573   8.205  1.2476 -3.0731 -1.7564
  132OSM   H15G14322   6.953   1.738   8.128  2.9671  0.8949 -2.6871
  132OSM   C16F14323   7.084   1.598   8.034  0.2707 -0.0927  0.4655
  132OSM   H16F14324   7.065   1.580   7.927 -1.7163 -0.4729  0.8441
  132OSM   H16G14325   7.120   1.501   8.075  1.2500  0.5573  1.1898
  132OSM   C17F14326   7.192   1.705   8.064 -0.1067 -0.8846  0.4509
  132OSM   H17F14327   7.184   1.744   8.168 -0.6731  1.5705 -0.4405
  132OSM   H17G14328   7.156   1.798   8.014  0.2366 -1.5403 -1.0926
  132OSM   C18F14329   7.333   1.674   8.016  0.7191  0.3365  0.0333
  132OSM   H18F14330   7.328   1.650   7.908  0.6243 -0.2362  0.1605
  132OSM   H18G14331   7.367   1.576   8.057 -2.8248 -0.5588  1.2724
  132OSM   H18H14332   7.412   1.746   8.043  2.7588 -2.6166  2.6521
  133OSM      N14333   1.557   2.471   5.940  0.2772 -0.3800 -0.4282
  133OSM    C1514334   1.630   2.373   5.856 -0.5254 -0.8813 -0.1282
  133OSM   H15A14335   1.584   2.369   5.758 -2.0119 -2.1205  0.5684
  133OSM   H15B14336   1.621   2.273   5.896 -0.4674 -0.2262  1.5779
  133OSM   H15C14337   1.735   2.395   5.844 -0.5091  0.8474  2.5086
  133OSM    C1414338   1.592   2.613   5.897 -0.4561 -0.8774 -0.1318
  133OSM   H14A14339   1.696   2.636   5.915 -0.3262 -0.5014 -1.3057
  133OSM   H14B14340   1.538   2.684   5.957 -0.6631  0.5166 -1.9082
  133OSM   H14C14341   1.574   2.627   5.792  0.4102  0.1587 -0.1578
  133OSM    C1314342   1.404   2.457   5.927  0.0379 -0.0004  0.2779
  133OSM   H13A14343   1.380   2.351   5.927 -0.9017  0.0660 -3.8924
  133OSM   H13B14344   1.371   2.497   5.833 -1.8607 -0.9120  0.5024
  133OSM   H13C14345   1.344   2.498   6.008 -1.9908 -1.7423 -0.2515
  133OSM    C1214346   1.598   2.453   6.087  0.1801  0.0339 -0.2802
  133OSM   H12A14347   1.524   2.506   6.144  1.6101  1.1941  0.5829
  133OSM   H12B14348   1.694   2.496   6.111 -1.3218  2.9818  0.9587
  133OSM    C1114349   1.584   2.308   6.141  0.0439 -0.4094 -0.2096
  133OSM   H11A14350   1.631   2.303   6.242  0.4922 -1.2287 -0.4553
  133OSM   H11B14351   1.645   2.249   6.070 -1.3043 -0.0407 -1.7229
  133OSM      P14352   1.351   2.301   6.249 -0.0100 -0.5227  0.1877
  133OSM    O1314353   1.343   2.449   6.254 -0.6020  0.1698  0.2625
  133OSM    O1414354   1.224   2.234   6.226  0.1992 -0.0584 -0.3101
  133OSM    O1114355   1.418   2.247   6.380  0.0829 -0.3025 -0.1742
  133OSM    O1214356   1.450   2.266   6.140 -1.1198  0.3512 -0.5758
  133OSM    C1S14357   1.459   2.108   6.393 -0.2713  0.4510  0.1183
  133OSM    H1S14358   1.550   2.087   6.334 -2.2907 -2.4027 -2.2651
  133OSM    H1T14359   1.381   2.033   6.367  0.9186 -0.7138 -0.1439
  133OSM     NF14360   1.563   1.959   6.567 -1.3112  0.1564 -0.4529
  133OSM    HNF14361   1.519   1.896   6.631  1.9775  1.3915  3.5230
  133OSM    C2S14362   1.505   2.090   6.538 -0.5555 -0.2599  0.3604
  133OSM    H2S14363   1.580   2.170   6.554 -0.9839  0.0906  0.6420
  133OSM    C3S14364   1.389   2.124   6.642 -0.2307  0.0086  0.6792
  133OSM    H3S14365   1.313   2.043   6.630  1.3561 -1.2559 -1.6608
  133OSM     O314366   1.325   2.249   6.627 -0.7053 -0.3745 -0.2363
  133OSM    HO314367   1.328   2.268   6.533 -1.3919  2.2906  0.2038
  133OSM    C4S14368   1.439   2.108   6.781  0.0003 -0.0514 -0.2804
  133OSM    H4S14369   1.434   2.004   6.816 -3.9467 -0.4406 -1.5288
  133OSM    C5S14370   1.486   2.205   6.864  0.1239  0.9071  0.1126
  133OSM    H5S14371   1.488   2.308   6.827  2.2222  0.7968 -0.1952
  133OSM    C6S14372   1.521   2.189   7.010  0.0034  0.4126  0.0083
  133OSM    H6S14373   1.469   2.255   7.082 -0.1436 -1.3530  1.6020
  133OSM    H6T14374   1.625   2.227   7.014 -0.2214  1.1646 -0.8247
  133OSM    C7S14375   1.511   2.047   7.069  0.1192  0.3092 -0.0420
  133OSM    H7S14376   1.583   1.973   7.028 -1.3685 -1.0204 -0.3503
  133OSM    H7T14377   1.413   1.998   7.049  0.0332  0.6614 -0.4935
  133OSM    C8S14378   1.539   2.038   7.220  0.0578  0.0054 -0.2744
  133OSM    H8S14379   1.478   2.117   7.268  0.1213 -0.1996  0.1468
  133OSM    H8T14380   1.648   2.051   7.239 -0.0735  2.3443 -0.8985
  133OSM    C9S14381   1.492   1.906   7.285  0.3319 -0.0139  0.9915
  133OSM    H9S14382   1.551   1.819   7.250 -0.4040 -0.8782  1.8554
  133OSM    H9T14383   1.385   1.888   7.265  0.2283  0.7837  0.8040
  133OSM   C10S14384   1.488   1.919   7.442  0.1165  0.5704 -0.1313
  133OSM   H10S14385   1.567   1.987   7.479 -0.2996 -0.0249  2.0032
  133OSM   H10T14386   1.510   1.825   7.497  0.6109  1.2829  0.9176
  133OSM   C11S14387   1.359   1.988   7.483 -0.0862  0.0811 -0.5945
  133OSM   H11S14388   1.278   1.913   7.467  0.6112 -1.2939  1.7927
  133OSM   H11T14389   1.338   2.081   7.426  1.5855  1.5247  1.0009
  133OSM   C12S14390   1.347   2.021   7.631  0.1626  0.2126 -0.3992
  133OSM   H12S14391   1.249   2.060   7.665 -1.3350 -2.1016 -1.7940
  133OSM   H12T14392   1.422   2.099   7.658  2.2501 -1.7010 -0.3492
  133OSM   C13S14393   1.369   1.898   7.718 -0.3645  0.5835  0.0648
  133OSM   H13S14394   1.477   1.882   7.737 -0.1135  1.7663 -0.2905
  133OSM   H13T14395   1.315   1.809   7.678 -0.3096  0.2878  0.6374
  133OSM   C14S14396   1.299   1.924   7.858 -0.7506 -0.1535  0.2807
  133OSM   H14S14397   1.327   1.835   7.918  3.8441  1.1595  0.4706
  133OSM   H14T14398   1.191   1.926   7.835 -1.0297 -2.4868  1.1229
  133OSM   C15S14399   1.329   2.053   7.934 -0.2548 -0.5452  0.1298
  133OSM   H15S14400   1.300   2.140   7.871 -0.6294  0.4542  1.6045
  133OSM   H15T14401   1.435   2.046   7.967  0.0213 -0.3756 -0.7085
  133OSM   C16S14402   1.232   2.050   8.054  0.2265 -0.1240  0.2517
  133OSM   H16S14403   1.270   1.977   8.129  2.1149 -0.0166 -0.5651
  133OSM   H16T14404   1.126   2.028   8.029  0.2350 -0.6520  0.6579
  133OSM   C17S14405   1.221   2.194   8.124  0.7308 -0.0521  0.3117
  133OSM   H17S14406   1.135   2.248   8.080  1.2543 -0.9221 -1.9170
  133OSM   H17T14407   1.318   2.245   8.106  0.8676  0.5258  2.3644
  133OSM   C18S14408   1.200   2.177   8.274  0.4767  0.3131 -1.6417
  133OSM   H18S14409   1.111   2.115   8.300  1.3248 -1.7931 -3.3907
  133OSM   H18T14410   1.170   2.277   8.311 -1.2264  0.3645 -2.9906
  133OSM   H18U14411   1.283   2.144   8.340 -2.0253  0.4913  1.8710
  133OSM    C1F14412   1.687   1.931   6.531 -0.4677  0.2529 -0.2684
  133OSM     OF14413   1.760   2.012   6.473  0.5259  0.1987 -0.0365
  133OSM    C2F14414   1.749   1.802   6.566  0.0531  0.2803 -0.1910
  133OSM    H2F14415   1.788   1.751   6.475  0.7606 -0.1971  0.3680
  133OSM    H2G14416   1.676   1.730   6.608  3.3918 -3.0555  0.4285
  133OSM    C3F14417   1.860   1.822   6.676  0.6685  0.2593  1.0261
  133OSM    H3F14418   1.816   1.863   6.769  0.8477  0.9830  0.7948
  133OSM    H3G14419   1.935   1.901   6.652  1.5659 -0.0156  2.7735
  133OSM    C4F14420   1.941   1.707   6.712 -0.3185  0.1553 -0.0126
  133OSM    H4F14421   2.021   1.735   6.784 -0.0202 -1.2384  0.2356
  133OSM    H4G14422   1.988   1.672   6.617  0.0789 -1.0485  0.6049
  133OSM    C5F14423   1.869   1.586   6.771  0.4886 -0.2108  0.1848
  133OSM    H5F14424   1.944   1.504   6.777 -0.4572 -1.0520  1.1298
  133OSM    H5G14425   1.783   1.553   6.708  0.4009 -0.5223  0.4639
  133OSM    C6F14426   1.825   1.605   6.916 -0.9952 -0.1654 -0.5831
  133OSM    H6F14427   1.726   1.651   6.933 -0.9246 -0.2540  0.1032
  133OSM    H6G14428   1.906   1.671   6.955 -1.2753 -0.4330  0.4937
  133OSM    C7F14429   1.823   1.464   6.971  0.1204 -0.4226  0.3458
  133OSM    H7F14430   1.927   1.430   6.991  1.5238  3.8903  1.3954
  133OSM    H7G14431   1.792   1.391   6.893  3.1846 -0.6232 -0.8448
  133OSM    C8F14432   1.736   1.441   7.095 -0.2331  0.3260  0.0018
  133OSM    H8F14433   1.733   1.332   7.118 -1.1078 -0.0037 -1.5221
  133OSM    H8G14434   1.637   1.476   7.059  1.1897  1.9750 -2.5908
  133OSM    C9F14435   1.775   1.523   7.216 -0.9709  0.0261 -0.4103
  133OSM    H9F14436   1.767   1.632   7.206 -1.0640  0.3806  2.6057
  133OSM   C10F14437   1.819   1.479   7.337 -0.4083  0.3623 -0.0198
  133OSM   H10F14438   1.837   1.554   7.415 -0.4390 -1.6559  2.0097
  133OSM   C11F14439   1.842   1.337   7.379  0.8103 -0.0901 -0.6699
  133OSM   H11F14440   1.779   1.265   7.323 -0.9144  0.7102  0.1707
  133OSM   H11G14441   1.818   1.330   7.487 -1.7986  3.8222 -0.7559
  133OSM   C12F14442   1.985   1.285   7.367 -0.6307 -0.5616  0.0916
  133OSM   H12F14443   2.062   1.357   7.401 -0.2284 -0.9226 -0.0460
  133OSM   H12G14444   2.025   1.268   7.265 -1.1139  0.0208 -0.1960
  133OSM   C13F14445   2.011   1.160   7.458 -0.3152 -0.3343  0.6138
  133OSM   H13F14446   2.098   1.103   7.419  0.6981  0.7942  1.1580
  133OSM   H13G14447   1.930   1.084   7.452  0.6757 -1.3461 -0.3939
  133OSM   C14F14448   2.053   1.194   7.607  0.2627  0.2622  0.1909
  133OSM   H14F14449   1.964   1.238   7.657 -0.9843 -1.0731 -0.7779
  133OSM   H14G14450   2.132   1.271   7.594  0.2493  0.5024  1.4268
  133OSM   C15F14451   2.107   1.082   7.691  0.3771  0.6583  0.3743
  133OSM   H15F14452   2.193   1.036   7.638 -0.1048  0.3253 -0.1260
  133OSM   H15G14453   2.035   0.998   7.695 -0.6026  1.4723  4.1823
  133OSM   C16F14454   2.152   1.131   7.835 -0.0958  0.4016 -0.0930
  133OSM   H16F14455   2.062   1.177   7.881 -0.7371 -1.2010  0.2966
  133OSM   H16G14456   2.225   1.206   7.796 -0.9354  1.2944  0.0035
  133OSM   C17F14457   2.219   1.046   7.934 -0.2330  0.4118  0.4060
  133OSM   H17F14458   2.305   0.991   7.889 -1.0593 -2.2274  1.8265
  133OSM   H17G14459   2.152   0.969   7.978 -0.6772 -0.1052 -1.1207
  133OSM   C18F14460   2.278   1.121   8.050 -0.2163  0.1623  0.2537
  133OSM   H18F14461   2.195   1.159   8.113 -0.5449 -2.6297  1.6719
  133OSM   H18G14462   2.339   1.202   8.004  1.3136 -0.6354  0.7859
  133OSM   H18H14463   2.340   1.053   8.113 -0.0099 -0.0372 -0.1641
  134OSM      N14464   1.416   5.904   6.372 -0.1325 -0.4766  0.5030
  134OSM    C1514465   1.332   5.952   6.262 -0.2933 -1.0494  0.2428
  134OSM   H15A14466   1.326   5.881   6.182 -3.7526 -2.3605  1.4501
  134OSM   H15B14467   1.358   6.053   6.233  0.8457 -1.4606 -0.1908
  134OSM   H15C14468   1.227   5.963   6.287 -0.6417  0.9054 -1.7814
  134OSM    C1414469   1.551   5.866   6.324  0.2222  0.7609 -0.1390
  134OSM   H14A14470   1.524   5.778   6.268 -1.3101  0.4382  1.0292
  134OSM   H14B14471   1.614   5.825   6.402 -0.7703  2.8264  1.8873
  134OSM   H14C14472   1.599   5.941   6.262 -1.6019  2.2300  0.1147
  134OSM    C1314473   1.426   6.011   6.470  0.6136  0.0968 -0.1259
  134OSM   H13A14474   1.329   6.042   6.505  0.8408 -0.8916  1.5185
  134OSM   H13B14475   1.467   6.103   6.431 -0.1081  0.6460  0.3965
  134OSM   H13C14476   1.481   5.990   6.561  0.7417 -0.8301 -0.4160
  134OSM    C1214477   1.347   5.775   6.420  0.2334 -0.0719 -0.0389
  134OSM   H12A14478   1.316   5.712   6.338 -1.8203 -1.5785  1.7803
  134OSM   H12B14479   1.250   5.801   6.461  1.0522  2.7079  0.3730
  134OSM    C1114480   1.414   5.690   6.530  0.6993 -0.4145 -0.4490
  134OSM   H11A14481   1.338   5.618   6.567 -1.0255  1.1239 -0.8777
  134OSM   H11B14482   1.444   5.759   6.611 -0.3760 -0.4417 -0.0132
  134OSM      P14483   1.528   5.484   6.414  0.2459  0.0666  0.0658
  134OSM    O1314484   1.434   5.475   6.302  0.0412 -0.2214  0.5161
  134OSM    O1414485   1.665   5.441   6.386 -0.3637 -0.1834 -0.0611
  134OSM    O1114486   1.466   5.379   6.520 -0.2024 -0.1760  0.1737
  134OSM    O1214487   1.527   5.630   6.476 -0.2488 -0.1983  0.4868
  134OSM    C1S14488   1.542   5.335   6.631 -0.7506 -0.0646 -0.6177
  134OSM    H1S14489   1.538   5.417   6.705  1.0880 -0.5035  0.0172
  134OSM    H1T14490   1.648   5.314   6.605 -1.7131 -4.3710 -2.0810
  134OSM     NF14491   1.553   5.168   6.821  0.1102  0.0809  0.1233
  134OSM    HNF14492   1.616   5.092   6.812 -1.2146 -1.2329  1.4248
  134OSM    C2S14493   1.493   5.199   6.695 -0.6765 -0.0704 -0.3992
  134OSM    H2S14494   1.383   5.200   6.713 -1.1195 -0.1303 -2.7396
  134OSM    C3S14495   1.510   5.089   6.583 -0.2074  0.0844  0.0961
  134OSM    H3S14496   1.614   5.095   6.544  0.6982  2.5515  2.4929
  134OSM     O314497   1.424   5.121   6.479 -0.0418 -0.6293  0.8655
  134OSM    HO314498   1.404   5.211   6.505  1.6351 -0.1961  0.7623
  134OSM    C4S14499   1.470   4.951   6.632 -0.3684 -0.4493 -0.6814
  134OSM    H4S14500   1.370   4.957   6.677 -1.4983 -3.1344 -2.5402
  134OSM    C5S14501   1.533   4.834   6.634 -0.6240 -0.2536  0.1500
  134OSM    H5S14502   1.638   4.832   6.601  0.0528  1.6054  1.9988
  134OSM    C6S14503   1.477   4.712   6.693  0.5595  0.7001  0.0696
  134OSM    H6S14504   1.534   4.618   6.674 -0.4349 -0.2965  1.8057
  134OSM    H6T14505   1.376   4.703   6.648  0.3615 -0.4129  0.7089
  134OSM    C7S14506   1.464   4.724   6.850  0.6878 -0.4438 -0.4113
  134OSM    H7S14507   1.419   4.633   6.896 -1.9044  1.7893  1.7764
  134OSM    H7T14508   1.383   4.796   6.873  2.3250  1.3603 -0.0827
  134OSM    C8S14509   1.599   4.756   6.927  0.2778  0.1388 -0.5642
  134OSM    H8S14510   1.643   4.856   6.908  0.2347 -0.0109 -1.4979
  134OSM    H8T14511   1.684   4.697   6.887 -0.5468 -3.1249  2.0707
  134OSM    C9S14512   1.586   4.717   7.083 -0.4236  1.0604 -0.1783
  134OSM    H9S14513   1.690   4.714   7.121 -0.1312 -0.5255 -0.9987
  134OSM    H9T14514   1.551   4.612   7.099  0.9736  0.7052  0.7982
  134OSM   C10S14515   1.509   4.809   7.176 -0.5229 -0.1631 -0.6418
  134OSM   H10S14516   1.403   4.801   7.141 -1.0186 -0.6415  0.8963
  134OSM   H10T14517   1.545   4.914   7.172 -0.2732 -0.2534 -0.7588
  134OSM   C11S14518   1.521   4.778   7.330  0.4119  0.1389 -0.1360
  134OSM   H11S14519   1.626   4.750   7.354  0.3098  0.6407  0.9510
  134OSM   H11T14520   1.457   4.689   7.350 -1.2688  1.3671  0.1394
  134OSM   C12S14521   1.477   4.890   7.422 -0.1832 -0.4214 -0.1039
  134OSM   H12S14522   1.367   4.875   7.431  0.2664 -3.5413  1.5701
  134OSM   H12T14523   1.506   4.994   7.398  2.7368 -0.6300  1.9974
  134OSM   C13S14524   1.511   4.869   7.576 -0.2975  0.5870 -0.3236
  134OSM   H13S14525   1.449   4.940   7.635  1.4282  0.6294  1.5587
  134OSM   H13T14526   1.619   4.892   7.585  0.6922 -3.1637 -1.1632
  134OSM   C14S14527   1.476   4.726   7.630  0.3687  0.2521 -0.7090
  134OSM   H14S14528   1.559   4.653   7.620  0.1818 -0.1331  0.4209
  134OSM   H14T14529   1.390   4.689   7.569 -2.1923  2.3942  1.3570
  134OSM   C15S14530   1.442   4.727   7.780 -0.2041 -0.3559 -0.6462
  134OSM   H15S14531   1.403   4.626   7.805  0.2465 -0.3605  0.0502
  134OSM   H15T14532   1.361   4.803   7.791 -0.6049 -0.8971  0.2496
  134OSM   C16S14533   1.567   4.749   7.864  0.1068  0.4265  0.3261
  134OSM   H16S14534   1.612   4.845   7.830 -1.7095  0.6050 -1.8309
  134OSM   H16T14535   1.642   4.670   7.843 -0.1530  0.0476  0.8241
  134OSM   C17S14536   1.542   4.763   8.019 -0.8219  0.5528 -0.8640
  134OSM   H17S14537   1.466   4.844   8.025 -3.7733 -2.0456 -0.1368
  134OSM   H17T14538   1.636   4.793   8.070 -0.8947 -0.1857 -0.2827
  134OSM   C18S14539   1.483   4.645   8.091 -0.3049  0.3967 -0.6426
  134OSM   H18S14540   1.402   4.599   8.029  2.0896 -3.0973 -1.4605
  134OSM   H18T14541   1.444   4.679   8.189  3.1764 -1.4715  1.5607
  134OSM   H18U14542   1.556   4.562   8.098 -0.6424 -0.0111 -1.6726
  134OSM    C1F14543   1.526   5.244   6.932  0.1620  0.6914 -0.3442
  134OSM     OF14544   1.448   5.340   6.934 -0.6401 -0.3386  0.1090
  134OSM    C2F14545   1.581   5.182   7.059  0.3753 -0.2356  0.1716
  134OSM    H2F14546   1.672   5.121   7.040  1.3144  1.0233  0.4893
  134OSM    H2G14547   1.492   5.127   7.096  1.2453 -1.3587  0.6256
  134OSM    C3F14548   1.601   5.286   7.176 -0.7110 -0.1038 -0.0798
  134OSM    H3F14549   1.517   5.359   7.180  0.7139  1.6739 -1.2007
  134OSM    H3G14550   1.686   5.353   7.151 -1.6159  0.3073 -2.2430
  134OSM    C4F14551   1.637   5.236   7.317 -0.6528 -0.1752 -0.5475
  134OSM    H4F14552   1.733   5.180   7.311  1.6371  3.3569  0.0725
  134OSM    H4G14553   1.552   5.173   7.351  0.4937 -1.6923 -0.4528
  134OSM    C5F14554   1.648   5.348   7.420 -0.1491 -0.5120  0.5960
  134OSM    H5F14555   1.556   5.409   7.409  0.1812 -0.2546 -0.9321
  134OSM    H5G14556   1.735   5.413   7.398  0.5282 -1.4486  0.4583
  134OSM    C6F14557   1.665   5.298   7.572 -0.1992  0.2392 -0.1774
  134OSM    H6F14558   1.753   5.231   7.583 -1.7462 -1.5961  2.0052
  134OSM    H6G14559   1.572   5.250   7.608 -1.8635  4.4773  1.8930
  134OSM    C7F14560   1.693   5.412   7.671  0.0848 -0.4315 -0.6293
  134OSM    H7F14561   1.620   5.495   7.660 -0.4481 -0.8919 -0.6095
  134OSM    H7G14562   1.791   5.460   7.651  0.3524 -0.7400 -0.0883
  134OSM    C8F14563   1.704   5.386   7.823 -0.4441  0.0222  0.4626
  134OSM    H8F14564   1.767   5.456   7.882  1.0525 -0.9912  0.1151
  134OSM    H8G14565   1.755   5.290   7.844 -1.1930 -0.1328  1.6746
  134OSM    C9F14566   1.560   5.381   7.862  0.4033  0.5598 -0.1177
  134OSM    H9F14567   1.512   5.476   7.835 -0.2068  0.7598  1.5732
  134OSM   C10F14568   1.495   5.275   7.921 -0.0002  0.4680 -0.3297
  134OSM   H10F14569   1.392   5.292   7.953 -0.0744 -0.4155 -0.0824
  134OSM   C11F14570   1.555   5.139   7.953  0.2238  0.2671  0.0453
  134OSM   H11F14571   1.658   5.119   7.914 -1.0562 -0.4878 -3.3267
  134OSM   H11G14572   1.492   5.058   7.912 -2.6848  2.0549  0.7314
  134OSM   C12F14573   1.540   5.106   8.106  0.1747  0.0577  0.4743
  134OSM   H12F14574   1.560   5.000   8.130  0.2890  0.0728  0.4454
  134OSM   H12G14575   1.432   5.109   8.134  0.2706  2.8417  0.8876
  134OSM   C13F14576   1.611   5.200   8.195  0.3610  0.2230 -0.3286
  134OSM   H13F14577   1.565   5.301   8.191  0.1684  0.1532  0.1314
  134OSM   H13G14578   1.719   5.199   8.167  0.3279 -1.6487 -0.5600
  134OSM   C14F14579   1.602   5.157   8.341  0.5342  1.1989  0.6266
  134OSM   H14F14580   1.700   5.164   8.393  0.6876  0.9572  0.3736
  134OSM   H14G14581   1.582   5.047   8.342  0.3749  1.1506 -1.8137
  134OSM   C15F14582   1.488   5.232   8.409 -0.0760 -0.1312  0.0134
  134OSM   H15F14583   1.388   5.204   8.367 -0.1763  0.5172 -0.2045
  134OSM   H15G14584   1.496   5.343   8.403 -0.4008 -0.1202 -0.2722
  134OSM   C16F14585   1.474   5.214   8.560  0.3589 -0.1905  0.1325
  134OSM   H16F14586   1.515   5.112   8.579  0.2010 -0.7590 -2.2612
  134OSM   H16G14587   1.369   5.220   8.593 -1.3599 -0.8474 -4.4219
  134OSM   C17F14588   1.557   5.314   8.643 -0.1459  0.5549  0.4420
  134OSM   H17F14589   1.489   5.402   8.645  0.1609  0.8250  2.7730
  134OSM   H17G14590   1.651   5.327   8.585 -0.4934 -0.5317 -0.3857
  134OSM   C18F14591   1.576   5.270   8.788 -0.8987  0.0818  0.5809
  134OSM   H18F14592   1.618   5.167   8.787  0.9549  0.8149  0.8930
  134OSM   H18G14593   1.482   5.279   8.847  0.7322 -1.5787  3.7111
  134OSM   H18H14594   1.656   5.326   8.840 -1.0645  0.3617  0.5374
  135OSM      N14595   0.525   5.674   6.491  0.0854  0.8511  0.0591
  135OSM    C1514596   0.391   5.699   6.432  0.1547 -0.9280  0.2159
  135OSM   H15A14597   0.315   5.683   6.507 -3.2450 -0.3054 -2.7923
  135OSM   H15B14598   0.361   5.632   6.354  0.4244  2.2848 -2.9207
  135OSM   H15C14599   0.373   5.800   6.397 -0.0356 -0.8501  0.5289
  135OSM    C1414600   0.621   5.701   6.378  0.0499  0.1446 -0.4108
  135OSM   H14A14601   0.718   5.655   6.392 -0.2678 -0.6985 -0.9041
  135OSM   H14B14602   0.639   5.807   6.371  0.0626  0.1422 -0.4149
  135OSM   H14C14603   0.577   5.675   6.283 -2.1897  1.0738  0.3181
  135OSM    C1314604   0.560   5.758   6.604  0.1863 -0.7680 -0.5292
  135OSM   H13A14605   0.564   5.861   6.571  0.6497 -0.8351 -0.6873
  135OSM   H13B14606   0.657   5.744   6.649 -0.0247 -1.1136 -0.1711
  135OSM   H13C14607   0.486   5.750   6.682  0.2335  0.7383 -0.2993
  135OSM    C1214608   0.539   5.521   6.538  0.9130 -0.1254  0.0004
  135OSM   H12A14609   0.489   5.460   6.464  1.4255 -0.4431 -0.0914
  135OSM   H12B14610   0.480   5.525   6.628  0.0260 -1.6947 -0.4826
  135OSM    C1114611   0.672   5.452   6.580 -0.0150  0.2110 -0.3361
  135OSM   H11A14612   0.647   5.348   6.609  1.0789 -0.4995 -1.7881
  135OSM   H11B14613   0.719   5.510   6.663  0.8971  1.5645 -1.7302
  135OSM      P14614   0.910   5.471   6.467 -0.4325  0.1845  0.0963
  135OSM    O1314615   0.980   5.387   6.359  0.6146  0.2646  0.7919
  135OSM    O1414616   0.902   5.610   6.468  0.1297 -0.3712  0.0171
  135OSM    O1114617   0.958   5.427   6.611  0.3048  0.2699 -0.4199
  135OSM    O1214618   0.756   5.434   6.464 -0.3166 -0.3508  0.1244
  135OSM    C1S14619   1.088   5.455   6.663 -0.1916  0.3477  0.6840
  135OSM    H1S14620   1.115   5.562   6.650  1.9087 -0.0308  1.4281
  135OSM    H1T14621   1.168   5.395   6.615 -1.0635 -1.5842  1.5337
  135OSM     NF14622   1.221   5.490   6.868 -0.4664 -0.0234  0.0115
  135OSM    HNF14623   1.289   5.428   6.906 -1.5416  0.6828  3.3702
  135OSM    C2S14624   1.103   5.423   6.819  0.2576 -0.7736 -0.5045
  135OSM    H2S14625   1.021   5.474   6.874  2.5130  0.5989  1.8591
  135OSM    C3S14626   1.103   5.271   6.841  0.2847 -0.4903  0.0466
  135OSM    H3S14627   1.187   5.227   6.783  0.6112  1.4287 -1.0158
  135OSM     O314628   0.977   5.215   6.798 -0.2110 -0.0030  0.8080
  135OSM    HO314629   0.939   5.279   6.738  2.2852 -1.0225 -2.1093
  135OSM    C4S14630   1.114   5.244   6.985  0.1668 -0.4331 -0.5205
  135OSM    H4S14631   1.068   5.316   7.054 -1.0460 -1.8336  0.1795
  135OSM    C5S14632   1.178   5.140   7.042  0.2427 -0.4161 -0.6463
  135OSM    H5S14633   1.227   5.071   6.971  2.0356 -0.2108  0.3375
  135OSM    C6S14634   1.193   5.099   7.186  0.6066 -0.4556  0.4682
  135OSM    H6S14635   1.294   5.060   7.212  0.8031  0.5059  1.1955
  135OSM    H6T14636   1.113   5.026   7.213 -0.4667  0.8751  0.9975
  135OSM    C7S14637   1.173   5.210   7.301  0.0108  0.3976  0.6835
  135OSM    H7S14638   1.071   5.252   7.286 -0.2701  0.2721  2.1700
  135OSM    H7T14639   1.253   5.287   7.288  0.3227 -0.3629 -3.1725
  135OSM    C8S14640   1.183   5.165   7.447  0.8320 -0.6172 -0.4626
  135OSM    H8S14641   1.276   5.112   7.476  1.5452  1.3297  1.0152
  135OSM    H8T14642   1.097   5.096   7.463  0.2897  0.2332  0.3761
  135OSM    C9S14643   1.180   5.286   7.538  0.4846  0.1888  0.5154
  135OSM    H9S14644   1.099   5.359   7.515  0.3723 -0.4282 -1.2187
  135OSM    H9T14645   1.274   5.342   7.519  0.5905 -0.6375 -1.8210
  135OSM   C10S14646   1.152   5.240   7.685  0.0686  0.1621  0.0535
  135OSM   H10S14647   1.237   5.171   7.707 -0.4446 -0.4025  0.3022
  135OSM   H10T14648   1.060   5.178   7.686  0.3618 -0.5010 -3.4277
  135OSM   C11S14649   1.145   5.351   7.788  0.1739 -0.2911 -0.3326
  135OSM   H11S14650   1.072   5.427   7.753  0.1411  0.4458  1.2489
  135OSM   H11T14651   1.244   5.400   7.797 -0.1964  0.2379  1.1792
  135OSM   C12S14652   1.115   5.299   7.929  0.4471 -1.1612  0.2168
  135OSM   H12S14653   1.183   5.213   7.947 -0.2880 -2.0970 -1.2955
  135OSM   H12T14654   1.014   5.256   7.917 -0.7759  1.4994  0.3254
  135OSM   C13S14655   1.133   5.402   8.041 -0.8289 -0.3845 -1.1847
  135OSM   H13S14656   1.068   5.491   8.028 -2.3586 -1.3627 -0.4119
  135OSM   H13T14657   1.237   5.442   8.034 -0.7161 -0.6815 -1.2243
  135OSM   C14S14658   1.129   5.349   8.184  0.4897 -0.2060  0.3866
  135OSM   H14S14659   1.208   5.271   8.191  0.3557 -0.2787  1.2004
  135OSM   H14T14660   1.037   5.293   8.210  1.5566 -2.1353  0.2295
  135OSM   C15S14661   1.165   5.460   8.281  0.4915  0.4355  0.1406
  135OSM   H15S14662   1.077   5.527   8.278 -0.6306 -0.9163  1.5639
  135OSM   H15T14663   1.256   5.520   8.257 -0.0213  0.9110 -0.6586
  135OSM   C16S14664   1.174   5.415   8.432  0.3382  0.0321  0.3816
  135OSM   H16S14665   1.265   5.354   8.449  0.9928  1.5082  2.6248
  135OSM   H16T14666   1.087   5.349   8.454  1.1339 -1.1205  0.1929
  135OSM   C17S14667   1.163   5.535   8.529 -0.3734 -0.0893 -0.1473
  135OSM   H17S14668   1.068   5.588   8.510 -0.3315  0.1909  0.4078
  135OSM   H17T14669   1.245   5.609   8.517  0.1784 -0.6095  0.3711
  135OSM   C18S14670   1.162   5.478   8.672  0.2678 -0.3566  0.0018
  135OSM   H18S14671   1.261   5.439   8.704  0.7818 -1.2694 -2.5011
  135OSM   H18T14672   1.089   5.395   8.684  1.0292 -0.8092  1.9353
  135OSM   H18U14673   1.135   5.556   8.746 -0.6868  0.2218 -0.9293
  135OSM    C1F14674   1.239   5.618   6.869 -0.2703  0.1296  0.3626
  135OSM     OF14675   1.147   5.699   6.840 -0.5463  0.4060  0.2428
  135OSM    C2F14676   1.385   5.668   6.889 -0.5333  0.3580  0.2417
  135OSM    H2F14677   1.436   5.639   6.795 -1.8140 -1.8989  0.1575
  135OSM    H2G14678   1.436   5.608   6.968 -1.3450 -1.0746 -0.2704
  135OSM    C3F14679   1.397   5.819   6.931 -0.1135  0.8987 -0.1861
  135OSM    H3F14680   1.350   5.877   6.848  1.4995 -0.0535 -1.8376
  135OSM    H3G14681   1.505   5.841   6.917  0.1789 -1.0849 -1.4197
  135OSM    C4F14682   1.340   5.851   7.074 -0.1494 -0.8103 -0.6000
  135OSM    H4F14683   1.232   5.825   7.070 -0.8962  2.0300 -0.9740
  135OSM    H4G14684   1.345   5.959   7.097  5.5159 -0.8000 -0.4260
  135OSM    C5F14685   1.405   5.773   7.188  0.1832  0.2774 -0.5370
  135OSM    H5F14686   1.510   5.808   7.195  0.3177 -0.2089 -0.0590
  135OSM    H5G14687   1.420   5.664   7.171 -0.7953  0.4435 -2.7813
  135OSM    C6F14688   1.330   5.782   7.324  0.0397  0.5208 -0.2061
  135OSM    H6F14689   1.225   5.745   7.324  0.4286 -0.6910 -1.6559
  135OSM    H6G14690   1.324   5.890   7.351  3.3020  1.6080 -3.0672
  135OSM    C7F14691   1.402   5.695   7.430  0.8443  0.0440 -0.4477
  135OSM    H7F14692   1.499   5.745   7.450  0.4421  1.0706 -1.0027
  135OSM    H7G14693   1.417   5.590   7.396  2.5867  0.0833  0.1102
  135OSM    C8F14694   1.312   5.690   7.552 -0.0618 -0.3559  0.0907
  135OSM    H8F14695   1.250   5.598   7.564 -1.3832  0.7050  1.9527
  135OSM    H8G14696   1.245   5.779   7.553  0.1632 -0.1919  0.8255
  135OSM    C9F14697   1.393   5.698   7.682  0.2854  0.0043  0.3486
  135OSM    H9F14698   1.502   5.695   7.669  0.2882 -1.6475  0.4766
  135OSM   C10F14699   1.343   5.726   7.809  0.5645  0.4374  0.6532
  135OSM   H10F14700   1.422   5.738   7.885  0.5032  0.9003  0.6497
  135OSM   C11F14701   1.199   5.763   7.841 -0.0466  0.6836  0.8788
  135OSM   H11F14702   1.139   5.674   7.869 -1.3070  0.7685 -1.2951
  135OSM   H11G14703   1.145   5.784   7.746  0.7403 -2.6815 -0.4695
  135OSM   C12F14704   1.178   5.877   7.943  0.4852  1.1487  0.7013
  135OSM   H12F14705   1.074   5.912   7.928  0.2531  0.6614  1.1258
  135OSM   H12G14706   1.243   5.964   7.921 -0.7277  1.4428 -2.1079
  135OSM   C13F14707   1.189   5.825   8.087  0.1128 -0.4065 -0.6627
  135OSM   H13F14708   1.294   5.791   8.101  0.6747  1.4162 -0.2036
  135OSM   H13G14709   1.122   5.738   8.105 -1.3445  0.5423 -1.3118
  135OSM   C14F14710   1.153   5.932   8.193 -0.5222  1.3847 -0.0942
  135OSM   H14F14711   1.050   5.963   8.165 -0.6424 -0.0952 -1.4585
  135OSM   H14G14712   1.215   6.024   8.186 -0.8982  1.7238  0.8540
  135OSM   C15F14713   1.141   5.880   8.335 -0.3017  0.8413  0.4201
  135OSM   H15F14714   1.247   5.879   8.368  0.3829  2.1114 -1.5269
  135OSM   H15G14715   1.100   5.777   8.339 -0.0330  0.7607  2.8542
  135OSM   C16F14716   1.057   5.966   8.428 -0.0404  0.3474 -0.4497
  135OSM   H16F14717   0.964   5.980   8.368  0.1597  1.6678 -0.4763
  135OSM   H16G14718   1.093   6.070   8.442  2.4153 -0.4536 -0.3612
  135OSM   C17F14719   1.021   5.910   8.566 -0.1170 -0.3749 -0.1418
  135OSM   H17F14720   1.114   5.895   8.624 -1.1475 -0.2186  1.6223
  135OSM   H17G14721   0.975   5.813   8.537  0.4842 -0.2682 -1.5376
  135OSM   C18F14722   0.939   5.996   8.658  0.7069  0.5225  0.0824
  135OSM   H18F14723   0.901   6.088   8.611 -0.8902  0.4047  1.0638
  135OSM   H18G14724   0.998   6.028   8.747  2.4273 -0.4792 -0.6317
  135OSM   H18H14725   0.848   5.936   8.680  1.2526 -0.9547 -1.4606
  136OSM      N14726   6.422   6.568   5.957  0.2589  0.1534 -0.6288
  136OSM    C1514727   6.509   6.546   6.074  0.1729 -0.2357  0.2292
  136OSM   H15A14728   6.597   6.607   6.056  1.6686 -2.5257 -0.7814
  136OSM   H15B14729   6.558   6.450   6.066 -0.6932 -0.5921 -1.1809
  136OSM   H15C14730   6.459   6.548   6.169  0.0238  0.7596  0.1484
  136OSM    C1414731   6.411   6.719   5.952  0.9306 -0.3684  0.0568
  136OSM   H14A14732   6.508   6.766   5.957  1.4669 -1.5609  2.5127
  136OSM   H14B14733   6.347   6.752   6.032 -0.3828 -2.4449 -0.0408
  136OSM   H14C14734   6.372   6.751   5.856  1.4580 -0.4507 -0.1871
  136OSM    C1314735   6.493   6.512   5.831 -0.3074 -1.1112 -0.2319
  136OSM   H13A14736   6.501   6.406   5.846 -1.0840 -0.9806  1.3983
  136OSM   H13B14737   6.595   6.545   5.819  0.5893 -2.5208  2.5507
  136OSM   H13C14738   6.438   6.525   5.739  0.0052 -0.5075 -0.3375
  136OSM    C1214739   6.287   6.500   5.966  0.0749  0.5270  0.1769
  136OSM   H12A14740   6.299   6.394   5.985 -1.2282  0.5287  1.1299
  136OSM   H12B14741   6.240   6.513   5.870 -2.9800  1.2817  1.6656
  136OSM    C1114742   6.187   6.548   6.076  0.2569  0.0131 -0.2954
  136OSM   H11A14743   6.172   6.655   6.053  1.8855 -0.1267 -2.2927
  136OSM   H11B14744   6.233   6.536   6.177  0.9048  0.2877 -0.5487
  136OSM      P14745   6.060   6.336   6.125  0.0646  0.2998  0.1575
  136OSM    O1314746   5.959   6.261   6.058  0.0590 -0.6802 -0.2823
  136OSM    O1414747   6.196   6.278   6.125  0.6287 -0.1646  0.2076
  136OSM    O1114748   6.016   6.348   6.279  0.4284  0.0407  0.0706
  136OSM    O1214749   6.063   6.480   6.074 -0.1334 -0.4214 -0.3849
  136OSM    C1S14750   5.944   6.467   6.316  0.3828 -0.6632 -0.0616
  136OSM    H1S14751   5.841   6.458   6.275  0.4736 -0.5404 -0.3169
  136OSM    H1T14752   5.984   6.557   6.265  2.7445 -0.9933  1.0787
  136OSM     NF14753   5.855   6.593   6.512 -0.0920 -0.8696  0.2611
  136OSM    HNF14754   5.881   6.677   6.559 -0.5908  0.8490 -2.2789
  136OSM    C2S14755   5.951   6.490   6.471 -0.4762 -0.0169 -0.1610
  136OSM    H2S14756   5.920   6.393   6.515  1.7578  0.2080  2.1224
  136OSM    C3S14757   6.095   6.519   6.515 -0.1083 -0.3200  0.5427
  136OSM    H3S14758   6.121   6.619   6.475 -0.0261 -0.0436  1.2696
  136OSM     O314759   6.192   6.428   6.463 -0.4284  0.0687  0.7951
  136OSM    HO314760   6.140   6.375   6.402 -1.3737 -0.3292  1.8952
  136OSM    C4S14761   6.102   6.535   6.666  0.0723 -0.3426 -0.2380
  136OSM    H4S14762   6.077   6.633   6.709 -1.8994 -0.7430 -0.3547
  136OSM    C5S14763   6.145   6.441   6.749  0.1260  0.7795  0.1814
  136OSM    H5S14764   6.171   6.347   6.698 -0.4279  0.4160  0.5529
  136OSM    C6S14765   6.168   6.445   6.902  0.6511 -0.2289  0.5642
  136OSM    H6S14766   6.274   6.427   6.930  0.8656 -1.1302 -0.7596
  136OSM    H6T14767   6.115   6.356   6.942 -0.3793 -0.2738 -0.8095
  136OSM    C7S14768   6.118   6.590   6.950  0.3578 -0.4095 -0.0559
  136OSM    H7S14769   6.014   6.625   6.928  1.0534  0.7378 -1.7611
  136OSM    H7T14770   6.195   6.664   6.918  0.5727 -0.0940  1.1506
  136OSM    C8S14771   6.119   6.598   7.102  0.1368  0.8085 -0.8819
  136OSM    H8S14772   6.222   6.607   7.143  0.2044 -0.1131 -0.8296
  136OSM    H8T14773   6.088   6.498   7.140  3.0204  0.1866  0.1062
  136OSM    C9S14774   6.021   6.696   7.156 -0.0618  0.6213 -0.3113
  136OSM    H9S14775   5.922   6.676   7.110 -0.9798  2.8868  0.5117
  136OSM    H9T14776   6.056   6.795   7.118  2.6804 -0.1511 -0.0272
  136OSM   C10S14777   6.026   6.699   7.310  0.3972 -0.5425  0.5855
  136OSM   H10S14778   5.994   6.605   7.360  0.2552 -0.6609  0.2746
  136OSM   H10T14779   5.949   6.777   7.326  0.4603 -0.2944 -0.2668
  136OSM   C11S14780   6.160   6.737   7.366  0.0733 -0.1164 -0.2828
  136OSM   H11S14781   6.191   6.828   7.312 -0.4512 -0.2022 -0.7370
  136OSM   H11T14782   6.244   6.666   7.349 -0.2586 -1.4002  2.6867
  136OSM   C12S14783   6.144   6.793   7.505  0.2170 -0.5107 -0.4575
  136OSM   H12S14784   6.089   6.889   7.494 -1.5355 -1.2409  1.2632
  136OSM   H12T14785   6.238   6.825   7.554  0.7053 -0.1281 -1.6022
  136OSM   C13S14786   6.065   6.702   7.607  0.4082  0.1591 -0.4078
  136OSM   H13S14787   6.093   6.595   7.605 -0.2408 -0.0838  1.5347
  136OSM   H13T14788   5.958   6.709   7.576  0.2914  1.1133  0.1642
  136OSM   C14S14789   6.057   6.756   7.754 -0.0033 -0.6541 -0.4888
  136OSM   H14S14790   6.008   6.856   7.757  1.1091  0.0868 -3.6800
  136OSM   H14T14791   6.160   6.782   7.786 -0.5413  0.0847  0.7271
  136OSM   C15S14792   5.992   6.654   7.849  0.0280 -0.3175 -0.1345
  136OSM   H15S14793   6.047   6.561   7.824  1.4914  0.6154 -0.4578
  136OSM   H15T14794   5.886   6.638   7.818 -0.0903  1.1467 -0.5390
  136OSM   C16S14795   5.998   6.682   7.999 -0.3990 -0.1391  0.9214
  136OSM   H16S14796   6.097   6.731   8.015  0.2131 -1.1744  0.4356
  136OSM   H16T14797   5.989   6.588   8.058 -0.1440 -1.5216 -1.1320
  136OSM   C17S14798   5.890   6.773   8.063  0.3621  0.2751 -0.2726
  136OSM   H17S14799   5.790   6.728   8.046  0.1773  0.7675 -0.4981
  136OSM   H17T14800   5.882   6.869   8.009  1.2463 -0.1673 -1.2299
  136OSM   C18S14801   5.911   6.811   8.209  0.6565 -0.6938  0.4731
  136OSM   H18S14802   5.814   6.838   8.256  1.4202 -0.3649  1.9533
  136OSM   H18T14803   5.982   6.896   8.215 -1.0012  0.7957 -0.1030
  136OSM   H18U14804   5.950   6.728   8.272 -0.3393  0.1006  2.2081
  136OSM    C1F14805   5.728   6.571   6.502 -0.1667 -0.0055  0.7102
  136OSM     OF14806   5.684   6.468   6.460 -0.3149 -0.0140  0.0385
  136OSM    C2F14807   5.644   6.679   6.544 -0.0044  0.2277 -0.2747
  136OSM    H2F14808   5.670   6.768   6.483  0.3640 -0.0004 -0.4591
  136OSM    H2G14809   5.677   6.698   6.648  1.6343  1.0692 -0.9220
  136OSM    C3F14810   5.492   6.643   6.538 -0.2500 -0.3247 -0.1301
  136OSM    H3F14811   5.477   6.537   6.568  0.6312 -1.0734 -2.1145
  136OSM    H3G14812   5.462   6.645   6.431 -2.3100  0.3467  0.4192
  136OSM    C4F14813   5.414   6.738   6.616 -0.6238  0.2643  0.1827
  136OSM    H4F14814   5.310   6.705   6.597 -1.0889  0.9462  1.4081
  136OSM    H4G14815   5.433   6.839   6.575 -4.0175  0.8341 -0.2630
  136OSM    C5F14816   5.445   6.734   6.771  0.1890  0.2312 -0.0728
  136OSM    H5F14817   5.544   6.777   6.798  1.0255 -0.2279 -2.2448
  136OSM    H5G14818   5.451   6.628   6.801 -1.2737  0.5473  1.4877
  136OSM    C6F14819   5.332   6.786   6.859  0.1928  0.3701  1.1689
  136OSM    H6F14820   5.240   6.775   6.799  2.5111 -1.2345 -2.4567
  136OSM    H6G14821   5.347   6.895   6.873 -1.7116  1.0465 -1.3030
  136OSM    C7F14822   5.306   6.714   6.994  0.3926  0.3219 -0.1131
  136OSM    H7F14823   5.379   6.753   7.069 -0.0977  0.7259  0.1673
  136OSM    H7G14824   5.323   6.605   6.980  2.6721  0.5958  0.0478
  136OSM    C8F14825   5.164   6.751   7.045 -0.4993 -0.1167  0.0761
  136OSM    H8F14826   5.141   6.688   7.133 -0.5123 -1.7924 -1.0648
  136OSM    H8G14827   5.084   6.727   6.971 -1.6401  1.3463  0.7827
  136OSM    C9F14828   5.153   6.893   7.081  0.0265  0.3299  0.9331
  136OSM    H9F14829   5.132   6.961   6.997 -1.6879 -0.6559  0.5118
  136OSM   C10F14830   5.139   6.944   7.206  0.5243 -0.4369 -0.1604
  136OSM   H10F14831   5.110   7.050   7.210 -1.0656 -0.8748  0.7172
  136OSM   C11F14832   5.155   6.880   7.342 -0.3829  0.1205  0.9784
  136OSM   H11F14833   5.226   6.795   7.345 -2.4253 -1.6711  1.4832
  136OSM   H11G14834   5.058   6.827   7.354  0.3095 -1.6504 -0.7014
  136OSM   C12F14835   5.170   6.973   7.460 -0.6085  0.5306  0.1154
  136OSM   H12F14836   5.113   7.068   7.446 -0.3755  0.4035 -2.1440
  136OSM   H12G14837   5.272   7.016   7.464  0.0024 -0.8858  0.1874
  136OSM   C13F14838   5.121   6.917   7.589 -0.6149 -0.3049  0.3500
  136OSM   H13F14839   5.146   6.809   7.594 -2.1887 -0.8249 -1.8266
  136OSM   H13G14840   5.010   6.917   7.588 -0.8241 -4.9433 -0.2852
  136OSM   C14F14841   5.170   7.003   7.706  0.9498  0.0672  0.3918
  136OSM   H14F14842   5.120   7.102   7.695  2.5961  0.7555 -1.6654
  136OSM   H14G14843   5.280   7.012   7.701  0.8280  1.8569 -0.0611
  136OSM   C15F14844   5.126   6.961   7.847 -0.0344 -0.8987  0.2636
  136OSM   H15F14845   5.205   6.983   7.922 -0.3143  1.8715 -0.1447
  136OSM   H15G14846   5.122   6.851   7.834 -0.7628 -0.8375 -0.0735
  136OSM   C16F14847   4.990   7.002   7.916  0.4546  0.2087  0.2836
  136OSM   H16F14848   4.917   6.968   7.840  1.9878 -1.6853 -0.4351
  136OSM   H16G14849   4.992   7.113   7.920  0.6036  0.2415 -0.5085
  136OSM   C17F14850   4.967   6.933   8.045 -0.4497  1.0417 -0.0413
  136OSM   H17F14851   5.014   6.833   8.046 -2.7204 -0.1099  2.1171
  136OSM   H17G14852   4.859   6.913   8.060  0.0779 -2.9003 -0.6270
  136OSM   C18F14853   5.028   7.006   8.162 -0.4062 -0.4214 -0.1635
  136OSM   H18F14854   5.135   7.011   8.130 -0.4559  2.4231 -0.1926
  136OSM   H18G14855   5.009   6.956   8.259  0.7611  0.9440  0.8177
  136OSM   H18H14856   4.999   7.113   8.174  0.7899 -0.0611 -0.2707
  137OSM      N14857   3.054   3.756   6.023 -0.3674 -0.2413  0.3373
  137OSM    C1514858   3.054   3.820   5.884 -0.5317  1.2760 -0.2639
  137OSM   H15A14859   2.989   3.905   5.874 -1.3579  0.8932  1.4217
  137OSM   H15B14860   3.023   3.746   5.812  1.3425  2.8479 -2.8275
  137OSM   H15C14861   3.154   3.849   5.857  1.6104 -2.0712  3.0307
  137OSM    C1414862   2.910   3.745   6.067 -0.7865  0.5892  1.1106
  137OSM   H14A14863   2.907   3.703   6.167 -0.4884 -1.1826  0.4203
  137OSM   H14B14864   2.859   3.679   5.999  0.5102  0.7862 -0.0925
  137OSM   H14C14865   2.859   3.840   6.064 -2.0342 -0.0688  1.0219
  137OSM    C1314866   3.110   3.617   6.013 -0.9059 -0.0880 -0.2765
  137OSM   H13A14867   3.105   3.569   6.109 -0.6760  1.0488  0.3172
  137OSM   H13B14868   3.214   3.615   5.984 -0.5331  1.4466  0.8139
  137OSM   H13C14869   3.054   3.557   5.943 -2.0492 -0.3441  0.8419
  137OSM    C1214870   3.122   3.836   6.120 -0.1810  0.7316 -0.0227
  137OSM   H12A14871   3.084   3.937   6.120  0.1166  0.8560 -1.1031
  137OSM   H12B14872   3.220   3.853   6.078 -0.8763 -0.0602 -2.0883
  137OSM    C1114873   3.114   3.798   6.273  0.8751  0.5612  0.0744
  137OSM   H11A14874   3.026   3.851   6.315 -1.3364  0.2263 -3.6385
  137OSM   H11B14875   3.203   3.839   6.324  1.0194 -1.6301  1.7633
  137OSM      P14876   3.006   3.609   6.410 -0.3745  0.1166  0.2212
  137OSM    O1314877   2.871   3.647   6.369  0.2592  0.1593 -0.0277
  137OSM    O1414878   3.034   3.463   6.429 -0.2270 -0.1695  0.0862
  137OSM    O1114879   3.051   3.691   6.531 -0.5321  0.6186 -0.0358
  137OSM    O1214880   3.109   3.658   6.300  0.5808 -0.8213 -0.0257
  137OSM    C1S14881   3.070   3.632   6.658 -0.4289  0.1820 -0.1891
  137OSM    H1S14882   3.152   3.559   6.649 -0.1415  0.3941  0.6642
  137OSM    H1T14883   2.983   3.576   6.699  1.9896 -3.0103  0.9033
  137OSM     NF14884   3.111   3.665   6.893  0.5343 -0.4169 -0.4351
  137OSM    HNF14885   3.039   3.674   6.962 -0.4841 -2.1789 -1.1989
  137OSM    C2S14886   3.098   3.736   6.764 -0.5021 -0.3852  0.3216
  137OSM    H2S14887   3.195   3.782   6.736 -1.4097  1.0282 -0.6624
  137OSM    C3S14888   2.984   3.848   6.766 -0.3048  0.8705  0.0522
  137OSM    H3S14889   2.891   3.797   6.796  0.9496 -0.1802  2.4393
  137OSM     O314890   2.960   3.910   6.637 -0.6956 -0.1260  0.8744
  137OSM    HO314891   3.001   3.848   6.577 -5.7118  1.0589 -4.7050
  137OSM    C4S14892   3.011   3.950   6.882  0.5398  0.4315  0.1439
  137OSM    H4S14893   2.963   3.923   6.977 -3.3855 -0.6650 -1.9213
  137OSM    C5S14894   3.055   4.078   6.857 -0.9512  0.5816 -0.3608
  137OSM    H5S14895   3.102   4.100   6.760 -0.6541  0.2493 -0.2933
  137OSM    C6S14896   3.068   4.193   6.956  0.2842  0.3418  0.3544
  137OSM    H6S14897   3.004   4.277   6.925  1.9094  1.7191  0.5740
  137OSM    H6T14898   3.171   4.234   6.956  0.6459 -0.5115 -0.7800
  137OSM    C7S14899   3.024   4.154   7.097 -0.5590 -0.0742 -0.8561
  137OSM    H7S14900   3.088   4.076   7.145 -0.0191  1.0761  0.3579
  137OSM    H7T14901   2.922   4.112   7.086 -0.9568  0.4899  0.4754
  137OSM    C8S14902   3.017   4.274   7.199 -0.1892  0.7603  0.0120
  137OSM    H8S14903   2.947   4.351   7.160 -0.5952  0.5833  0.3840
  137OSM    H8T14904   3.116   4.324   7.203  1.2735 -1.9167  0.0501
  137OSM    C9S14905   2.973   4.228   7.335 -0.0836 -0.2550 -0.0895
  137OSM    H9S14906   3.030   4.139   7.370  0.1274  0.0314  0.3045
  137OSM    H9T14907   2.866   4.200   7.338 -0.1055 -0.1784 -0.1551
  137OSM   C10S14908   2.995   4.340   7.438 -0.1472 -0.1239 -0.7982
  137OSM   H10S14909   2.947   4.438   7.415 -0.9198 -0.3010  0.0118
  137OSM   H10T14910   3.105   4.353   7.447 -0.3700  1.5103  0.0622
  137OSM   C11S14911   2.951   4.298   7.581 -0.3482 -0.1625  0.8045
  137OSM   H11S14912   2.996   4.200   7.607 -0.4087 -0.1205  1.0664
  137OSM   H11T14913   2.843   4.278   7.562 -0.3252  1.2779 -1.1971
  137OSM   C12S14914   2.977   4.389   7.698  0.4491  0.6037  0.6648
  137OSM   H12S14915   2.922   4.485   7.687  1.3481  1.4578  3.0305
  137OSM   H12T14916   3.085   4.415   7.698  0.4067  0.8134  0.0181
  137OSM   C13S14917   2.934   4.333   7.833  0.6098 -0.7343 -0.4779
  137OSM   H13S14918   3.001   4.245   7.846 -0.7015 -1.8000 -0.7575
  137OSM   H13T14919   2.831   4.292   7.837 -0.3554  1.4754 -1.0525
  137OSM   C14S14920   2.971   4.422   7.950 -0.4475  0.0754 -0.0613
  137OSM   H14S14921   2.925   4.523   7.947 -0.4087  0.0692 -2.0756
  137OSM   H14T14922   3.080   4.445   7.942 -0.6077  1.4964  1.3281
  137OSM   C15S14923   2.952   4.358   8.093 -0.7993 -0.2035  0.1622
  137OSM   H15S14924   2.995   4.255   8.090 -2.4655 -0.9061 -0.9421
  137OSM   H15T14925   2.846   4.352   8.124 -0.4174  1.0177  1.8802
  137OSM   C16S14926   3.020   4.444   8.202 -0.1883 -0.1503  0.3651
  137OSM   H16S14927   2.984   4.549   8.185 -0.4071 -0.3769 -0.6765
  137OSM   H16T14928   3.130   4.437   8.198 -0.2022 -0.2457  0.1551
  137OSM   C17S14929   2.988   4.401   8.347 -0.3090 -0.3071 -0.0715
  137OSM   H17S14930   3.029   4.299   8.364  2.6687  0.5276 -1.4970
  137OSM   H17T14931   2.881   4.413   8.371 -0.1708 -1.6600  1.3366
  137OSM   C18S14932   3.066   4.492   8.447  0.2172  0.9154  0.2954
  137OSM   H18S14933   3.035   4.599   8.456 -1.3695  0.5384 -0.2783
  137OSM   H18T14934   3.176   4.482   8.441  0.0904 -0.0807 -0.4353
  137OSM   H18U14935   3.039   4.448   8.545 -1.0573  2.7069  0.8004
  137OSM    C1F14936   3.212   3.593   6.920 -0.6687  1.1268  0.0023
  137OSM     OF14937   3.306   3.582   6.842 -0.1812  0.0556  0.2139
  137OSM    C2F14938   3.203   3.516   7.052 -0.4111  0.3882 -0.2949
  137OSM    H2F14939   3.123   3.439   7.048  0.6598 -0.7134 -1.4497
  137OSM    H2G14940   3.165   3.595   7.120  0.7878  0.9873 -0.2911
  137OSM    C3F14941   3.339   3.459   7.101 -0.5114  0.4324 -0.2791
  137OSM    H3F14942   3.410   3.544   7.094 -1.4065  1.2181 -0.0429
  137OSM    H3G14943   3.381   3.386   7.028  1.2203 -0.0952  1.1602
  137OSM    C4F14944   3.338   3.397   7.242  0.1921  0.2355  0.1905
  137OSM    H4F14945   3.447   3.386   7.262  0.3872  2.3406  0.5554
  137OSM    H4G14946   3.299   3.294   7.229  2.0285 -0.4172 -0.4633
  137OSM    C5F14947   3.273   3.473   7.357  1.0155  0.3982  0.2487
  137OSM    H5F14948   3.164   3.471   7.334  0.9292  4.7690 -0.5065
  137OSM    H5G14949   3.299   3.579   7.339 -1.6321  0.9819 -0.6199
  137OSM    C6F14950   3.317   3.422   7.495 -0.1378  0.1583 -0.3556
  137OSM    H6F14951   3.426   3.406   7.488 -0.3278 -0.6434 -1.9054
  137OSM    H6G14952   3.251   3.334   7.509 -0.4733  0.5575  0.7625
  137OSM    C7F14953   3.279   3.517   7.616  0.2032 -0.5130  0.1945
  137OSM    H7F14954   3.173   3.546   7.601  0.8808  1.6150 -0.9419
  137OSM    H7G14955   3.351   3.601   7.614  0.7428 -0.9229 -2.7975
  137OSM    C8F14956   3.312   3.457   7.753 -0.1599 -0.0929 -0.1077
  137OSM    H8F14957   3.320   3.542   7.824 -2.4323 -0.3725  0.5406
  137OSM    H8G14958   3.409   3.406   7.730 -0.7376 -2.0729  1.5055
  137OSM    C9F14959   3.204   3.353   7.781 -0.5119 -0.1682  0.1727
  137OSM    H9F14960   3.166   3.296   7.695  0.8101 -2.1357  0.8087
  137OSM   C10F14961   3.149   3.333   7.903 -0.1191 -0.1794 -0.6977
  137OSM   H10F14962   3.086   3.245   7.917  0.5315 -0.5845 -0.2540
  137OSM   C11F14963   3.192   3.400   8.029 -0.4548 -0.3333 -0.3509
  137OSM   H11F14964   3.105   3.419   8.096  0.8233 -0.5486  1.4136
  137OSM   H11G14965   3.248   3.496   8.023 -1.1558  0.2020  1.0788
  137OSM   C12F14966   3.289   3.297   8.093  0.1733 -0.1137  0.0295
  137OSM   H12F14967   3.364   3.265   8.018  0.4348 -1.8932  1.0168
  137OSM   H12G14968   3.237   3.203   8.119  2.1120 -1.0450  0.6906
  137OSM   C13F14969   3.375   3.344   8.212  0.2539 -0.6223  0.3896
  137OSM   H13F14970   3.446   3.414   8.163  1.0275 -2.2983 -1.0068
  137OSM   H13G14971   3.441   3.259   8.239 -0.7727 -2.1692 -1.6943
  137OSM   C14F14972   3.284   3.407   8.318 -0.4134  1.0341 -0.7169
  137OSM   H14F14973   3.201   3.335   8.335 -0.6696  0.7433 -2.8744
  137OSM   H14G14974   3.250   3.507   8.283 -0.4547  1.1668 -0.2918
  137OSM   C15F14975   3.366   3.414   8.450  0.3385  0.3466 -0.0976
  137OSM   H15F14976   3.455   3.476   8.426 -0.7807  1.8130 -0.5716
  137OSM   H15G14977   3.392   3.310   8.478 -2.3784 -0.0316  1.3895
  137OSM   C16F14978   3.274   3.474   8.562  0.3297 -0.2419 -0.3925
  137OSM   H16F14979   3.190   3.405   8.587  0.2194  0.0220 -0.0133
  137OSM   H16G14980   3.227   3.569   8.530  1.1392  0.6421  0.9353
  137OSM   C17F14981   3.353   3.495   8.695  0.7176  0.2444  0.6524
  137OSM   H17F14982   3.286   3.555   8.761  0.8519 -2.0410  3.0405
  137OSM   H17G14983   3.439   3.563   8.676  0.8701 -0.3520 -0.9696
  137OSM   C18F14984   3.391   3.356   8.755 -0.0882  0.1011  0.2078
  137OSM   H18F14985   3.298   3.297   8.770  0.2708 -0.6898 -0.5598
  137OSM   H18G14986   3.450   3.373   8.848 -1.3933 -0.3411  1.1457
  137OSM   H18H14987   3.453   3.310   8.675 -1.1015 -0.3535 -0.3337
  138OSM      N14988   2.900   6.288   6.448  0.3343 -0.5165  0.2136
  138OSM    C1514989   2.895   6.309   6.300 -0.4172  0.3190  0.5355
  138OSM   H15A14990   2.817   6.255   6.249  0.1495 -1.7302  1.7093
  138OSM   H15B14991   2.989   6.271   6.263 -0.4752 -0.2526  0.9613
  138OSM   H15C14992   2.888   6.416   6.285 -2.9841  0.1233 -0.0244
  138OSM    C1414993   2.763   6.307   6.509  0.2148  0.8294  0.3553
  138OSM   H14A14994   2.693   6.251   6.450  1.2078 -2.1290  1.7658
  138OSM   H14B14995   2.717   6.404   6.514 -0.5538  0.4123  2.7370
  138OSM   H14C14996   2.757   6.271   6.611 -3.8123 -0.7049 -0.2315
  138OSM    C1314997   2.945   6.148   6.482  0.2393 -0.7687 -0.9574
  138OSM   H13A14998   3.050   6.135   6.461  0.6856 -0.8963  1.1444
  138OSM   H13B14999   2.879   6.077   6.435 -3.7254  1.3300  0.9047
  138OSM   H13C15000   2.945   6.137   6.590  0.2878 -1.5736 -1.0342
  138OSM    C1215001   2.999   6.389   6.510 -0.5318  0.1878  0.3059
  138OSM   H12A15002   2.988   6.385   6.618  0.1105 -1.1245  0.3468
  138OSM   H12B15003   2.969   6.491   6.493  1.7006  0.6011 -1.6156
  138OSM    C1115004   3.149   6.369   6.484 -0.2308  0.4911  0.3652
  138OSM   H11A15005   3.172   6.271   6.529  0.9721  0.1752 -0.8698
  138OSM   H11B15006   3.220   6.427   6.547 -1.1396  1.2289  0.7428
  138OSM      P15007   3.207   6.466   6.242 -0.4805  0.1013  0.0833
  138OSM    O1315008   3.207   6.410   6.104 -0.1350 -0.8125  0.1980
  138OSM    O1415009   3.124   6.587   6.262 -0.1724 -0.3983  0.3452
  138OSM    O1115010   3.358   6.497   6.274 -0.4482 -0.0678  0.4727
  138OSM    O1215011   3.180   6.353   6.344 -0.3166 -0.0753 -0.1234
  138OSM    C1S15012   3.394   6.603   6.366  0.5600  0.1257 -0.1792
  138OSM    H1S15013   3.315   6.613   6.444  0.8614  1.4925 -0.0243
  138OSM    H1T15014   3.397   6.698   6.309 -1.6291  0.7432  0.6237
  138OSM     NF15015   3.550   6.676   6.540 -0.3266  0.2363 -0.3667
  138OSM    HNF15016   3.609   6.749   6.507 -1.1316  1.3146  0.5033
  138OSM    C2S15017   3.527   6.571   6.443  0.3319 -0.3457 -0.3244
  138OSM    H2S15018   3.513   6.476   6.499 -0.2729 -0.0845 -0.0264
  138OSM    C3S15019   3.645   6.559   6.350  0.1549  0.0385  0.1121
  138OSM    H3S15020   3.657   6.658   6.300 -0.1642 -0.4145 -0.8828
  138OSM     O315021   3.606   6.471   6.242 -0.4335 -0.6313 -0.6057
  138OSM    HO315022   3.514   6.448   6.258 -0.7116  0.2111 -0.9046
  138OSM    C4S15023   3.775   6.525   6.418  0.2197  0.7107 -0.2456
  138OSM    H4S15024   3.763   6.460   6.506 -0.1893  2.7852  1.3183
  138OSM    C5S15025   3.892   6.580   6.393 -1.1602 -0.2490  0.5685
  138OSM    H5S15026   3.905   6.671   6.332  2.4465 -1.2840 -0.5018
  138OSM    C6S15027   4.022   6.553   6.465  0.4001  0.3912 -0.0937
  138OSM    H6S15028   4.086   6.634   6.507  3.1234 -2.4695  1.6826
  138OSM    H6T15029   4.084   6.486   6.403 -1.5459 -0.8613 -0.7944
  138OSM    C7S15030   4.006   6.468   6.601 -0.4861  0.0428  0.1878
  138OSM    H7S15031   3.950   6.375   6.577 -2.3361  1.2064 -0.2355
  138OSM    H7T15032   3.950   6.529   6.675 -0.5749 -0.8777  0.8898
  138OSM    C8S15033   4.141   6.429   6.662 -0.4186  0.4398 -0.1472
  138OSM    H8S15034   4.206   6.512   6.696  2.2376 -0.2652 -3.0771
  138OSM    H8T15035   4.199   6.376   6.583 -2.3099 -1.0172 -0.6384
  138OSM    C9S15036   4.130   6.328   6.778 -0.7123 -0.4406 -0.3499
  138OSM    H9S15037   4.219   6.262   6.790 -2.0452 -2.2146  0.0168
  138OSM    H9T15038   4.043   6.263   6.755 -2.4460  0.7073  2.4208
  138OSM   C10S15039   4.104   6.410   6.908 -0.5938  0.1142 -0.1126
  138OSM   H10S15040   4.007   6.464   6.895 -0.2512  0.3469 -2.0180
  138OSM   H10T15041   4.180   6.490   6.910 -1.4066  0.8824  0.9440
  138OSM   C11S15042   4.110   6.313   7.026  0.3380  0.8661 -1.0520
  138OSM   H11S15043   4.211   6.267   7.037 -0.0833  0.1885  0.3280
  138OSM   H11T15044   4.025   6.241   7.016 -0.0936  1.1220  0.4732
  138OSM   C12S15045   4.087   6.393   7.156 -0.0697  0.1742  0.0566
  138OSM   H12S15046   4.006   6.466   7.134  0.5450  1.8094  2.7518
  138OSM   H12T15047   4.171   6.463   7.174  1.6125 -1.5362 -0.8340
  138OSM   C13S15048   4.051   6.300   7.278  0.0681 -0.7754  0.3645
  138OSM   H13S15049   4.077   6.365   7.364 -0.0000  0.7858 -0.7650
  138OSM   H13T15050   4.106   6.203   7.273 -0.6026 -1.1658  0.4060
  138OSM   C14S15051   3.907   6.267   7.285 -0.1227  0.6501 -0.3852
  138OSM   H14S15052   3.859   6.255   7.186 -1.0186 -1.7802  0.2722
  138OSM   H14T15053   3.865   6.358   7.334 -0.4208  0.9294 -1.1527
  138OSM   C15S15054   3.871   6.145   7.375 -0.1084 -0.2872  1.2107
  138OSM   H15S15055   3.925   6.057   7.334 -0.2227  0.7884 -1.4610
  138OSM   H15T15056   3.760   6.135   7.371 -0.4748  3.0247 -1.3657
  138OSM   C16S15057   3.904   6.167   7.528 -0.7330  0.5786  0.4333
  138OSM   H16S15058   4.006   6.212   7.521 -0.2947 -0.4143  0.2416
  138OSM   H16T15059   3.916   6.072   7.584 -0.2931  0.3826  0.0187
  138OSM   C17S15060   3.818   6.266   7.598  0.6605 -0.2634 -0.3111
  138OSM   H17S15061   3.710   6.242   7.600  0.9029 -1.4305 -0.7552
  138OSM   H17T15062   3.823   6.366   7.550 -1.1287 -0.4439 -0.9311
  138OSM   C18S15063   3.858   6.286   7.743 -0.3520 -0.3969  0.2558
  138OSM   H18S15064   3.779   6.352   7.784  0.2038  0.9089 -0.6913
  138OSM   H18T15065   3.959   6.329   7.761 -0.5950 -0.0095  0.7194
  138OSM   H18U15066   3.852   6.183   7.784  1.1180 -1.2618 -1.5377
  138OSM    C1F15067   3.478   6.684   6.652 -1.1589 -0.0428 -0.6511
  138OSM     OF15068   3.380   6.619   6.664  0.0149  0.0365 -0.0463
  138OSM    C2F15069   3.527   6.772   6.770 -0.0914  0.6187 -0.1755
  138OSM    H2F15070   3.572   6.862   6.722 -2.4193  1.9488 -0.0158
  138OSM    H2G15071   3.599   6.710   6.828  0.3063  0.4759 -0.8111
  138OSM    C3F15072   3.402   6.812   6.855 -0.0822 -0.3287  0.0768
  138OSM    H3F15073   3.357   6.720   6.897  1.5083 -1.0378  0.3343
  138OSM    H3G15074   3.331   6.857   6.783  0.8975  0.3613 -0.4812
  138OSM    C4F15075   3.417   6.911   6.971 -0.0242  0.4004  0.0732
  138OSM    H4F15076   3.320   6.942   7.015  0.4947  0.1227  1.4999
  138OSM    H4G15077   3.464   7.004   6.932 -2.5314  2.1096  0.8853
  138OSM    C5F15078   3.497   6.864   7.093  0.1872 -0.1605 -0.5506
  138OSM    H5F15079   3.603   6.845   7.063 -0.3949 -1.3907 -1.9786
  138OSM    H5G15080   3.451   6.770   7.130  0.0845  0.0085 -0.2515
  138OSM    C6F15081   3.484   6.948   7.219  0.6147 -0.6069  0.8609
  138OSM    H6F15082   3.377   6.975   7.237  0.8893  0.1168  1.4366
  138OSM    H6G15083   3.537   7.045   7.220 -1.4762  0.6276 -0.4483
  138OSM    C7F15084   3.526   6.870   7.344  0.0433 -0.0958 -0.4085
  138OSM    H7F15085   3.637   6.870   7.354 -0.0159  3.0931  2.0208
  138OSM    H7G15086   3.487   6.767   7.332 -0.0401  0.0511 -1.5219
  138OSM    C8F15087   3.464   6.923   7.477  0.5405  0.1943 -0.7829
  138OSM    H8F15088   3.511   6.855   7.552 -0.2158 -1.2802 -1.5833
  138OSM    H8G15089   3.356   6.901   7.489  0.8837 -1.2255 -0.0877
  138OSM    C9F15090   3.480   7.077   7.488  1.0617  0.8246 -0.2459
  138OSM    H9F15091   3.446   7.131   7.398  0.0957 -1.5650 -1.3844
  138OSM   C10F15092   3.539   7.149   7.588 -0.3279 -0.3278  0.0648
  138OSM   H10F15093   3.534   7.258   7.571 -0.3362 -0.7362 -3.2426
  138OSM   C11F15094   3.608   7.111   7.716 -0.2033  0.0950 -0.0289
  138OSM   H11F15095   3.711   7.075   7.696 -0.2844  0.1878 -0.6285
  138OSM   H11G15096   3.550   7.027   7.759 -0.3674 -0.2170 -0.8257
  138OSM   C12F15097   3.624   7.222   7.826 -0.1889  0.6510 -0.0279
  138OSM   H12F15098   3.705   7.292   7.795  0.2607  0.6340  1.0656
  138OSM   H12G15099   3.660   7.168   7.916  2.5957  0.3971 -1.1872
  138OSM   C13F15100   3.506   7.306   7.872  0.4156  0.2238  0.0887
  138OSM   H13F15101   3.471   7.349   7.775  1.3760  0.5903 -0.1053
  138OSM   H13G15102   3.546   7.389   7.934 -1.7779  1.6364 -0.2507
  138OSM   C14F15103   3.387   7.228   7.945 -0.5782 -0.5909  0.1742
  138OSM   H14F15104   3.371   7.142   7.878 -2.4021  0.1636 -0.4298
  138OSM   H14G15105   3.292   7.286   7.941  0.2208  0.7798  0.2624
  138OSM   C15F15106   3.423   7.198   8.091 -0.0146  0.6338  0.3752
  138OSM   H15F15107   3.445   7.293   8.144 -1.4285  1.8902 -1.1755
  138OSM   H15G15108   3.512   7.132   8.098 -0.0265  0.7532  2.3317
  138OSM   C16F15109   3.311   7.126   8.171 -0.0365 -0.4375  0.5546
  138OSM   H16F15110   3.280   7.036   8.115 -0.7116 -1.4719  2.4844
  138OSM   H16G15111   3.224   7.194   8.179  1.6386  1.7107  1.5099
  138OSM   C17F15112   3.357   7.104   8.314  0.3699  0.2409  0.4287
  138OSM   H17F15113   3.393   7.200   8.358  1.2193  0.4577 -0.6921
  138OSM   H17G15114   3.440   7.030   8.310 -0.1562 -0.6051  3.0260
  138OSM   C18F15115   3.239   7.055   8.398  0.2661  0.1242  0.5082
  138OSM   H18F15116   3.154   7.127   8.398  0.9023  0.9765  3.2484
  138OSM   H18G15117   3.264   7.030   8.503  1.7205 -1.0467 -0.0869
  138OSM   H18H15118   3.192   6.964   8.356  0.3849 -0.5457  1.7799
  139OSM      N15119   2.790   1.287   5.956  0.1941  0.2152 -0.8607
  139OSM    C1515120   2.899   1.376   5.901  0.3347  0.0577 -0.2767
  139OSM   H15A15121   3.002   1.344   5.911 -0.0938 -0.5928  3.8334
  139OSM   H15B15122   2.893   1.477   5.939  1.7993  0.4544 -1.0131
  139OSM   H15C15123   2.890   1.380   5.793  0.6739 -1.6443 -0.3963
  139OSM    C1415124   2.654   1.312   5.903 -1.0045 -0.0035  0.1739
  139OSM   H14A15125   2.594   1.227   5.931 -1.5946  0.2413 -0.3094
  139OSM   H14B15126   2.661   1.310   5.795  0.7094  0.6791  0.2380
  139OSM   H14C15127   2.616   1.410   5.929 -2.5514 -0.1032 -1.5083
  139OSM    C1315128   2.829   1.139   5.934  0.2693 -0.5068 -0.2865
  139OSM   H13A15129   2.750   1.072   5.967 -1.6947  1.5659 -0.5426
  139OSM   H13B15130   2.922   1.118   5.985 -0.0626 -0.4828  0.3431
  139OSM   H13C15131   2.838   1.129   5.827  0.3359  0.1776 -0.3481
  139OSM    C1215132   2.781   1.313   6.108  0.1166 -0.6280 -1.3759
  139OSM   H12A15133   2.728   1.406   6.121 -0.0606 -1.0036  1.0114
  139OSM   H12B15134   2.882   1.328   6.145 -0.3211  0.7799 -0.7080
  139OSM    C1115135   2.699   1.213   6.204  0.4328 -0.3545  0.2509
  139OSM   H11A15136   2.717   1.243   6.310  0.8902  3.6979 -0.8093
  139OSM   H11B15137   2.742   1.113   6.186  0.2873 -0.5617  1.0323
  139OSM      P15138   2.457   1.321   6.220 -0.6377 -0.6993 -0.1488
  139OSM    O1315139   2.529   1.456   6.211  0.1171  0.8826  0.1666
  139OSM    O1415140   2.331   1.298   6.146 -0.6991 -0.0093  0.3591
  139OSM    O1115141   2.434   1.297   6.380  0.3160  0.1543  0.0165
  139OSM    O1215142   2.561   1.215   6.164 -0.2251  0.1660  0.5719
  139OSM    C1S15143   2.447   1.394   6.478  0.3920 -1.1374  0.2552
  139OSM    H1S15144   2.365   1.468   6.465  0.4631 -1.0542  0.2819
  139OSM    H1T15145   2.544   1.448   6.475  0.4942 -1.2583  1.1598
  139OSM     NF15146   2.454   1.436   6.719 -0.0932  0.1867 -0.2144
  139OSM    HNF15147   2.542   1.466   6.754 -0.3964 -0.5451  1.2213
  139OSM    C2S15148   2.450   1.331   6.624  0.1793 -0.7208 -0.8277
  139OSM    H2S15149   2.360   1.265   6.629 -1.3079  1.1433 -1.7912
  139OSM    C3S15150   2.580   1.229   6.639 -0.3544 -0.2871 -0.1169
  139OSM    H3S15151   2.674   1.274   6.677  0.7207 -2.0849 -0.5497
  139OSM     O315152   2.632   1.152   6.527  0.5934 -0.5988  0.5040
  139OSM    HO315153   2.575   1.190   6.458 -0.5451 -1.1326  1.1213
  139OSM    C4S15154   2.556   1.133   6.754  0.3285  0.3678  0.3875
  139OSM    H4S15155   2.492   1.045   6.735 -1.7244  1.8342  0.1573
  139OSM    C5S15156   2.593   1.148   6.881 -0.0711  0.3823 -0.2708
  139OSM    H5S15157   2.635   1.241   6.923 -1.7879  1.1324 -0.1385
  139OSM    C6S15158   2.573   1.041   6.984 -0.5233  0.4593 -0.3659
  139OSM    H6S15159   2.530   0.950   6.937 -0.3473  0.1312  0.1047
  139OSM    H6T15160   2.506   1.083   7.062 -1.6699 -1.8380 -0.0348
  139OSM    C7S15161   2.720   1.003   7.022 -0.1000 -0.6099 -0.2124
  139OSM    H7S15162   2.779   1.095   7.042 -1.6992  0.0682  1.7274
  139OSM    H7T15163   2.781   0.947   6.948 -0.5226 -0.8459 -0.3877
  139OSM    C8S15164   2.735   0.927   7.158  0.4065 -0.3821  0.3802
  139OSM    H8S15165   2.686   0.830   7.134  0.5478 -0.1884 -0.7545
  139OSM    H8T15166   2.676   0.986   7.231  0.2699  1.2600 -1.0044
  139OSM    C9S15167   2.878   0.931   7.208  0.2477  1.1138  0.0546
  139OSM    H9S15168   2.911   1.037   7.216 -2.2055  1.9617 -0.3454
  139OSM    H9T15169   2.944   0.880   7.135  1.0084  0.4407  1.1837
  139OSM   C10S15170   2.876   0.865   7.346 -0.2492  0.1590  0.2021
  139OSM   H10S15171   2.836   0.764   7.320  0.4654 -0.4498  1.3557
  139OSM   H10T15172   2.806   0.923   7.409 -0.2970  2.0919 -1.5283
  139OSM   C11S15173   3.013   0.851   7.408 -0.3475  0.0677 -0.3470
  139OSM   H11S15174   3.075   0.943   7.406 -1.1766  0.6339 -0.9921
  139OSM   H11T15175   3.068   0.784   7.339  1.2455  1.1082 -0.1460
  139OSM   C12S15176   3.019   0.790   7.544  0.6077  0.4768  0.4179
  139OSM   H12S15177   3.127   0.774   7.565  0.6984 -1.5043 -1.2243
  139OSM   H12T15178   2.960   0.695   7.540 -1.7780  1.9095 -2.2298
  139OSM   C13S15179   2.958   0.872   7.665  0.4320  0.6375 -0.4916
  139OSM   H13S15180   2.859   0.915   7.642  1.2164  3.4365  0.8408
  139OSM   H13T15181   3.014   0.968   7.677 -0.4976  1.1133  0.1293
  139OSM   C14S15182   2.960   0.807   7.804  0.0080  0.5265 -0.3521
  139OSM   H14S15183   2.893   0.719   7.798  0.7573 -0.1496  0.8400
  139OSM   H14T15184   2.906   0.869   7.878 -0.4450 -2.6259  2.1580
  139OSM   C15S15185   3.103   0.787   7.854 -0.5308  0.6515 -0.3895
  139OSM   H15S15186   3.169   0.862   7.805  0.5611  0.4725  0.7733
  139OSM   H15T15187   3.138   0.690   7.813  0.5248 -0.4267  2.7552
  139OSM   C16S15188   3.134   0.779   8.004 -0.6799  0.1674 -1.3476
  139OSM   H16S15189   3.106   0.880   8.042  0.4528  0.3851 -1.0399
  139OSM   H16T15190   3.241   0.759   8.029 -1.7539 -1.8338  2.4167
  139OSM   C17S15191   3.044   0.670   8.068 -0.0775  0.9357 -0.7617
  139OSM   H17S15192   3.087   0.570   8.048 -1.1280  0.7044 -2.0211
  139OSM   H17T15193   2.943   0.674   8.023  0.1127  0.2584 -1.2756
  139OSM   C18S15194   3.033   0.679   8.219 -0.4523  0.7804 -0.8443
  139OSM   H18S15195   3.003   0.778   8.260 -1.2980 -0.9131  3.1667
  139OSM   H18T15196   3.125   0.656   8.277 -0.6330 -0.5717 -1.0755
  139OSM   H18U15197   2.954   0.611   8.259 -0.6538 -0.4984 -3.2795
  139OSM    C1F15198   2.350   1.504   6.746  0.2437 -0.2023 -0.0674
  139OSM     OF15199   2.240   1.486   6.701 -0.0548 -0.1734  0.4397
  139OSM    C2F15200   2.369   1.631   6.821 -0.1998  0.1463 -0.2816
  139OSM    H2F15201   2.380   1.718   6.753  0.8693 -0.9277 -1.5291
  139OSM    H2G15202   2.468   1.625   6.871  0.4362  0.0314 -1.5376
  139OSM    C3F15203   2.261   1.639   6.933  0.0178 -0.1139 -0.2486
  139OSM    H3F15204   2.159   1.639   6.890 -0.9115 -0.3885  1.8406
  139OSM    H3G15205   2.279   1.733   6.988  0.1811 -0.4444  0.2752
  139OSM    C4F15206   2.251   1.523   7.030 -0.3168  0.0210  0.0775
  139OSM    H4F15207   2.237   1.428   6.975  1.8397 -0.6495  0.5956
  139OSM    H4G15208   2.155   1.535   7.084 -0.9825  0.8644 -1.2375
  139OSM    C5F15209   2.364   1.510   7.136  0.7133  0.1809 -0.0067
  139OSM    H5F15210   2.421   1.606   7.134  1.0650 -0.0331 -0.3965
  139OSM    H5G15211   2.442   1.445   7.092  0.4702  0.1103 -0.3341
  139OSM    C6F15212   2.314   1.474   7.274 -0.0425  0.5929 -0.0278
  139OSM    H6F15213   2.209   1.507   7.287 -0.0964  0.2484  0.4727
  139OSM    H6G15214   2.364   1.532   7.355 -0.3217 -1.9729  2.1462
  139OSM    C7F15215   2.337   1.327   7.305 -0.1165  0.1222  0.4439
  139OSM    H7F15216   2.271   1.261   7.245 -0.3642  0.9523 -0.2210
  139OSM    H7G15217   2.319   1.318   7.414 -0.3768 -2.3463  0.2475
  139OSM    C8F15218   2.486   1.280   7.286 -0.7674  0.0737  0.0406
  139OSM    H8F15219   2.525   1.287   7.183 -1.2626  0.4714 -0.1285
  139OSM    H8G15220   2.495   1.173   7.315  1.4332  0.0004 -0.7567
  139OSM    C9F15221   2.581   1.360   7.370 -0.2754  0.2358 -0.4362
  139OSM    H9F15222   2.578   1.465   7.337  0.7607  1.6271  3.4524
  139OSM   C10F15223   2.650   1.332   7.480 -0.0513 -0.6940 -0.6996
  139OSM   H10F15224   2.707   1.414   7.527 -0.2481 -0.7951 -0.2811
  139OSM   C11F15225   2.649   1.199   7.549  0.4512 -0.1455 -0.1336
  139OSM   H11F15226   2.705   1.119   7.495  0.4977 -2.0788  2.5933
  139OSM   H11G15227   2.544   1.167   7.563  0.9759 -1.5401  0.8003
  139OSM   C12F15228   2.696   1.198   7.690  0.2600 -0.0762  0.6709
  139OSM   H12F15229   2.663   1.290   7.744 -1.2890 -1.8110  2.8888
  139OSM   H12G15230   2.805   1.176   7.700  0.1780 -0.5259  0.6135
  139OSM   C13F15231   2.623   1.091   7.778 -0.0487 -0.3472 -0.0116
  139OSM   H13F15232   2.659   0.990   7.748 -0.5605 -0.8884  1.1377
  139OSM   H13G15233   2.518   1.091   7.743  0.4267  0.7428 -1.5220
  139OSM   C14F15234   2.628   1.114   7.928 -0.4807  0.9967  0.3111
  139OSM   H14F15235   2.574   1.027   7.971  1.6837  0.0673  1.2518
  139OSM   H14G15236   2.585   1.210   7.964 -1.1807  0.7142  0.2629
  139OSM   C15F15237   2.768   1.112   7.997 -0.0213 -0.0113  0.0853
  139OSM   H15F15238   2.842   1.173   7.941  0.3295 -0.4057  0.1131
  139OSM   H15G15239   2.798   1.005   7.998 -2.7776 -0.8888 -0.9624
  139OSM   C16F15240   2.761   1.157   8.146  0.6680 -0.5818  0.0765
  139OSM   H16F15241   2.663   1.122   8.185 -0.3285 -1.0415 -2.6220
  139OSM   H16G15242   2.755   1.266   8.165  0.2461 -0.4645 -0.6890
  139OSM   C17F15243   2.866   1.100   8.237 -0.4637 -0.1931 -0.0492
  139OSM   H17F15244   2.953   1.167   8.217 -1.9051  1.9539  0.4989
  139OSM   H17G15245   2.887   0.995   8.209 -0.3731  0.1862 -1.4919
  139OSM   C18F15246   2.847   1.110   8.385 -0.3446 -0.0225 -0.3427
  139OSM   H18F15247   2.838   1.216   8.418  1.4443  0.4842 -1.3245
  139OSM   H18G15248   2.931   1.063   8.442  0.9753 -0.2547 -2.3790
  139OSM   H18H15249   2.754   1.058   8.415 -0.3247  0.8400  1.3813
  140OSM      N15250   3.895   2.711   6.439  0.4618 -0.2570 -0.0759
  140OSM    C1515251   3.845   2.847   6.465 -0.6402  0.5793  0.3400
  140OSM   H15A15252   3.866   2.877   6.567  0.2587  0.0823  0.3083
  140OSM   H15B15253   3.741   2.856   6.436 -0.7667 -2.4705 -0.5000
  140OSM   H15C15254   3.905   2.907   6.398 -0.6972 -0.2737 -0.4834
  140OSM    C1415255   3.832   2.615   6.536  0.1858 -0.3430  0.0292
  140OSM   H14A15256   3.741   2.571   6.498  1.6345 -2.2862 -1.4050
  140OSM   H14B15257   3.817   2.665   6.630 -3.2678 -1.6541  0.3014
  140OSM   H14C15258   3.901   2.532   6.547  1.0260  0.2682 -0.4702
  140OSM    C1315259   3.860   2.665   6.300  0.4505  0.4938 -0.5619
  140OSM   H13A15260   3.925   2.700   6.221 -1.3273  2.3504 -1.2901
  140OSM   H13B15261   3.759   2.688   6.271  0.1788  1.2406  0.8662
  140OSM   H13C15262   3.873   2.558   6.296 -2.0110  0.0970  0.5085
  140OSM    C1215263   4.051   2.709   6.455  0.4229 -0.1038 -0.2620
  140OSM   H12A15264   4.089   2.610   6.441 -0.2972 -0.5495  0.7964
  140OSM   H12B15265   4.080   2.732   6.556  1.8372 -1.5813 -0.2971
  140OSM    C1115266   4.132   2.809   6.369 -0.4098  0.0495  0.0125
  140OSM   H11A15267   4.093   2.814   6.265 -1.3302  2.5469  0.3924
  140OSM   H11B15268   4.240   2.784   6.380  0.2033  2.2869 -0.3699
  140OSM      P15269   4.200   3.021   6.514 -0.3856 -0.2104 -0.0114
  140OSM    O1315270   4.336   2.971   6.494 -0.5048 -0.7541  0.4317
  140OSM    O1415271   4.170   3.166   6.512 -0.6828  0.0490  0.8508
  140OSM    O1115272   4.138   2.953   6.638  0.0720 -0.3688  0.0709
  140OSM    O1215273   4.107   2.946   6.413  0.0646  0.0739 -0.0093
  140OSM    C1S15274   4.220   2.867   6.724  0.5369  0.0925 -0.7106
  140OSM    H1S15275   4.315   2.921   6.741  1.6444 -1.8515 -0.3738
  140OSM    H1T15276   4.237   2.769   6.673  0.1174 -0.1589 -0.3757
  140OSM     NF15277   4.258   2.771   6.941 -0.5015  0.9466 -0.3661
  140OSM    HNF15278   4.243   2.673   6.932  0.2476  0.8480 -0.6711
  140OSM    C2S15279   4.162   2.851   6.864  0.1943 -0.0266 -0.1724
  140OSM    H2S15280   4.147   2.945   6.922 -0.0692  0.4515 -0.9918
  140OSM    C3S15281   4.019   2.787   6.860  0.8832 -0.7418  0.0320
  140OSM    H3S15282   4.030   2.684   6.819 -0.1876 -1.0906  0.5722
  140OSM     O315283   3.925   2.849   6.778  0.5617 -0.0110  0.4468
  140OSM    HO315284   3.967   2.921   6.730 -1.4363  1.3853  0.6715
  140OSM    C4S15285   3.972   2.783   7.002  0.3077 -0.4823  0.1027
  140OSM    H4S15286   4.004   2.691   7.052  1.6161 -1.5422 -2.4903
  140OSM    C5S15287   3.912   2.877   7.077  0.5284 -0.8398  0.0079
  140OSM    H5S15288   3.888   2.972   7.027 -1.6579 -1.6784 -0.6638
  140OSM    C6S15289   3.887   2.873   7.231 -1.0529 -0.1409 -0.0122
  140OSM    H6S15290   3.779   2.868   7.256 -1.1513 -0.3534 -0.4683
  140OSM    H6T15291   3.937   2.960   7.279  1.9728 -1.4184 -0.6507
  140OSM    C7S15292   3.962   2.762   7.305  0.3398 -0.2330 -0.7568
  140OSM    H7S15293   4.069   2.750   7.277  1.1857 -0.3950  2.1540
  140OSM    H7T15294   3.914   2.667   7.272  1.1788 -1.1809  0.6230
  140OSM    C8S15295   3.970   2.779   7.456  0.9229  0.0706  0.1076
  140OSM    H8S15296   3.874   2.766   7.510  1.7147 -2.2794  1.0933
  140OSM    H8T15297   3.999   2.880   7.491  0.5621  0.4061 -0.5323
  140OSM    C9S15298   4.064   2.681   7.520  0.0553 -0.2455 -0.2217
  140OSM    H9S15299   4.169   2.695   7.487  0.7496  0.3444  2.0493
  140OSM    H9T15300   4.022   2.583   7.490 -1.8081  1.1256 -2.3953
  140OSM   C10S15301   4.063   2.702   7.669 -0.4418 -0.0239 -0.9470
  140OSM   H10S15302   4.030   2.808   7.671 -0.8923 -0.1374 -1.7860
  140OSM   H10T15303   4.168   2.692   7.703 -0.6710 -1.8123 -0.6164
  140OSM   C11S15304   3.980   2.610   7.757  0.1003 -0.3971 -0.5465
  140OSM   H11S15305   4.021   2.507   7.745  0.2902 -0.0453 -3.9474
  140OSM   H11T15306   3.875   2.606   7.722 -0.4976 -0.4644  1.1580
  140OSM   C12S15307   3.983   2.646   7.908 -0.2716 -0.0251  0.2025
  140OSM   H12S15308   3.941   2.748   7.912  0.7629  0.3786  1.5318
  140OSM   H12T15309   4.083   2.662   7.954  0.2576  0.4453 -1.0722
  140OSM   C13S15310   3.911   2.538   7.991  0.0463  0.4986  0.0135
  140OSM   H13S15311   3.975   2.447   7.998  1.7190  1.5588 -0.9328
  140OSM   H13T15312   3.809   2.510   7.958  0.2693 -0.7596  0.3091
  140OSM   C14S15313   3.907   2.591   8.131  0.6234  0.4032 -0.3419
  140OSM   H14S15314   3.864   2.693   8.138 -2.0250 -0.7077  0.6000
  140OSM   H14T15315   4.012   2.602   8.166  0.9255 -2.0024 -0.3492
  140OSM   C15S15316   3.834   2.499   8.232 -0.1017 -0.0919  0.7893
  140OSM   H15S15317   3.873   2.514   8.335  1.1719 -3.9211  1.0543
  140OSM   H15T15318   3.860   2.394   8.207  1.3392  0.1117  1.3339
  140OSM   C16S15319   3.690   2.520   8.248 -0.1439  0.4880  0.5055
  140OSM   H16S15320   3.650   2.522   8.144 -0.3004 -1.4920  0.4929
  140OSM   H16T15321   3.673   2.623   8.288  0.0409  1.2014 -1.1820
  140OSM   C17S15322   3.607   2.408   8.329 -0.8221 -0.5272 -0.1116
  140OSM   H17S15323   3.503   2.445   8.323 -0.5288  0.5761  1.2714
  140OSM   H17T15324   3.636   2.396   8.436 -1.2769  3.3596  0.5903
  140OSM   C18S15325   3.616   2.265   8.261 -0.2975 -0.0659  0.1573
  140OSM   H18S15326   3.552   2.186   8.308 -1.0453  0.9142  0.8355
  140OSM   H18T15327   3.719   2.223   8.258 -0.1206  0.4438 -1.8939
  140OSM   H18U15328   3.597   2.262   8.152  0.8416 -0.9939 -0.0361
  140OSM    C1F15329   4.365   2.823   6.990 -0.4170 -0.4784 -0.4234
  140OSM     OF15330   4.370   2.945   6.997  0.4506 -0.3350  0.8483
  140OSM    C2F15331   4.469   2.743   7.043 -0.1727 -0.7214 -0.4846
  140OSM    H2F15332   4.546   2.714   6.968 -1.0180 -2.1781 -0.8405
  140OSM    H2G15333   4.432   2.649   7.089  0.1141 -0.5996  0.0011
  140OSM    C3F15334   4.549   2.815   7.156 -0.6255 -0.8927 -0.6201
  140OSM    H3F15335   4.469   2.835   7.230  0.0670 -2.2181  0.5292
  140OSM    H3G15336   4.606   2.901   7.115 -0.7901 -0.5629 -0.1616
  140OSM    C4F15337   4.655   2.737   7.237  0.1768  0.3527  0.5452
  140OSM    H4F15338   4.724   2.803   7.293 -0.6268  0.9685  0.8339
  140OSM    H4G15339   4.715   2.683   7.161 -0.6629 -0.7592  0.6586
  140OSM    C5F15340   4.616   2.621   7.322  0.4641 -0.4342 -0.2529
  140OSM    H5F15341   4.713   2.582   7.362  0.5336 -0.4600 -0.4459
  140OSM    H5G15342   4.574   2.534   7.269 -0.5696 -0.0359 -0.1074
  140OSM    C6F15343   4.539   2.668   7.450 -0.3040  0.8248 -0.0866
  140OSM    H6F15344   4.436   2.694   7.416 -0.3391 -0.2438 -0.8378
  140OSM    H6G15345   4.593   2.765   7.461  0.4024  0.8064 -2.7600
  140OSM    C7F15346   4.546   2.566   7.560  0.0084  0.2382 -0.1874
  140OSM    H7F15347   4.652   2.540   7.579 -0.1679 -1.6326 -1.4772
  140OSM    H7G15348   4.498   2.467   7.547 -0.7413  0.4666  0.7104
  140OSM    C8F15349   4.508   2.631   7.702  0.6854  0.3326 -0.1676
  140OSM    H8F15350   4.442   2.719   7.686 -0.1487 -0.2402  0.0700
  140OSM    H8G15351   4.605   2.663   7.746  0.2896  2.3683 -0.6754
  140OSM    C9F15352   4.436   2.536   7.791  0.6401  0.4213 -0.1087
  140OSM    H9F15353   4.330   2.520   7.765  1.3595 -1.6050 -2.0972
  140OSM   C10F15354   4.485   2.468   7.895 -0.2811 -0.0549  0.4353
  140OSM   H10F15355   4.415   2.390   7.928 -1.6417  0.7434 -0.4645
  140OSM   C11F15356   4.626   2.449   7.943 -0.3638  0.0368  0.4934
  140OSM   H11F15357   4.697   2.464   7.858 -1.0017  1.4135  0.1674
  140OSM   H11G15358   4.630   2.342   7.973  1.9512  0.2291  1.0580
  140OSM   C12F15359   4.676   2.537   8.060 -0.4627  0.2131 -0.1308
  140OSM   H12F15360   4.644   2.643   8.048 -2.0715 -0.3215 -0.6878
  140OSM   H12G15361   4.786   2.527   8.072 -0.2997  2.2673  0.5215
  140OSM   C13F15362   4.618   2.489   8.194  0.1399  0.3222  0.9518
  140OSM   H13F15363   4.636   2.381   8.210  0.6576 -0.4346 -3.6245
  140OSM   H13G15364   4.512   2.513   8.169  0.4783  0.6218 -0.2127
  140OSM   C14F15365   4.661   2.560   8.326  0.6035  0.0789  0.4127
  140OSM   H14F15366   4.637   2.669   8.320 -0.7514 -0.2744 -1.7178
  140OSM   H14G15367   4.771   2.547   8.331  0.7284 -0.6013 -2.4270
  140OSM   C15F15368   4.590   2.512   8.453 -0.0401 -0.0554  0.0694
  140OSM   H15F15369   4.612   2.591   8.527  0.7202  1.6086 -1.8387
  140OSM   H15G15370   4.625   2.413   8.490 -0.8359 -0.3448  0.0742
  140OSM   C16F15371   4.439   2.513   8.434 -0.3590 -0.1624 -0.1465
  140OSM   H16F15372   4.389   2.464   8.520 -2.4638 -0.5963 -1.5287
  140OSM   H16G15373   4.412   2.462   8.339  0.7263  1.4594 -1.3885
  140OSM   C17F15374   4.373   2.648   8.437  0.0031 -0.1577 -0.1859
  140OSM   H17F15375   4.435   2.716   8.374  1.4203 -0.9601  0.2992
  140OSM   H17G15376   4.376   2.690   8.540 -2.3162 -0.9138  0.2459
  140OSM   C18F15377   4.222   2.640   8.417  0.6206 -0.2689  0.7240
  140OSM   H18F15378   4.168   2.578   8.491 -0.7421  1.2112  1.0235
  140OSM   H18G15379   4.188   2.590   8.324 -1.2630  2.1258  0.0119
  140OSM   H18H15380   4.172   2.739   8.418  0.5869 -0.2305 -1.2096
  141OSM      N15381   1.934   4.194   6.207 -0.3505  0.5798  0.7371
  141OSM    C1515382   2.008   4.140   6.321  0.2813  0.0412 -0.0159
  141OSM   H15A15383   1.958   4.124   6.415  2.7552 -0.5431  1.2854
  141OSM   H15B15384   2.093   4.204   6.338 -0.0704  0.9932 -1.6635
  141OSM   H15C15385   2.053   4.043   6.302  1.9994  0.1593  2.7932
  141OSM    C1415386   1.828   4.092   6.175  0.4657  0.1116 -0.2424
  141OSM   H14A15387   1.876   4.000   6.145  1.2401  0.1333  0.8675
  141OSM   H14B15388   1.769   4.132   6.094 -0.4742 -0.6183  0.0617
  141OSM   H14C15389   1.762   4.072   6.257  0.2251  2.5327  0.2291
  141OSM    C1315390   1.862   4.321   6.230  0.5458 -0.6355  0.4744
  141OSM   H13A15391   1.927   4.392   6.279  1.1264 -0.0460 -1.1083
  141OSM   H13B15392   1.783   4.305   6.302 -0.0673  1.5797  0.3588
  141OSM   H13C15393   1.819   4.366   6.142 -0.2535 -0.0531  1.1484
  141OSM    C1215394   2.030   4.215   6.089  0.2190 -0.1972 -0.0720
  141OSM   H12A15395   1.971   4.250   6.006 -1.2375  0.8902  1.3459
  141OSM   H12B15396   2.070   4.119   6.061  1.2577  0.8283 -2.3443
  141OSM    C1115397   2.161   4.304   6.124  0.1688  0.6218 -0.4844
  141OSM   H11A15398   2.206   4.310   6.023 -1.8038  0.8046 -1.4040
  141OSM   H11B15399   2.219   4.238   6.192 -1.2438  0.8029  0.9570
  141OSM      P15400   2.220   4.509   6.273  0.1343 -0.4936  0.0246
  141OSM    O1315401   2.342   4.557   6.208  0.2919  0.1100  0.3693
  141OSM    O1415402   2.145   4.611   6.341  0.5335  0.5030 -0.0327
  141OSM    O1115403   2.256   4.402   6.375  0.2946  0.0818 -0.0046
  141OSM    O1215404   2.130   4.433   6.172 -0.1843 -0.3415 -0.4856
  141OSM    C1S15405   2.374   4.395   6.459  0.2985  0.7322  0.3481
  141OSM    H1S15406   2.466   4.448   6.424  0.1597  0.8758  0.1989
  141OSM    H1T15407   2.413   4.292   6.440  0.0282  1.0642 -2.4024
  141OSM     NF15408   2.429   4.470   6.691 -0.3562 -0.4369  0.3273
  141OSM    HNF15409   2.441   4.408   6.769 -0.1813  0.9364  1.4334
  141OSM    C2S15410   2.332   4.422   6.609  0.1227 -1.0678  0.0522
  141OSM    H2S15411   2.266   4.512   6.604  0.5481 -0.7910 -0.7332
  141OSM    C3S15412   2.257   4.307   6.668  0.3413  0.3583 -0.0352
  141OSM    H3S15413   2.334   4.232   6.698  1.2557  0.9624 -0.8108
  141OSM     O315414   2.174   4.232   6.577  0.0866 -0.5562 -0.1786
  141OSM    HO315415   2.191   4.281   6.497  0.5021 -1.3533 -0.5930
  141OSM    C4S15416   2.186   4.350   6.800 -0.4178  0.2380 -0.3138
  141OSM    H4S15417   2.248   4.358   6.891  0.0210  1.8059 -0.7108
  141OSM    C5S15418   2.067   4.402   6.813 -0.2327 -0.1932 -0.0095
  141OSM    H5S15419   2.003   4.407   6.724 -1.3715  1.4019  0.8616
  141OSM    C6S15420   1.996   4.441   6.938 -1.1054  0.2948  0.2266
  141OSM    H6S15421   1.888   4.431   6.913 -1.1825  3.7730 -1.4024
  141OSM    H6T15422   2.005   4.551   6.949  1.8685  0.1249  0.0960
  141OSM    C7S15423   2.036   4.376   7.066  0.2586  0.3755  0.0628
  141OSM    H7S15424   2.147   4.388   7.059  0.5450 -1.4229  1.0241
  141OSM    H7T15425   2.009   4.268   7.065 -1.0048  0.6794 -0.9965
  141OSM    C8S15426   1.995   4.455   7.192 -0.2417 -0.1979 -0.0530
  141OSM    H8S15427   1.884   4.463   7.192 -0.1372  1.9736  0.8420
  141OSM    H8T15428   2.039   4.557   7.192  1.4972 -0.9057 -1.0481
  141OSM    C9S15429   2.021   4.380   7.319 -0.4815 -0.0306 -0.4587
  141OSM    H9S15430   2.118   4.326   7.316 -1.1065 -1.1420 -1.3024
  141OSM    H9T15431   1.952   4.292   7.319  0.9756 -1.2969 -3.1049
  141OSM   C10S15432   1.996   4.469   7.439  0.5975  0.4197  0.6001
  141OSM   H10S15433   1.888   4.498   7.432  1.2633  2.7977 -1.0141
  141OSM   H10T15434   2.063   4.558   7.441 -1.5132  2.1729 -1.0713
  141OSM   C11S15435   2.002   4.377   7.558 -0.2663 -0.5475  0.2796
  141OSM   H11S15436   2.106   4.341   7.576  0.4096 -0.0407 -2.2792
  141OSM   H11T15437   1.944   4.286   7.533 -0.9860  0.3077 -1.2381
  141OSM   C12S15438   1.950   4.453   7.671 -0.5619  0.1381 -0.6172
  141OSM   H12S15439   1.845   4.480   7.648 -0.8111 -1.3208 -1.3039
  141OSM   H12T15440   2.018   4.540   7.686 -0.7725 -0.0454  1.6571
  141OSM   C13S15441   1.949   4.352   7.783 -0.0455  0.1131 -0.4481
  141OSM   H13S15442   2.054   4.328   7.811 -0.5423 -1.4828  0.1183
  141OSM   H13T15443   1.905   4.257   7.748  2.1561 -1.3068  0.3882
  141OSM   C14S15444   1.885   4.402   7.914 -0.1804 -0.3762  0.5354
  141OSM   H14S15445   1.783   4.438   7.889  0.8053  1.1665 -1.6521
  141OSM   H14T15446   1.949   4.483   7.955  0.5927 -0.4888 -0.4258
  141OSM   C15S15447   1.875   4.285   8.013 -0.3736 -0.0406 -0.1913
  141OSM   H15S15448   1.977   4.252   8.040 -0.5290 -2.1621 -1.9536
  141OSM   H15T15449   1.834   4.199   7.957 -0.7955 -0.7501  1.1510
  141OSM   C16S15450   1.786   4.304   8.136  0.1882  0.3938 -0.1797
  141OSM   H16S15451   1.682   4.281   8.104  0.2782 -3.2092  1.5655
  141OSM   H16T15452   1.795   4.403   8.184 -1.3454  0.3413  0.2568
  141OSM   C17S15453   1.823   4.215   8.258 -0.4743 -0.7269 -0.7814
  141OSM   H17S15454   1.933   4.224   8.274 -0.4039 -3.3799  0.6915
  141OSM   H17T15455   1.821   4.107   8.234 -1.3897 -0.6133 -1.2472
  141OSM   C18S15456   1.738   4.239   8.383  0.1012  0.8343  0.6742
  141OSM   H18S15457   1.734   4.347   8.409 -0.1803  1.3723 -1.4354
  141OSM   H18T15458   1.782   4.187   8.471 -4.1580 -1.8612  1.4729
  141OSM   H18U15459   1.633   4.207   8.366  0.4768  0.5757 -1.4930
  141OSM    C1F15460   2.526   4.564   6.672 -0.7626  0.6228 -0.1690
  141OSM     OF15461   2.507   4.646   6.579 -0.0978 -0.4244 -0.1506
  141OSM    C2F15462   2.645   4.564   6.772 -0.0390  0.5790 -0.4787
  141OSM    H2F15463   2.684   4.460   6.784 -0.5340 -0.4393 -5.4513
  141OSM    H2G15464   2.613   4.591   6.874 -1.1514  0.4430 -0.7725
  141OSM    C3F15465   2.773   4.653   6.731  0.6483 -0.1262  0.1559
  141OSM    H3F15466   2.757   4.752   6.683  2.8600 -1.1248 -2.9962
  141OSM    H3G15467   2.809   4.596   6.642 -1.9728 -1.3204 -0.2361
  141OSM    C4F15468   2.882   4.674   6.838  0.0300  0.6028  0.3508
  141OSM    H4F15469   2.831   4.718   6.926  0.8273  0.5216  0.8721
  141OSM    H4G15470   2.941   4.758   6.797  0.7474 -1.6826 -3.8870
  141OSM    C5F15471   2.955   4.547   6.890  0.1204 -0.9134  0.6069
  141OSM    H5F15472   2.966   4.485   6.798 -0.7772  1.0777 -0.9149
  141OSM    H5G15473   2.906   4.484   6.967 -1.4654 -0.6858 -0.1782
  141OSM    C6F15474   3.087   4.592   6.954  0.0154  0.2290  0.0631
  141OSM    H6F15475   3.137   4.636   6.865 -1.2569  0.8690 -0.3625
  141OSM    H6G15476   3.140   4.500   6.985  2.2449  1.2736 -0.4329
  141OSM    C7F15477   3.080   4.696   7.068  0.2496 -0.3338 -0.5055
  141OSM    H7F15478   3.029   4.658   7.159 -0.3366  1.1124 -0.2044
  141OSM    H7G15479   3.021   4.779   7.024  1.6116  0.8527 -0.1751
  141OSM    C8F15480   3.213   4.750   7.109 -0.6102 -0.4156  0.6216
  141OSM    H8F15481   3.201   4.843   7.169  2.4016 -0.7983  1.9423
  141OSM    H8G15482   3.263   4.782   7.015 -2.5873 -0.9099 -0.6672
  141OSM    C9F15483   3.289   4.644   7.181  0.9989 -0.4014 -0.3988
  141OSM    H9F15484   3.353   4.576   7.122  1.5158  0.5974 -1.0240
  141OSM   C10F15485   3.282   4.626   7.316 -0.1998  0.1511  1.1510
  141OSM   H10F15486   3.349   4.549   7.358  0.4470  1.0005  1.6899
  141OSM   C11F15487   3.197   4.703   7.417  0.0285 -0.6836  0.1459
  141OSM   H11F15488   3.094   4.661   7.425  0.5674 -2.2555 -0.5946
  141OSM   H11G15489   3.194   4.810   7.390 -0.1023 -0.4114  1.2182
  141OSM   C12F15490   3.251   4.688   7.561  0.4595  0.7603  0.0758
  141OSM   H12F15491   3.358   4.718   7.565  0.5709  1.0625 -3.1312
  141OSM   H12G15492   3.247   4.585   7.604  0.4651  0.1348 -1.3803
  141OSM   C13F15493   3.171   4.785   7.651 -0.7436 -0.4284 -0.0281
  141OSM   H13F15494   3.068   4.747   7.669 -1.6006  1.6203 -0.4482
  141OSM   H13G15495   3.151   4.883   7.605  1.9532  0.1687 -0.1014
  141OSM   C14F15496   3.245   4.792   7.786  0.1094  0.0741 -0.0355
  141OSM   H14F15497   3.331   4.860   7.770 -0.2420  0.3957 -0.5672
  141OSM   H14G15498   3.283   4.692   7.815 -0.1677 -0.7302 -2.2639
  141OSM   C15F15499   3.167   4.854   7.901 -0.3571  0.1033 -0.0575
  141OSM   H15F15500   3.095   4.778   7.941 -1.5842  0.6968 -1.0968
  141OSM   H15G15501   3.117   4.947   7.866 -0.3448 -0.8070 -2.7264
  141OSM   C16F15502   3.264   4.892   8.018  0.8161 -0.1126 -0.1599
  141OSM   H16F15503   3.335   4.966   7.975  0.6861  0.6590  0.9195
  141OSM   H16G15504   3.320   4.805   8.058  0.6802  0.1728  0.6548
  141OSM   C17F15505   3.189   4.955   8.137 -0.5036 -0.5555  0.9735
  141OSM   H17F15506   3.119   5.038   8.116  0.6363 -0.4024 -3.0296
  141OSM   H17G15507   3.263   5.010   8.199 -0.2588  1.6175 -1.1110
  141OSM   C18F15508   3.112   4.844   8.213 -0.2935 -0.3816 -1.1933
  141OSM   H18F15509   3.182   4.762   8.235  0.0458  0.1257 -0.3269
  141OSM   H18G15510   3.019   4.812   8.161 -2.1328  2.8007 -0.1354
  141OSM   H18H15511   3.062   4.878   8.306 -2.6663 -0.5909 -2.3021
  142OSM      N15512   2.501   5.575   6.136  0.2200  0.3363  0.3086
  142OSM    C1515513   2.366   5.516   6.100 -0.2507 -0.1044 -0.1508
  142OSM   H15A15514   2.348   5.427   6.158 -2.4206  1.3199  1.5439
  142OSM   H15B15515   2.355   5.497   5.995  1.0233 -0.0645 -0.3061
  142OSM   H15C15516   2.294   5.592   6.127  0.6907  1.1230 -0.9900
  142OSM    C1415517   2.607   5.473   6.112  0.3279 -0.2318 -0.5217
  142OSM   H14A15518   2.627   5.451   6.008  2.1989 -0.2238 -0.2072
  142OSM   H14B15519   2.581   5.379   6.156  0.5226 -0.0318  0.0255
  142OSM   H14C15520   2.704   5.505   6.149  0.4638 -0.8178 -0.3664
  142OSM    C1315521   2.531   5.691   6.041  0.3158  0.1554  0.5141
  142OSM   H13A15522   2.625   5.736   6.069  1.2663 -1.1720 -0.4241
  142OSM   H13B15523   2.468   5.776   6.061 -0.9106 -1.2321  2.9669
  142OSM   H13C15524   2.540   5.658   5.938 -2.2216  1.8929 -0.3797
  142OSM    C1215525   2.505   5.622   6.274 -0.1344  0.5212 -0.7417
  142OSM   H12A15526   2.610   5.643   6.291  0.3345 -0.8968 -1.7047
  142OSM   H12B15527   2.465   5.545   6.339  1.5944  0.0600 -0.1755
  142OSM    C1115528   2.420   5.747   6.312  0.7992 -0.7168  0.0877
  142OSM   H11A15529   2.407   5.729   6.421 -0.6508 -1.5559 -0.1824
  142OSM   H11B15530   2.325   5.725   6.258  1.2902  0.2994 -1.2600
  142OSM      P15531   2.595   5.937   6.337  0.4128  0.4098  0.1224
  142OSM    O1315532   2.717   5.871   6.279 -0.1532 -0.2751  0.1291
  142OSM    O1415533   2.581   6.084   6.321  0.5983  0.2311  0.2118
  142OSM    O1115534   2.588   5.910   6.488  0.0709 -0.1188 -0.8208
  142OSM    O1215535   2.463   5.871   6.269 -0.2585 -0.2251  0.6765
  142OSM    C1S15536   2.702   5.868   6.567  0.2159 -0.2475  0.3783
  142OSM    H1S15537   2.794   5.924   6.540  0.1971 -0.7118 -0.7526
  142OSM    H1T15538   2.723   5.763   6.535  0.3045 -0.0454 -0.2490
  142OSM     NF15539   2.802   5.861   6.789  0.2097  0.2729  0.0465
  142OSM    HNF15540   2.815   5.764   6.806 -0.6122  0.5461  2.7931
  142OSM    C2S15541   2.683   5.889   6.718 -0.3725  0.7997 -0.1609
  142OSM    H2S15542   2.639   5.986   6.752 -0.3267  0.6286  0.3850
  142OSM    C3S15543   2.577   5.778   6.757 -0.2965  0.8366 -0.3377
  142OSM    H3S15544   2.621   5.677   6.744 -1.7009  0.0751  0.5261
  142OSM     O315545   2.451   5.776   6.686 -0.3752  0.1042  0.4995
  142OSM    HO315546   2.470   5.819   6.603 -0.2519  0.1596  0.5552
  142OSM    C4S15547   2.550   5.787   6.908 -0.0080  0.2719 -0.1117
  142OSM    H4S15548   2.624   5.736   6.971  0.7667  3.4352  1.7741
  142OSM    C5S15549   2.458   5.866   6.964  0.2912  0.3805  0.3414
  142OSM    H5S15550   2.388   5.914   6.894 -1.6892 -2.1594  0.4780
  142OSM    C6S15551   2.429   5.880   7.109  1.1717 -0.0036  0.4895
  142OSM    H6S15552   2.329   5.836   7.126  0.7305 -0.0775 -2.0280
  142OSM    H6T15553   2.412   5.989   7.123 -3.0279 -0.6117  1.4366
  142OSM    C7S15554   2.544   5.841   7.200 -0.1524  0.6534  0.5302
  142OSM    H7S15555   2.637   5.889   7.164 -0.5899  0.8798 -0.3077
  142OSM    H7T15556   2.575   5.737   7.223 -0.0042  0.8605  1.3190
  142OSM    C8S15557   2.510   5.899   7.340  0.6032 -0.3455  0.0856
  142OSM    H8S15558   2.431   5.977   7.335  0.1134 -0.9090 -1.5272
  142OSM    H8T15559   2.607   5.938   7.376 -0.0821  0.9731  0.5643
  142OSM    C9S15560   2.445   5.792   7.431  1.5600 -0.1786  0.3038
  142OSM    H9S15561   2.492   5.693   7.449 -1.3771 -1.6667  0.5264
  142OSM    H9T15562   2.343   5.767   7.395  1.2581  2.3414 -0.8099
  142OSM   C10S15563   2.398   5.838   7.573 -0.3657 -0.0690  0.1049
  142OSM   H10S15564   2.364   5.745   7.624 -1.4400  0.2668  0.0323
  142OSM   H10T15565   2.307   5.901   7.577 -1.5808 -1.7912  0.7785
  142OSM   C11S15566   2.514   5.913   7.637 -0.7470 -0.1885  0.0143
  142OSM   H11S15567   2.535   6.006   7.580 -0.8936  0.8898  1.6652
  142OSM   H11T15568   2.609   5.857   7.626 -0.5126  0.0828  0.6375
  142OSM   C12S15569   2.486   5.939   7.784 -0.6232 -1.2528  0.7967
  142OSM   H12S15570   2.379   5.967   7.799 -0.0478  0.6744  1.6428
  142OSM   H12T15571   2.543   6.030   7.814 -0.5611 -0.3837 -1.7619
  142OSM   C13S15572   2.521   5.830   7.878 -0.2154 -1.0078  0.6386
  142OSM   H13S15573   2.631   5.821   7.874 -0.0697  0.7706 -1.0838
  142OSM   H13T15574   2.477   5.731   7.853 -2.2829 -0.3567  1.4366
  142OSM   C14S15575   2.496   5.853   8.028 -0.0681 -0.2581 -0.4638
  142OSM   H14S15576   2.544   5.945   8.066  1.3687 -0.8745 -0.7093
  142OSM   H14T15577   2.536   5.764   8.082 -0.3834  0.4839  1.0362
  142OSM   C15S15578   2.345   5.865   8.063 -0.5486 -0.1298  0.9337
  142OSM   H15S15579   2.293   5.772   8.031 -1.1297  0.7664 -0.8977
  142OSM   H15T15580   2.303   5.952   8.008 -1.6515  0.0007  1.9537
  142OSM   C16S15581   2.311   5.900   8.206 -0.6889  0.0432 -0.7320
  142OSM   H16S15582   2.379   5.977   8.247 -0.6937 -0.2971 -0.0790
  142OSM   H16T15583   2.338   5.807   8.261  1.5677  1.6251  1.0087
  142OSM   C17S15584   2.172   5.950   8.221 -0.0818 -0.6046 -0.0373
  142OSM   H17S15585   2.094   5.877   8.190 -0.3432  0.3184 -1.7074
  142OSM   H17T15586   2.161   6.034   8.149  0.0566 -0.2370  0.3651
  142OSM   C18S15587   2.134   5.994   8.368 -0.2115 -0.5301 -0.8272
  142OSM   H18S15588   2.208   6.071   8.399  0.2404 -1.5699  0.8063
  142OSM   H18T15589   2.167   5.916   8.440  1.4134  1.9821  1.3809
  142OSM   H18U15590   2.031   6.032   8.384 -0.1833 -0.9431  0.4589
  142OSM    C1F15591   2.913   5.937   6.811  0.2425 -0.1288  0.0698
  142OSM     OF15592   2.927   6.041   6.755  0.1620 -0.2323  0.0516
  142OSM    C2F15593   3.024   5.880   6.895 -0.0371 -0.1241 -0.2648
  142OSM    H2F15594   3.117   5.880   6.835  0.0851 -1.4366 -0.0883
  142OSM    H2G15595   2.997   5.773   6.902 -0.6822 -0.1437 -2.4077
  142OSM    C3F15596   3.038   5.957   7.036  0.3758  0.3026  0.1881
  142OSM    H3F15597   3.058   6.059   6.997 -0.3315 -0.0535 -1.1584
  142OSM    H3G15598   3.112   5.916   7.108 -0.3433  0.8467  1.2668
  142OSM    C4F15599   2.901   5.974   7.107  0.2058  0.5970 -0.0805
  142OSM    H4F15600   2.858   5.871   7.100  1.3510  0.1197 -0.2811
  142OSM    H4G15601   2.842   6.049   7.049  0.4058 -0.3626 -1.6043
  142OSM    C5F15602   2.904   6.017   7.256 -0.5802 -0.7043 -0.0893
  142OSM    H5F15603   2.799   6.028   7.293 -0.8806  3.5705 -1.6956
  142OSM    H5G15604   2.942   6.121   7.262 -0.2648 -0.8713  1.3314
  142OSM    C6F15605   2.980   5.927   7.357  0.4154  0.4895 -0.0526
  142OSM    H6F15606   3.088   5.953   7.367  0.6534 -1.0430  2.1951
  142OSM    H6G15607   2.981   5.825   7.313  0.3509  0.0288  0.9847
  142OSM    C7F15608   2.906   5.904   7.489 -0.4666 -0.4083  0.3497
  142OSM    H7F15609   2.799   5.871   7.488 -0.3087 -0.9550 -0.9981
  142OSM    H7G15610   2.902   6.007   7.530  0.5138 -0.4394  0.5501
  142OSM    C8F15611   2.985   5.830   7.601 -0.3205  0.0479  0.2208
  142OSM    H8F15612   2.935   5.842   7.700 -0.2218 -3.3586  0.8097
  142OSM    H8G15613   3.089   5.870   7.600 -0.6675  0.9823 -0.5070
  142OSM    C9F15614   2.992   5.686   7.561 -0.4152  0.8414 -0.0932
  142OSM    H9F15615   3.032   5.659   7.462 -2.2230 -1.7842 -0.2212
  142OSM   C10F15616   2.938   5.583   7.626 -0.2263 -0.0054 -0.0143
  142OSM   H10F15617   2.949   5.486   7.575 -0.1075  1.1239 -2.2665
  142OSM   C11F15618   2.839   5.588   7.750  0.2794  0.2327  0.3393
  142OSM   H11F15619   2.762   5.509   7.744  2.1180 -1.5741 -2.5280
  142OSM   H11G15620   2.797   5.691   7.753  4.2530  2.0782  0.0399
  142OSM   C12F15621   2.915   5.553   7.876 -0.0110 -0.4200 -0.3373
  142OSM   H12F15622   2.849   5.573   7.963 -1.7171 -0.2638 -1.6187
  142OSM   H12G15623   3.005   5.618   7.881  0.2903 -0.6953 -1.7804
  142OSM   C13F15624   2.961   5.402   7.886  0.1929  1.0429 -0.3737
  142OSM   H13F15625   2.999   5.349   7.796 -1.3496 -1.1544  0.1610
  142OSM   H13G15626   2.865   5.357   7.921 -0.1503  1.6503 -0.5200
  142OSM   C14F15627   3.060   5.367   8.006  0.0753 -0.6846  0.8369
  142OSM   H14F15628   3.145   5.438   7.990  0.4100 -0.7070  2.3358
  142OSM   H14G15629   3.100   5.264   7.990 -0.6531 -1.2086  2.2554
  142OSM   C15F15630   3.017   5.402   8.143 -0.6757  0.4438 -0.0667
  142OSM   H15F15631   2.917   5.368   8.178  0.2225 -4.9002 -1.8609
  142OSM   H15G15632   3.014   5.513   8.140  0.0223  0.5143  1.0748
  142OSM   C16F15633   3.126   5.357   8.250 -0.4622 -0.2375 -0.2029
  142OSM   H16F15634   3.230   5.378   8.218 -0.9350 -0.4437 -2.0286
  142OSM   H16G15635   3.116   5.248   8.269  1.2197 -0.3698  0.0601
  142OSM   C17F15636   3.103   5.422   8.385 -0.9158 -0.2454 -0.2847
  142OSM   H17F15637   3.001   5.418   8.428 -0.3127 -0.5212  1.1923
  142OSM   H17G15638   3.122   5.531   8.373  1.7570 -0.6418 -0.2307
  142OSM   C18F15639   3.199   5.377   8.493 -0.1298  0.3952  0.0894
  142OSM   H18F15640   3.184   5.450   8.575 -1.6365  0.5879 -0.3307
  142OSM   H18G15641   3.304   5.363   8.461 -0.9652 -1.8733 -1.9686
  142OSM   H18H15642   3.173   5.273   8.522  3.0008 -0.9628 -1.5475
  143OSM      N15643   4.002   1.647   6.444 -0.3059  0.5548 -0.4714
  143OSM    C1515644   3.890   1.737   6.398  0.7007 -0.4882  0.4154
  143OSM   H15A15645   3.843   1.793   6.478  1.0596 -0.4067  0.5725
  143OSM   H15B15646   3.819   1.677   6.344 -0.3090 -0.3298  1.5282
  143OSM   H15C15647   3.935   1.811   6.334 -0.8771 -0.2298 -0.4156
  143OSM    C1415648   4.113   1.734   6.500  0.1365  0.2870  0.0115
  143OSM   H14A15649   4.179   1.767   6.421 -1.0641  1.2032 -0.6344
  143OSM   H14B15650   4.180   1.680   6.566 -0.6597  1.9191  2.2845
  143OSM   H14C15651   4.081   1.821   6.556  1.1715 -0.2529  1.5173
  143OSM    C1315652   3.952   1.559   6.561  0.9557 -0.1639 -0.9171
  143OSM   H13A15653   4.033   1.494   6.593  1.8782 -0.0065 -2.7842
  143OSM   H13B15654   3.872   1.491   6.538  0.8625 -1.1290  1.9047
  143OSM   H13C15655   3.914   1.613   6.646  1.2831  0.0043 -0.8731
  143OSM    C1215656   4.056   1.557   6.337 -0.5258  0.3402  0.5883
  143OSM   H12A15657   4.143   1.513   6.382  2.6092  4.0143 -1.3229
  143OSM   H12B15658   4.096   1.614   6.254 -0.8488 -0.9678 -0.4929
  143OSM    C1115659   3.964   1.440   6.284 -0.5807  0.4551 -0.0870
  143OSM   H11A15660   3.949   1.379   6.375  1.6603  1.5676  1.1022
  143OSM   H11B15661   4.008   1.381   6.200 -1.6693 -1.2669  0.5097
  143OSM      P15662   3.712   1.409   6.260  0.0774 -0.5033 -0.0199
  143OSM    O1315663   3.591   1.485   6.230 -0.6157  0.1462  0.2489
  143OSM    O1415664   3.731   1.284   6.185 -0.0705  0.6908 -0.3111
  143OSM    O1115665   3.716   1.377   6.412  0.1134  0.3612 -0.2743
  143OSM    O1215666   3.840   1.497   6.241  0.9282  0.1750 -0.4677
  143OSM    C1S15667   3.707   1.242   6.455 -0.1594  0.7002 -0.2595
  143OSM    H1S15668   3.780   1.175   6.406 -0.2832  0.0822  0.3853
  143OSM    H1T15669   3.605   1.202   6.434  0.0990  0.5129 -1.2121
  143OSM     NF15670   3.725   1.070   6.631  0.3801  0.2589  0.4958
  143OSM    HNF15671   3.645   1.028   6.674  1.0238 -0.7127  0.7970
  143OSM    C2S15672   3.728   1.212   6.609 -0.4243  0.2763  0.1859
  143OSM    H2S15673   3.825   1.259   6.632  0.1188 -0.1303 -1.1666
  143OSM    C3S15674   3.620   1.290   6.687 -0.0021  0.7370  0.5181
  143OSM    H3S15675   3.518   1.259   6.653  0.8204 -0.1995 -1.2482
  143OSM     O315676   3.635   1.427   6.665  0.0872 -0.0720 -0.5240
  143OSM    HO315677   3.696   1.438   6.592  1.0693  1.2486  0.4344
  143OSM    C4S15678   3.635   1.265   6.836  0.7007 -0.5254 -0.6857
  143OSM    H4S15679   3.736   1.254   6.876 -0.0240 -1.8102  0.8651
  143OSM    C5S15680   3.530   1.245   6.922  0.0891  0.5961  0.1547
  143OSM    H5S15681   3.425   1.242   6.891  0.4648 -2.3145 -1.1729
  143OSM    C6S15682   3.564   1.213   7.067  0.0035 -0.4404 -0.2060
  143OSM    H6S15683   3.672   1.189   7.079 -0.1925 -2.0252 -1.3315
  143OSM    H6T15684   3.521   1.112   7.084  0.0990 -0.0545  2.9414
  143OSM    C7S15685   3.519   1.319   7.160  0.2789  0.0831  0.1351
  143OSM    H7S15686   3.409   1.332   7.153  0.3874  0.1047 -2.0071
  143OSM    H7T15687   3.566   1.418   7.142 -0.9497  0.3201 -2.0155
  143OSM    C8S15688   3.543   1.285   7.307 -0.1292  0.0160 -0.2500
  143OSM    H8S15689   3.638   1.230   7.322  0.4188  0.9930 -0.0962
  143OSM    H8T15690   3.479   1.201   7.343  2.0005 -0.3642  3.1198
  143OSM    C9S15691   3.545   1.402   7.405 -0.5112  0.2801 -0.0064
  143OSM    H9S15692   3.442   1.442   7.420 -0.8631 -0.1950 -1.0614
  143OSM    H9T15693   3.610   1.487   7.376  1.1413 -0.3369  1.6730
  143OSM   C10S15694   3.610   1.350   7.541  0.1904 -0.7083  1.1284
  143OSM   H10S15695   3.704   1.297   7.514 -0.2741 -0.6042 -0.8693
  143OSM   H10T15696   3.544   1.266   7.574 -0.1275 -0.1110  2.0629
  143OSM   C11S15697   3.633   1.461   7.641 -0.6951  0.4681  0.6461
  143OSM   H11S15698   3.535   1.509   7.659 -1.1033 -0.2594  0.4205
  143OSM   H11T15699   3.704   1.532   7.594  0.1937 -1.0309 -0.4003
  143OSM   C12S15700   3.690   1.421   7.774  0.0311  0.7925  0.6788
  143OSM   H12S15701   3.778   1.354   7.768  0.4434  1.1794  2.1260
  143OSM   H12T15702   3.605   1.352   7.791 -0.3253  1.1040  0.1924
  143OSM   C13S15703   3.710   1.534   7.867  0.4242 -0.1683 -0.3827
  143OSM   H13S15704   3.621   1.598   7.887  0.1186 -0.5464 -0.5058
  143OSM   H13T15705   3.786   1.598   7.817  1.9591 -1.8171 -0.2676
  143OSM   C14S15706   3.766   1.484   8.000  0.7102  0.5122 -0.0944
  143OSM   H14S15707   3.830   1.395   7.988  0.1262  0.0147  0.4164
  143OSM   H14T15708   3.683   1.443   8.061 -0.4368 -0.3669 -2.1418
  143OSM   C15S15709   3.822   1.594   8.082 -0.2822  0.7391  0.4099
  143OSM   H15S15710   3.919   1.608   8.030  0.3658 -1.3685  0.9525
  143OSM   H15T15711   3.846   1.552   8.182  2.6808  2.5531  0.5797
  143OSM   C16S15712   3.720   1.703   8.095  0.1448 -0.2552  0.3449
  143OSM   H16S15713   3.620   1.664   8.120  0.0865  0.7474  1.7480
  143OSM   H16T15714   3.701   1.777   8.014 -1.4005 -0.5468  0.4202
  143OSM   C17S15715   3.775   1.789   8.211 -0.2116  0.5885 -0.1653
  143OSM   H17S15716   3.874   1.821   8.170  0.4352 -0.0322  0.8708
  143OSM   H17T15717   3.803   1.726   8.298  1.0427  0.2758 -0.7722
  143OSM   C18S15718   3.698   1.919   8.248 -0.5240  0.4248 -0.2356
  143OSM   H18S15719   3.677   1.982   8.159  1.1011  1.6582  0.2088
  143OSM   H18T15720   3.764   1.975   8.318 -0.8069 -0.0767  0.4439
  143OSM   H18U15721   3.599   1.903   8.296  0.1980 -0.8885  0.8805
  143OSM    C1F15722   3.830   0.996   6.615 -0.7058  0.1711 -0.2948
  143OSM     OF15723   3.935   1.050   6.592 -0.2870  0.4916 -0.1470
  143OSM    C2F15724   3.826   0.852   6.642 -0.6995  0.2897 -0.2646
  143OSM    H2F15725   3.888   0.804   6.563  1.3012  2.8452 -0.3563
  143OSM    H2G15726   3.726   0.804   6.633  0.4262 -2.3811  0.3104
  143OSM    C3F15727   3.879   0.814   6.782 -0.5548 -0.4453 -0.2930
  143OSM    H3F15728   3.871   0.705   6.798  2.5337 -0.4608  2.4384
  143OSM    H3G15729   3.814   0.863   6.859 -0.7834  0.3363 -0.9677
  143OSM    C4F15730   4.018   0.859   6.815 -0.9357  1.0757 -1.1177
  143OSM    H4F15731   4.038   0.968   6.805  1.9022  0.9792  1.9463
  143OSM    H4G15732   4.072   0.804   6.735 -1.7484 -0.5616 -0.5974
  143OSM    C5F15733   4.062   0.802   6.955  0.0549  0.0006  0.5938
  143OSM    H5F15734   4.173   0.810   6.954  0.2774 -2.4130  0.3087
  143OSM    H5G15735   4.051   0.692   6.969  2.3122 -0.4278 -0.5065
  143OSM    C6F15736   4.015   0.878   7.077 -0.5162 -0.4198  0.2826
  143OSM    H6F15737   3.905   0.894   7.081 -0.3958  0.9267 -0.9086
  143OSM    H6G15738   4.050   0.984   7.075 -1.6551 -0.0048  1.0200
  143OSM    C7F15739   4.068   0.812   7.203  0.7058 -0.2109 -0.2486
  143OSM    H7F15740   4.172   0.850   7.214  1.3514 -2.3475  1.7614
  143OSM    H7G15741   4.079   0.702   7.195  1.1298 -0.2771  1.0100
  143OSM    C8F15742   3.979   0.838   7.327  0.0951 -0.1567  0.1949
  143OSM    H8F15743   4.026   0.785   7.412 -1.6784 -2.3362 -0.0941
  143OSM    H8G15744   3.881   0.787   7.316  0.8864 -1.7341  0.2612
  143OSM    C9F15745   3.953   0.982   7.353  0.2557  0.0895 -0.1661
  143OSM    H9F15746   4.039   1.051   7.357 -0.4525  0.9665  0.3456
  143OSM   C10F15747   3.839   1.032   7.399 -0.4350  0.0780 -0.6733
  143OSM   H10F15748   3.826   1.139   7.422 -1.5342  0.6268 -3.4027
  143OSM   C11F15749   3.714   0.956   7.427  0.1657  0.4587  0.3627
  143OSM   H11F15750   3.650   1.027   7.484  0.6894  2.9214 -1.9126
  143OSM   H11G15751   3.739   0.876   7.499 -2.3349 -0.0725  0.7398
  143OSM   C12F15752   3.623   0.915   7.309  0.0344  0.2273  0.4297
  143OSM   H12F15753   3.675   0.841   7.245 -1.1202  0.6700 -1.0799
  143OSM   H12G15754   3.598   1.006   7.251 -0.1541  1.1041  1.8390
  143OSM   C13F15755   3.480   0.855   7.355  0.0023 -0.3600  0.1426
  143OSM   H13F15756   3.411   0.941   7.371  0.4479 -0.0052  0.1596
  143OSM   H13G15757   3.501   0.793   7.445  1.3324 -1.1307 -0.6692
  143OSM   C14F15758   3.423   0.761   7.243  0.1659  0.0811 -0.2117
  143OSM   H14F15759   3.503   0.712   7.185  2.5783  2.9689  0.4555
  143OSM   H14G15760   3.355   0.823   7.181  0.7135 -0.5269 -1.4650
  143OSM   C15F15761   3.311   0.661   7.296 -0.1453 -0.4761  0.4328
  143OSM   H15F15762   3.246   0.718   7.365 -1.6044  0.3211 -1.4945
  143OSM   H15G15763   3.365   0.582   7.353  0.5016  0.8795  1.7555
  143OSM   C16F15764   3.228   0.588   7.190 -0.5821  0.4053  0.1469
  143OSM   H16F15765   3.293   0.536   7.117 -0.6642 -3.0439  2.2874
  143OSM   H16G15766   3.162   0.658   7.135 -0.5258  0.0110 -0.4306
  143OSM   C17F15767   3.132   0.484   7.251 -0.4811  0.1870 -0.7504
  143OSM   H17F15768   3.072   0.535   7.329 -2.5881 -0.5208 -1.8461
  143OSM   H17G15769   3.191   0.398   7.291  0.5537 -0.1075 -2.7599
  143OSM   C18F15770   3.033   0.422   7.155 -0.1838  0.6092  0.3579
  143OSM   H18F15771   2.974   0.336   7.193 -0.3439  0.1963 -0.8093
  143OSM   H18G15772   3.076   0.391   7.058 -0.3937  0.5776  0.2752
  143OSM   H18H15773   2.971   0.509   7.124  2.0285  2.1651  0.0322
  144OSM      N15774   3.155   2.193   5.906  0.6123  0.8733 -0.5145
  144OSM    C1515775   3.106   2.233   5.772 -0.2722  1.1299  0.9888
  144OSM   H15A15776   3.039   2.163   5.725 -2.0164  1.6460  2.5689
  144OSM   H15B15777   3.183   2.246   5.697 -0.9356 -1.0587 -0.1636
  144OSM   H15C15778   3.053   2.327   5.773 -0.3425  1.2327 -2.0558
  144OSM    C1415779   3.207   2.054   5.896 -0.2533  0.2614 -0.7380
  144OSM   H14A15780   3.130   1.986   5.862 -2.1968  1.6184  0.7319
  144OSM   H14B15781   3.237   2.018   5.993 -1.4068 -2.6339 -1.3487
  144OSM   H14C15782   3.283   2.055   5.820 -0.8177  1.5316 -1.3281
  144OSM    C1315783   3.264   2.284   5.946  0.0836  0.4672  0.7056
  144OSM   H13A15784   3.233   2.387   5.932 -0.0867  0.5016  1.3253
  144OSM   H13B15785   3.349   2.257   5.885 -0.7921  1.4941 -1.0689
  144OSM   H13C15786   3.281   2.267   6.051 -3.8201 -0.9906  1.2807
  144OSM    C1215787   3.041   2.204   6.012 -0.7195 -0.3369  0.1176
  144OSM   H12A15788   2.958   2.155   5.963 -0.6748 -0.5089  0.2131
  144OSM   H12B15789   3.022   2.309   6.027 -2.9660 -0.8860  1.6461
  144OSM    C1115790   3.057   2.141   6.156 -1.1548 -0.6474 -0.3894
  144OSM   H11A15791   3.060   2.030   6.147  0.7799 -0.7894  1.3074
  144OSM   H11B15792   2.966   2.168   6.214 -1.6433  0.9854 -1.8427
  144OSM      P15793   3.200   2.309   6.304  0.1456  0.1645  0.2841
  144OSM    O1315794   3.348   2.321   6.315 -0.0681  0.2946  0.0471
  144OSM    O1415795   3.121   2.426   6.254 -0.0587 -0.4915 -0.1250
  144OSM    O1115796   3.147   2.286   6.446 -0.1972 -0.2310  0.2092
  144OSM    O1215797   3.173   2.174   6.219 -0.1388 -0.2472 -0.4971
  144OSM    C1S15798   3.124   2.161   6.498  0.1902 -0.1020 -0.2656
  144OSM    H1S15799   3.169   2.083   6.433  1.2162  0.7956 -0.6728
  144OSM    H1T15800   3.016   2.135   6.493 -0.0172  0.1727  1.7908
  144OSM     NF15801   3.142   2.021   6.695  0.2531  0.3873  0.1620
  144OSM    HNF15802   3.056   2.010   6.744 -0.5366  1.0729 -1.0199
  144OSM    C2S15803   3.180   2.155   6.641  0.3789  0.3369  0.4388
  144OSM    H2S15804   3.290   2.160   6.630  0.2682 -0.1972 -1.0520
  144OSM    C3S15805   3.127   2.279   6.728  0.1637  0.2265  0.5446
  144OSM    H3S15806   3.016   2.284   6.723  0.1030 -0.2957  1.1774
  144OSM     O315807   3.174   2.402   6.675  0.0807 -0.2275  0.3675
  144OSM    HO315808   3.176   2.388   6.580  0.7234  1.2439  0.1271
  144OSM    C4S15809   3.169   2.258   6.873 -0.5513  0.1748  0.2376
  144OSM    H4S15810   3.274   2.233   6.891 -1.1070 -1.2851  1.6894
  144OSM    C5S15811   3.075   2.254   6.968  0.0647  0.3781  0.1569
  144OSM    H5S15812   2.969   2.271   6.941  0.2831  1.1977 -0.2286
  144OSM    C6S15813   3.095   2.213   7.116  0.6402 -0.2174 -0.2398
  144OSM    H6S15814   3.035   2.129   7.157 -0.5873  2.1706  3.2570
  144OSM    H6T15815   3.059   2.299   7.176  1.8721 -0.8388  1.4900
  144OSM    C7S15816   3.242   2.191   7.153 -0.0068 -0.5899  0.3917
  144OSM    H7S15817   3.284   2.291   7.132  0.9421 -0.8981  0.7441
  144OSM    H7T15818   3.297   2.117   7.091  0.9771  0.2120  0.2943
  144OSM    C8S15819   3.275   2.151   7.299 -0.1409  0.0803 -0.1533
  144OSM    H8S15820   3.385   2.169   7.305  0.4265 -2.2411 -2.0589
  144OSM    H8T15821   3.261   2.044   7.329  0.6604  0.3304  1.2219
  144OSM    C9S15822   3.191   2.231   7.407 -1.0104 -0.0382 -0.5808
  144OSM    H9S15823   3.091   2.195   7.375  0.0919 -1.9353 -2.1656
  144OSM    H9T15824   3.197   2.338   7.378 -0.5577  0.3849  0.9835
  144OSM   C10S15825   3.240   2.219   7.551 -0.2556 -0.1044 -0.4964
  144OSM   H10S15826   3.333   2.276   7.569 -0.2794 -0.0989 -0.3894
  144OSM   H10T15827   3.262   2.113   7.578 -0.1830 -0.0251 -0.2460
  144OSM   C11S15828   3.125   2.267   7.642  0.0660  0.7779 -0.3191
  144OSM   H11S15829   3.036   2.204   7.620  1.2216 -0.9846 -0.1544
  144OSM   H11T15830   3.097   2.369   7.608 -2.3046  0.6678  1.0010
  144OSM   C12S15831   3.157   2.280   7.794  0.7373 -0.0245 -0.2488
  144OSM   H12S15832   3.244   2.350   7.795 -0.7448  1.9780 -1.5473
  144OSM   H12T15833   3.185   2.180   7.831 -0.0878 -0.8614 -1.8064
  144OSM   C13S15834   3.046   2.358   7.869 -0.1003 -0.6781  0.2146
  144OSM   H13S15835   2.949   2.311   7.840  0.2684 -1.3953  0.1214
  144OSM   H13T15836   3.039   2.462   7.831 -0.9315  0.0630  2.2679
  144OSM   C14S15837   3.081   2.370   8.018 -0.4704  0.4095  0.6329
  144OSM   H14S15838   3.004   2.424   8.076 -0.5264 -1.3998  2.3602
  144OSM   H14T15839   3.181   2.415   8.034 -0.2168  0.5558 -1.1738
  144OSM   C15S15840   3.068   2.234   8.089  0.1717 -0.2213 -0.1115
  144OSM   H15S15841   3.152   2.168   8.057 -0.1867  0.5322 -2.9456
  144OSM   H15T15842   2.977   2.173   8.072  1.1193 -1.9825  0.8601
  144OSM   C16S15843   3.089   2.245   8.246  0.6589  0.1368 -0.1486
  144OSM   H16S15844   3.079   2.145   8.294 -0.2601  0.7649  1.0369
  144OSM   H16T15845   3.006   2.312   8.280 -1.6868 -0.7227 -3.6760
  144OSM   C17S15846   3.221   2.305   8.297  0.3397  0.0973  0.3022
  144OSM   H17S15847   3.236   2.408   8.258  1.8492 -1.5897 -4.4023
  144OSM   H17T15848   3.305   2.245   8.255 -1.0692 -2.0056  0.3671
  144OSM   C18S15849   3.245   2.303   8.454 -0.3834  0.3988 -0.1112
  144OSM   H18S15850   3.153   2.289   8.515 -1.1309  0.0835 -1.2851
  144OSM   H18T15851   3.298   2.395   8.487  1.7237  0.3645 -3.0134
  144OSM   H18U15852   3.311   2.213   8.463 -1.1120 -0.2084 -0.7137
  144OSM    C1F15853   3.207   1.911   6.656 -0.1502 -0.9374  0.2590
  144OSM     OF15854   3.303   1.913   6.578 -0.3879 -0.1558  0.3183
  144OSM    C2F15855   3.144   1.790   6.704 -0.1955  0.1617 -0.0243
  144OSM    H2F15856   3.148   1.718   6.619 -1.8274  0.2402 -0.1973
  144OSM    H2G15857   3.041   1.813   6.737 -0.6297  0.0954 -1.2738
  144OSM    C3F15858   3.231   1.718   6.811  0.7306  0.5255  0.5851
  144OSM    H3F15859   3.336   1.700   6.778  1.6599  0.8608  3.1397
  144OSM    H3G15860   3.193   1.618   6.838  0.2999  0.4657 -0.2051
  144OSM    C4F15861   3.228   1.789   6.950 -0.3116  1.2578  0.2880
  144OSM    H4F15862   3.122   1.814   6.972 -1.0616 -1.3046 -0.1074
  144OSM    H4G15863   3.284   1.885   6.942  2.2073 -0.2421 -1.6358
  144OSM    C5F15864   3.304   1.714   7.053 -0.3744  0.2230  0.1500
  144OSM    H5F15865   3.410   1.705   7.021 -0.3889 -2.1924  0.6314
  144OSM    H5G15866   3.272   1.611   7.077  1.6295  0.1101  2.7837
  144OSM    C6F15867   3.304   1.791   7.184 -0.3978  0.0857  1.1322
  144OSM    H6F15868   3.198   1.788   7.218 -0.5280  1.5157  0.9101
  144OSM    H6G15869   3.338   1.893   7.155 -1.6336  0.0889 -0.4961
  144OSM    C7F15870   3.392   1.735   7.291  0.2764  0.8972  0.9629
  144OSM    H7F15871   3.497   1.735   7.255 -0.4246  0.7184 -1.2244
  144OSM    H7G15872   3.366   1.628   7.307 -1.6437  0.9824 -1.1073
  144OSM    C8F15873   3.387   1.804   7.422 -0.2166  0.6076  0.2631
  144OSM    H8F15874   3.422   1.908   7.405  2.9461 -0.3333  0.3767
  144OSM    H8G15875   3.469   1.754   7.479 -0.2184 -0.6678 -0.8363
  144OSM    C9F15876   3.265   1.798   7.508 -0.4899  0.5360 -0.2743
  144OSM    H9F15877   3.169   1.777   7.458 -0.4789 -1.3829  0.4179
  144OSM   C10F15878   3.263   1.846   7.635 -0.1557 -0.5221  0.0304
  144OSM   H10F15879   3.165   1.845   7.685 -0.7150  0.7406 -0.9944
  144OSM   C11F15880   3.384   1.903   7.705  0.2026 -0.5151 -0.3192
  144OSM   H11F15881   3.357   1.988   7.772  2.2511 -0.7789  0.9290
  144OSM   H11G15882   3.467   1.946   7.645 -0.7426 -0.6644 -1.7623
  144OSM   C12F15883   3.452   1.804   7.797  0.6185  0.1904  0.4292
  144OSM   H12F15884   3.536   1.850   7.852 -1.0513  2.6826  1.0700
  144OSM   H12G15885   3.486   1.720   7.733 -0.5586 -1.0744  1.3962
  144OSM   C13F15886   3.364   1.750   7.910  0.3401 -0.3140  0.0344
  144OSM   H13F15887   3.403   1.658   7.958  0.2085 -0.5517 -0.3138
  144OSM   H13G15888   3.263   1.733   7.868 -0.6877  1.7949  1.4450
  144OSM   C14F15889   3.337   1.852   8.019 -0.3965  0.0562 -0.1704
  144OSM   H14F15890   3.291   1.943   7.974 -0.1467 -0.2447 -1.0520
  144OSM   H14G15891   3.432   1.891   8.060  1.5813 -1.6635 -2.7734
  144OSM   C15F15892   3.258   1.796   8.142  0.7756  0.4568 -0.5870
  144OSM   H15F15893   3.315   1.704   8.166  0.9076 -0.0727 -2.7111
  144OSM   H15G15894   3.161   1.749   8.115  1.3545 -0.3085 -1.4058
  144OSM   C16F15895   3.251   1.897   8.260 -0.5861  0.3076  0.5632
  144OSM   H16F15896   3.181   1.978   8.228 -0.1375  0.5334  0.1507
  144OSM   H16G15897   3.355   1.934   8.268 -0.1027 -0.3992 -1.7561
  144OSM   C17F15898   3.187   1.826   8.381  0.3011  0.2254  0.1690
  144OSM   H17F15899   3.233   1.727   8.403 -0.5009 -0.1332  0.2635
  144OSM   H17G15900   3.080   1.798   8.370  0.3598 -0.5103  1.2992
  144OSM   C18F15901   3.199   1.912   8.505 -1.2803  0.2747  0.8395
  144OSM   H18F15902   3.156   1.861   8.594  0.3123  0.3009  1.6736
  144OSM   H18G15903   3.128   1.995   8.487  0.0051  0.8453 -2.4224
  144OSM   H18H15904   3.303   1.949   8.521 -0.3724 -0.7393 -1.9936
  145SAPE     N15905   0.341   2.782  10.648  0.2389  0.1517  0.6321
  145SAPE   HN115906   0.421   2.808  10.710  0.8645 -1.3976  0.4985
  145SAPE   HN215907   0.293   2.862  10.602 -1.4720 -1.5732 -0.7139
  145SAPE   HN315908   0.276   2.719  10.699 -0.0276  0.4121  0.6168
  145SAPE   C1215909   0.408   2.701  10.541 -0.3049  0.1287  0.0178
  145SAPE  H12A15910   0.339   2.692  10.455  0.8017  0.0681 -0.8910
  145SAPE  H12B15911   0.429   2.598  10.578  1.2080 -0.2344 -1.7222
  145SAPE   C1115912   0.539   2.766  10.494  0.6678  0.7350 -0.3906
  145SAPE  H11A15913   0.520   2.860  10.437 -1.1806  1.0985  0.7337
  145SAPE  H11B15914   0.577   2.696  10.417 -0.6375  0.6375 -0.9597
  145SAPE     P15915   0.726   2.670  10.662  0.2182  0.2922  0.0739
  145SAPE   O1315916   0.818   2.723  10.759  0.8741  0.0645  0.4361
  145SAPE   O1415917   0.636   2.558  10.696 -0.7773 -0.1215  0.4765
  145SAPE   O1215918   0.635   2.790  10.606 -0.0687 -1.0056  0.6528
  145SAPE   O1115919   0.810   2.624  10.533  0.5539 -0.1878  0.0657
  145SAPE    C115920   0.937   2.668  10.494  0.4351  0.1177  0.1771
  145SAPE    HA15921   0.996   2.730  10.565  2.0824 -0.0594 -0.9767
  145SAPE    HB15922   0.998   2.577  10.476 -1.6572 -1.1481 -1.0248
  145SAPE    C215923   0.944   2.751  10.357  0.2702  0.2370  0.0057
  145SAPE    HS15924   1.055   2.757  10.353  0.2500  1.2405  0.7421
  145SAPE   O2115925   0.874   2.873  10.373  0.7066 -0.2556  0.2234
  145SAPE   C2115926   0.924   2.984  10.320 -0.0673 -0.6490  0.0734
  145SAPE   O2215927   1.026   2.990  10.252  0.2653 -0.6667  0.2045
  145SAPE   C2215928   0.835   3.112  10.348 -0.0253 -0.0886 -0.9584
  145SAPE   H2R15929   0.879   3.159  10.439  1.6641 -0.7975 -1.3714
  145SAPE   H2S15930   0.838   3.182  10.262  1.5170  0.6392 -0.3607
  145SAPE    C315931   0.879   2.678  10.236  0.2195  0.3069 -0.2797
  145SAPE    HX15932   0.771   2.683  10.260 -0.2552  0.6016 -2.3566
  145SAPE    HY15933   0.911   2.572  10.227 -0.9356  0.0587 -1.5908
  145SAPE   O3115934   0.905   2.761  10.114  0.5365 -0.0428 -0.4032
  145SAPE   C3115935   1.026   2.741  10.055 -0.2640  0.0209  0.5186
  145SAPE   O3215936   1.114   2.676  10.105  0.2391 -0.1322 -0.9707
  145SAPE   C3215937   1.038   2.823   9.927 -0.1465 -0.7320 -0.2607
  145SAPE   H2X15938   1.102   2.907   9.959  1.0644 -1.5954 -0.3763
  145SAPE   H2Y15939   0.936   2.864   9.908 -0.8847  0.4222  4.9133
  145SAPE   C2315940   0.684   3.080  10.375 -0.5479 -0.5716 -0.0072
  145SAPE   H3R15941   0.649   3.173  10.424  1.9823 -0.0307  0.9323
  145SAPE   H3S15942   0.683   3.000  10.452 -2.0777 -0.4851  0.0903
  145SAPE   C2415943   0.590   3.057  10.252  0.4849  0.5212  0.2035
  145SAPE   H4R15944   0.545   3.155  10.223  0.8359  0.8377  0.7206
  145SAPE   H4S15945   0.494   3.014  10.288 -0.7357  2.4739 -0.4848
  145SAPE   C2515946   0.634   2.977  10.128 -0.3813 -0.1237  0.6888
  145SAPE   H5R15947   0.672   2.877  10.157 -2.1564 -0.9506  0.3140
  145SAPE   C2615948   0.619   3.007  10.001 -0.0760 -0.2190 -0.2897
  145SAPE   H6R15949   0.648   2.928   9.930 -0.3138 -0.1639 -0.4498
  145SAPE   C2715950   0.555   3.137   9.950  0.0320  0.0277 -0.7058
  145SAPE   H7R15951   0.521   3.203  10.033  2.1173 -0.0829  0.2977
  145SAPE   H7S15952   0.473   3.110   9.881 -1.0464 -0.9541  0.8957
  145SAPE   C2815953   0.654   3.220   9.877 -0.0203 -0.3683 -0.4978
  145SAPE   H8R15954   0.706   3.299   9.934 -1.7312  1.7672 -1.7547
  145SAPE   C2915955   0.690   3.210   9.751 -0.0210  0.0167  0.5614
  145SAPE   H9R15956   0.763   3.282   9.713 -0.1610 -1.9302 -3.9533
  145SAPE  C21015957   0.635   3.110   9.651 -0.7541  0.0444 -0.5391
  145SAPE  H10R15958   0.573   3.168   9.580 -0.8239 -0.3326 -0.7892
  145SAPE  H10S15959   0.568   3.037   9.701 -1.2119  1.4608  1.0139
  145SAPE  C21115960   0.755   3.048   9.572 -0.4333  0.1254 -0.1731
  145SAPE  H11R15961   0.824   2.991   9.635 -1.6081 -0.0465  0.9932
  145SAPE  C21215962   0.777   3.051   9.442  0.4821 -0.3358  0.0128
  145SAPE  H12R15963   0.871   3.000   9.413  1.5771  0.0208  2.6920
  145SAPE  C21315964   0.698   3.113   9.330 -0.0995 -0.0656 -0.3728
  145SAPE  H13R15965   0.595   3.073   9.329  0.4467 -1.5029 -0.6023
  145SAPE  H13S15966   0.738   3.086   9.230  1.2806  1.4518 -0.2744
  145SAPE  C21415967   0.690   3.262   9.342  1.1793  0.6203  0.7216
  145SAPE  H14R15968   0.655   3.287   9.443 -0.3891  1.1671  0.0726
  145SAPE  C21515969   0.694   3.359   9.243  0.4523  0.4430 -0.4011
  145SAPE  H15R15970   0.684   3.464   9.274 -0.6634 -0.2317  1.6908
  145SAPE  C21615971   0.729   3.346   9.094  0.1946 -0.6053  0.2973
  145SAPE  H16R15972   0.638   3.330   9.032 -0.1319  1.0496  0.3233
  145SAPE  H16S15973   0.777   3.250   9.062 -1.8169 -1.5302 -0.1186
  145SAPE  C21715974   0.801   3.479   9.052  0.0401 -0.1131 -0.0332
  145SAPE  H17R15975   0.727   3.558   9.076 -1.0247 -0.7218 -1.1679
  145SAPE  H17S15976   0.827   3.499   8.946 -0.0547  2.4931  0.3790
  145SAPE  C21815977   0.939   3.504   9.121  0.0638 -0.2282  0.6598
  145SAPE  H18R15978   0.918   3.529   9.227  1.2238 -1.4071  1.1936
  145SAPE  H18S15979   0.980   3.591   9.065 -0.2166  0.6649  1.8083
  145SAPE  C21915980   1.026   3.381   9.107  0.1565  0.1255 -0.1802
  145SAPE  H19R15981   1.116   3.409   9.049  1.7645 -0.2122  2.0260
  145SAPE  H19S15982   0.980   3.296   9.053  3.4455 -3.8092  2.5799
  145SAPE  C22015983   1.067   3.319   9.238  0.7931 -0.5545  0.8359
  145SAPE  H20R15984   1.127   3.228   9.216  0.4464 -0.5552 -0.1394
  145SAPE  H20S15985   0.979   3.289   9.299 -1.3695  0.6943 -1.4927
  145SAPE  H20T15986   1.129   3.390   9.297  0.4091 -0.6052  1.3121
  145SAPE   C3315987   1.109   2.752   9.810 -0.2735  0.3376 -0.0548
  145SAPE   H3X15988   1.050   2.664   9.776  0.9263  0.3403 -2.3680
  145SAPE   H3Y15989   1.203   2.701   9.839  0.7140  1.0732 -1.8035
  145SAPE   C3415990   1.137   2.851   9.702  0.0078  0.1847  0.1124
  145SAPE   H4X15991   1.246   2.874   9.703  0.1556 -0.4717  0.9823
  145SAPE   H4Y15992   1.098   2.953   9.722  0.9959  0.6754 -0.3850
  145SAPE   C3515993   1.091   2.790   9.569  0.5311  0.5072 -0.0694
  145SAPE   H5X15994   0.985   2.761   9.585  1.1964 -0.5628  2.9420
  145SAPE   H5Y15995   1.146   2.694   9.560  0.9557  0.5501  1.7022
  145SAPE   C3615996   1.120   2.888   9.455 -0.1199  0.3093  0.1508
  145SAPE   H6X15997   1.230   2.902   9.455 -0.1500  0.6097 -0.7096
  145SAPE   H6Y15998   1.064   2.983   9.465 -1.3391 -0.3769  0.0609
  145SAPE   C3715999   1.102   2.827   9.314 -0.3909 -0.4564 -0.4258
  145SAPE   H7X16000   0.999   2.796   9.287  0.4989 -2.1268 -2.2119
  145SAPE   H7Y16001   1.168   2.740   9.293 -1.0560 -0.8045 -1.0973
  145SAPE   C3816002   1.140   2.931   9.212  0.4727 -0.3547  0.3757
  145SAPE   H8X16003   1.244   2.967   9.228  0.1312  1.7180 -1.5729
  145SAPE   H8Y16004   1.074   3.019   9.228 -0.5430 -0.5303 -2.4195
  145SAPE   C3916005   1.113   2.877   9.067 -0.7249 -0.1406 -0.4326
  145SAPE   H9X16006   1.012   2.833   9.065 -1.2233  0.8886  0.6024
  145SAPE   H9Y16007   1.184   2.799   9.031  0.6717  0.6129  0.5608
  145SAPE  C31016008   1.119   2.977   8.950  0.1540  0.1854  0.6694
  145SAPE  H10X16009   1.223   3.016   8.938  1.0021 -2.3362 -1.0274
  145SAPE  H10Y16010   1.046   3.059   8.964 -1.8036 -1.2452 -0.7433
  145SAPE  C31116011   1.093   2.922   8.809  0.2038 -0.0468 -0.3546
  145SAPE  H11X16012   0.990   2.881   8.806  0.9781 -2.1487 -3.4940
  145SAPE  H11Y16013   1.175   2.853   8.777  0.4374 -0.0919  0.3232
  145SAPE  C31216014   1.104   3.025   8.695  0.2150 -0.5160 -0.7600
  145SAPE  H12X16015   1.083   2.973   8.599 -0.1194  0.3038 -1.1443
  145SAPE  H12Y16016   1.205   3.071   8.698 -1.0982  2.5762  1.7375
  145SAPE  C31316017   0.996   3.139   8.721  0.4603  0.6685  0.2477
  145SAPE  H13X16018   1.032   3.218   8.651  0.2696 -1.4302 -2.3754
  145SAPE  H13Y16019   0.988   3.188   8.820 -2.1353 -1.7299  1.3652
  145SAPE  C31416020   0.857   3.113   8.656  0.6480 -0.1137  0.7561
  145SAPE  H14X16021   0.856   3.035   8.576  1.1240 -0.3638  0.9856
  145SAPE  H14Y16022   0.844   3.199   8.587  3.6121 -0.0739  0.1028
  145SAPE  C31516023   0.748   3.093   8.761  0.0293  0.1320  0.7252
  145SAPE  H15X16024   0.748   3.167   8.843  2.8095 -0.3420  1.2622
  145SAPE  H15Y16025   0.758   2.991   8.805  0.5999 -1.4985 -2.7986
  145SAPE  C31616026   0.601   3.085   8.698 -0.2459  0.3311  0.5667
  145SAPE  H16X16027   0.603   3.029   8.602 -0.1288  3.0288 -1.0915
  145SAPE  H16Y16028   0.576   3.184   8.656  2.7200  0.3181 -1.5718
  145SAPE  C31716029   0.487   3.018   8.785 -0.3273  0.2199  0.2830
  145SAPE  H17X16030   0.513   2.911   8.798 -0.4134  0.0160 -1.0522
  145SAPE  H17Y16031   0.398   3.023   8.719 -1.1737  0.9975  1.4462
  145SAPE  C31816032   0.468   3.094   8.915  0.9891 -0.1955  0.1554
  145SAPE  H18X16033   0.413   3.188   8.895 -1.4601 -0.6019  3.9308
  145SAPE  H18Y16034   0.561   3.107   8.973  0.1021 -1.7905  2.0612
  145SAPE  H18Z16035   0.409   3.022   8.977  1.2743 -0.8568 -0.3219
  146SAPE     N16036   6.086   5.055  11.269 -0.0697 -0.3688  0.0088
  146SAPE   HN116037   6.026   5.034  11.351 -1.5777  0.6163 -0.7713
  146SAPE   HN216038   6.186   5.032  11.281  0.2676  0.4755 -0.9909
  146SAPE   HN316039   6.074   5.157  11.251 -0.7534 -0.5737 -0.7745
  146SAPE   C1216040   6.032   4.984  11.153  0.3085  0.3577 -0.0423
  146SAPE  H12A16041   5.937   5.035  11.126 -0.7623 -1.3674  0.2773
  146SAPE  H12B16042   6.002   4.881  11.183  1.2583  0.3994  1.0971
  146SAPE   C1116043   6.131   4.993  11.039 -0.2602  0.2994 -0.3963
  146SAPE  H11A16044   6.078   4.939  10.958  3.9756 -2.4660 -1.6043
  146SAPE  H11B16045   6.224   4.940  11.066  0.2911  1.8902  1.0525
  146SAPE     P16046   6.114   5.204  10.877 -0.1693  0.2496  0.5230
  146SAPE   O1316047   5.989   5.288  10.898 -0.2220 -0.0040  0.1036
  146SAPE   O1416048   6.236   5.276  10.827  0.5790  0.3066 -0.2185
  146SAPE   O1216049   6.157   5.131  11.009 -0.4147  0.1706 -0.6905
  146SAPE   O1116050   6.085   5.088  10.776 -0.4968  0.4779 -0.4071
  146SAPE    C116051   5.953   5.032  10.744  0.2093  0.2767  0.2983
  146SAPE    HA16052   5.938   4.923  10.761  1.1423  0.1820  0.5393
  146SAPE    HB16053   5.875   5.092  10.796  2.3314  1.2055  2.5938
  146SAPE    C216054   5.913   5.057  10.603 -0.3473  1.0888 -0.2444
  146SAPE    HS16055   5.957   4.968  10.554 -0.4895 -0.4672  2.2936
  146SAPE   O2116056   5.980   5.176  10.564  0.2916  0.0456  0.2788
  146SAPE   C2116057   6.042   5.171  10.448 -0.2828 -0.0087  0.1987
  146SAPE   O2216058   6.068   5.069  10.387 -0.6744 -0.4250  0.2858
  146SAPE   C2216059   6.094   5.313  10.412  0.3505  0.5053  0.0435
  146SAPE   H2R16060   6.002   5.375  10.403 -1.3212 -1.9645 -1.1502
  146SAPE   H2S16061   6.164   5.337  10.494  0.3426 -1.4517  0.6701
  146SAPE    C316062   5.761   5.071  10.586  0.2147  0.5637  0.9219
  146SAPE    HX16063   5.733   5.175  10.612 -0.1575  0.3225  1.4935
  146SAPE    HY16064   5.714   5.006  10.663  1.5058  1.0158  2.1299
  146SAPE   O3116065   5.715   5.037  10.449  0.0597  0.0066 -0.0069
  146SAPE   C3116066   5.683   5.146  10.376  0.4289 -0.3016 -0.3574
  146SAPE   O3216067   5.696   5.265  10.414  0.3389  0.4527  0.3278
  146SAPE   C3216068   5.642   5.102  10.236 -0.3778  0.2708  0.0911
  146SAPE   H2X16069   5.536   5.077  10.259  0.1219 -0.9851  1.1895
  146SAPE   H2Y16070   5.691   5.008  10.202  0.5402  0.1371  1.6689
  146SAPE   C2316071   6.163   5.311  10.280 -0.3627 -0.0293 -0.2594
  146SAPE   H3R16072   6.096   5.299  10.192  0.5546  1.4030 -1.2065
  146SAPE   H3S16073   6.222   5.217  10.276 -1.3930 -0.6502 -1.4799
  146SAPE   C2416074   6.258   5.433  10.266  0.4624 -0.1157 -0.5987
  146SAPE   H4R16075   6.323   5.408  10.178  0.6919 -1.4130 -0.0872
  146SAPE   H4S16076   6.336   5.436  10.345  2.2465 -0.8221 -2.2246
  146SAPE   C2516077   6.183   5.564  10.250  0.0622 -0.4308  0.0959
  146SAPE   H5R16078   6.141   5.604  10.344 -2.8105 -2.4731 -0.2015
  146SAPE   C2616079   6.168   5.627  10.132 -0.8641  0.6886  0.5079
  146SAPE   H6R16080   6.107   5.718  10.126 -1.7963  0.0188 -0.5997
  146SAPE   C2716081   6.204   5.568   9.994  0.3028  0.0542 -0.6183
  146SAPE   H7R16082   6.296   5.507   9.999  0.2287  0.0070  0.4482
  146SAPE   H7S16083   6.224   5.649   9.920 -0.6076  0.2153 -0.7122
  146SAPE   C2816084   6.084   5.478   9.947 -0.2614 -0.2457 -0.0962
  146SAPE   H8R16085   6.030   5.426  10.027  1.0172  0.0924  1.0119
  146SAPE   C2916086   6.046   5.473   9.819 -0.1296  0.4929 -0.4242
  146SAPE   H9R16087   5.962   5.405   9.797  0.2690 -0.1461 -0.0209
  146SAPE  C21016088   6.097   5.536   9.698 -0.7315 -0.2150  0.2804
  146SAPE  H10R16089   6.155   5.622   9.736 -1.4027 -1.2418  3.9483
  146SAPE  H10S16090   6.013   5.589   9.647 -0.4005 -0.4667 -0.5519
  146SAPE  C21116091   6.182   5.427   9.625  0.6343 -0.4152 -0.1680
  146SAPE  H11R16092   6.242   5.359   9.689 -2.2082 -2.3723  0.6101
  146SAPE  C21216093   6.185   5.422   9.489  0.2487  0.2078  1.2854
  146SAPE  H12R16094   6.242   5.344   9.437 -1.9562 -1.0538  0.6577
  146SAPE  C21316095   6.111   5.514   9.392  0.1493  0.0412 -0.2281
  146SAPE  H13R16096   6.182   5.585   9.346  1.0170 -0.3118  0.5358
  146SAPE  H13S16097   6.047   5.585   9.447 -1.4198 -0.9774 -0.6608
  146SAPE  C21416098   6.018   5.461   9.293  0.3443  0.6893  0.1966
  146SAPE  H14R16099   5.928   5.414   9.335 -0.3708  1.8424 -0.0358
  146SAPE  C21516100   6.046   5.438   9.161  0.1193 -0.3365 -0.2875
  146SAPE  H15R16101   5.977   5.376   9.102 -0.1400  1.1384 -1.6106
  146SAPE  C21616102   6.174   5.474   9.096 -0.1712 -0.1784  0.5816
  146SAPE  H16R16103   6.251   5.396   9.115 -0.6724 -1.1024 -1.0536
  146SAPE  H16S16104   6.208   5.575   9.128 -0.5779  0.2345 -0.2559
  146SAPE  C21716105   6.161   5.480   8.938 -0.4248  0.4913 -0.4275
  146SAPE  H17R16106   6.070   5.543   8.927 -0.9973  0.1954  1.9321
  146SAPE  H17S16107   6.128   5.381   8.900 -0.8112  0.9894 -1.4026
  146SAPE  C21816108   6.285   5.542   8.868  0.1747 -0.2706  0.4254
  146SAPE  H18R16109   6.377   5.480   8.874 -0.5097 -1.1808  2.8699
  146SAPE  H18S16110   6.298   5.633   8.931  0.6493 -0.6079  0.8182
  146SAPE  C21916111   6.246   5.585   8.722 -0.0026  0.0678 -0.4460
  146SAPE  H19R16112   6.322   5.655   8.682 -0.0737  0.2851 -0.2070
  146SAPE  H19S16113   6.151   5.642   8.726 -0.2786 -0.3371 -1.1284
  146SAPE  C22016114   6.233   5.470   8.619  0.9179  0.2617  0.1301
  146SAPE  H20R16115   6.167   5.387   8.650  1.7782 -0.0262  1.2412
  146SAPE  H20S16116   6.333   5.426   8.602  0.1532 -0.8223 -1.9043
  146SAPE  H20T16117   6.189   5.509   8.525 -1.2045  1.3896  1.4974
  146SAPE   C3316118   5.647   5.214  10.127 -0.5179 -0.2818 -0.5444
  146SAPE   H3X16119   5.743   5.265  10.149 -1.5843  0.4056  3.2264
  146SAPE   H3Y16120   5.575   5.286  10.170 -0.8211 -0.5339 -0.6286
  146SAPE   C3416121   5.609   5.179   9.985 -0.3123  0.3596  0.1510
  146SAPE   H4X16122   5.509   5.131   9.988  0.0649 -0.5938 -1.5830
  146SAPE   H4Y16123   5.676   5.098   9.950  1.0535  1.6459 -0.3212
  146SAPE   C3516124   5.626   5.297   9.896  0.5213  0.1305  0.1709
  146SAPE   H5X16125   5.727   5.338   9.915  0.3907  1.1220 -1.0985
  146SAPE   H5Y16126   5.536   5.362   9.909  0.3282 -0.3011  1.0457
  146SAPE   C3616127   5.627   5.257   9.746 -0.7078 -0.0465 -0.1087
  146SAPE   H6X16128   5.538   5.193   9.725 -0.2594 -0.6371 -0.2458
  146SAPE   H6Y16129   5.716   5.192   9.736 -0.7527  0.1384 -1.9191
  146SAPE   C3716130   5.640   5.374   9.648  0.0265 -0.9579  0.7878
  146SAPE   H7X16131   5.726   5.440   9.671  0.8358 -1.9928  0.8272
  146SAPE   H7Y16132   5.548   5.434   9.659  0.2323 -0.5139  0.1202
  146SAPE   C3816133   5.632   5.330   9.501  0.5291  0.4141  0.4410
  146SAPE   H8X16134   5.576   5.235   9.486 -0.7803  1.3456 -0.8917
  146SAPE   H8Y16135   5.736   5.313   9.466  0.0020 -1.2453 -0.3946
  146SAPE   C3916136   5.566   5.424   9.409  0.1679 -0.1977  0.0964
  146SAPE   H9X16137   5.635   5.509   9.391 -0.0766 -0.2736 -1.3720
  146SAPE   H9Y16138   5.471   5.463   9.452 -0.0569 -2.1073  1.4366
  146SAPE  C31016139   5.536   5.347   9.275  0.6482  0.2600 -0.1807
  146SAPE  H10X16140   5.448   5.390   9.223  1.7302  2.0113 -0.6514
  146SAPE  H10Y16141   5.506   5.244   9.304 -1.4910  1.3951  2.0444
  146SAPE  C31116142   5.647   5.351   9.184  0.1649  0.3215  0.4291
  146SAPE  H11X16143   5.736   5.310   9.236  0.9141  2.1825  0.6943
  146SAPE  H11Y16144   5.661   5.457   9.154 -1.9158  1.4705  3.0501
  146SAPE  C31216145   5.622   5.257   9.062  0.1204 -0.9079 -0.1944
  146SAPE  H12X16146   5.516   5.276   9.036  0.5965  1.5749 -0.5735
  146SAPE  H12Y16147   5.641   5.154   9.100  1.6402 -0.4054  0.4996
  146SAPE  C31316148   5.727   5.283   8.954  0.8967  0.4736  0.1800
  146SAPE  H13X16149   5.830   5.251   8.980 -0.2518 -2.3365  1.6497
  146SAPE  H13Y16150   5.734   5.390   8.924  2.2041 -0.1136 -1.7752
  146SAPE  C31416151   5.681   5.211   8.826 -0.0420 -0.1100  0.9315
  146SAPE  H14X16152   5.586   5.257   8.791  1.3897  2.4970  0.1963
  146SAPE  H14Y16153   5.666   5.102   8.839 -0.1509 -0.6970 -2.8663
  146SAPE  C31516154   5.775   5.228   8.704 -0.1668  0.0904  0.5313
  146SAPE  H15X16155   5.875   5.180   8.708  0.2580  0.8379 -0.6971
  146SAPE  H15Y16156   5.784   5.338   8.695 -1.7329  0.3240  1.3792
  146SAPE  C31616157   5.709   5.175   8.575  0.0272  0.2110  0.0440
  146SAPE  H16X16158   5.794   5.177   8.503 -0.9272 -1.5654 -1.1972
  146SAPE  H16Y16159   5.633   5.248   8.543 -2.6602 -2.9172 -1.2303
  146SAPE  C31716160   5.659   5.030   8.576 -0.4280  0.0981 -0.2549
  146SAPE  H17X16161   5.551   5.035   8.602 -0.3475 -2.0435  0.7448
  146SAPE  H17Y16162   5.709   4.976   8.659  1.4579  0.4023 -1.1313
  146SAPE  C31816163   5.672   4.961   8.439 -0.2419 -0.2641  0.5840
  146SAPE  H18X16164   5.632   4.857   8.436  0.2001 -0.4055 -1.4342
  146SAPE  H18Y16165   5.779   4.958   8.409 -0.4339 -0.1715 -0.1194
  146SAPE  H18Z16166   5.621   5.019   8.359 -1.8331 -0.9139  1.0756
  147SAPE     N16167   6.782   0.531  10.765 -0.0721 -0.2044 -0.4512
  147SAPE   HN116168   6.883   0.519  10.744 -0.1460  0.8532 -1.5102
  147SAPE   HN216169   6.737   0.438  10.769 -0.6482 -0.0032 -1.6051
  147SAPE   HN316170   6.745   0.592  10.689  2.3226  0.1626 -1.4071
  147SAPE   C1216171   6.766   0.582  10.902 -0.2859  0.5044  0.7760
  147SAPE  H12A16172   6.846   0.537  10.964 -0.1082  0.3524  0.4371
  147SAPE  H12B16173   6.669   0.553  10.947 -0.4514 -0.1289  0.0369
  147SAPE   C1116174   6.792   0.728  10.890 -0.1107 -0.0214 -0.5434
  147SAPE  H11A16175   6.785   0.780  10.988 -0.7195 -1.3724  0.1644
  147SAPE  H11B16176   6.713   0.781  10.833 -0.4856  1.1608  1.0039
  147SAPE     P16177   7.047   0.820  10.914  0.1176  0.2079  0.0246
  147SAPE   O1316178   7.017   0.962  10.940 -0.5023 -0.0778 -0.1608
  147SAPE   O1416179   7.059   0.736  11.039  0.9831 -0.6427  0.3305
  147SAPE   O1216180   6.917   0.769  10.833 -0.1916  0.0376 -0.3645
  147SAPE   O1116181   7.163   0.807  10.816 -0.1058  0.1199  0.6363
  147SAPE    C116182   7.162   0.876  10.685 -0.8310 -0.1811  0.0775
  147SAPE    HA16183   7.097   0.966  10.679 -0.5601  0.0315  0.3017
  147SAPE    HB16184   7.265   0.912  10.663 -0.3191 -0.9492  1.1355
  147SAPE    C216185   7.130   0.778  10.572  0.3845 -0.3996  0.1849
  147SAPE    HS16186   7.052   0.709  10.609 -0.8207  1.0687  0.4397
  147SAPE   O2116187   7.250   0.714  10.543  0.2406 -0.2123 -0.7054
  147SAPE   C2116188   7.254   0.593  10.497  0.1733 -0.3943 -0.3243
  147SAPE   O2216189   7.158   0.522  10.479  0.6534  0.4884 -0.5701
  147SAPE   C2216190   7.398   0.549  10.503  0.4996  0.9196  0.7167
  147SAPE   H2R16191   7.461   0.612  10.570  2.9290 -0.1506 -0.4300
  147SAPE   H2S16192   7.390   0.442  10.533  0.2449  0.8195  0.3010
  147SAPE    C316193   7.074   0.846  10.439  0.2672 -0.5901 -0.4160
  147SAPE    HX16194   7.169   0.876  10.391  0.4378 -1.6978 -0.8088
  147SAPE    HY16195   6.999   0.925  10.463 -0.8081 -1.3404 -1.1713
  147SAPE   O3116196   7.013   0.758  10.343 -0.1702 -0.2200 -0.7851
  147SAPE   C3116197   6.919   0.667  10.379  0.0372  0.2185  0.2988
  147SAPE   O3216198   6.857   0.666  10.487 -0.0844  0.5603 -0.2611
  147SAPE   C3216199   6.894   0.578  10.259 -0.2838  0.1430 -0.8830
  147SAPE   H2X16200   6.807   0.516  10.289 -0.4205  0.5772 -0.3692
  147SAPE   H2Y16201   6.983   0.513  10.241 -1.2182 -1.4204 -0.1064
  147SAPE   C2316202   7.459   0.564  10.361 -0.2816 -0.0150  0.3282
  147SAPE   H3R16203   7.567   0.535  10.362 -0.4428 -0.7412 -0.8280
  147SAPE   H3S16204   7.463   0.673  10.340  0.8358 -0.3113 -1.2002
  147SAPE   C2416205   7.389   0.492  10.244 -0.6905  0.2702  0.6454
  147SAPE   H4R16206   7.409   0.566  10.163  0.6215 -1.4306 -0.6670
  147SAPE   H4S16207   7.278   0.499  10.252 -0.7680 -0.1294 -0.0047
  147SAPE   C2516208   7.446   0.351  10.222  0.4093  0.0252 -0.0328
  147SAPE   H5R16209   7.427   0.290  10.312 -0.1147  1.4088  0.8297
  147SAPE   C2616210   7.493   0.295  10.100  0.7016  0.5276 -1.2445
  147SAPE   H6R16211   7.528   0.192  10.088  0.0329  0.3948 -2.1732
  147SAPE   C2716212   7.497   0.367   9.973  0.1605 -0.3498  1.3325
  147SAPE   H7R16213   7.507   0.477   9.982 -0.4874 -0.3386  2.0743
  147SAPE   H7S16214   7.407   0.353   9.909  1.2744  2.1714 -0.9555
  147SAPE   C2816215   7.606   0.327   9.878  0.0907  0.1022  0.1055
  147SAPE   H8R16216   7.689   0.267   9.917  2.7735  2.2395 -1.9153
  147SAPE   C2916217   7.608   0.351   9.743 -0.1895 -0.5287  0.1237
  147SAPE   H9R16218   7.707   0.332   9.697  0.7017  2.4837  0.5757
  147SAPE  C21016219   7.503   0.427   9.668 -0.2457 -0.1902  0.1233
  147SAPE  H10R16220   7.418   0.461   9.731 -0.8257  2.1810 -1.7904
  147SAPE  H10S16221   7.462   0.359   9.591 -0.8583  0.7568 -0.4123
  147SAPE  C21116222   7.571   0.540   9.601  0.3299 -0.2679 -0.3597
  147SAPE  H11R16223   7.608   0.625   9.661 -1.8345  0.5090 -0.0656
  147SAPE  C21216224   7.593   0.553   9.469  0.0013  0.6972  0.0441
  147SAPE  H12R16225   7.641   0.642   9.426 -0.3162  1.1532  0.6186
  147SAPE  C21316226   7.563   0.437   9.377 -0.1001  0.1361  0.8122
  147SAPE  H13R16227   7.456   0.452   9.352  0.4721  1.4126 -1.1628
  147SAPE  H13S16228   7.575   0.335   9.419  1.1288 -0.5841 -1.1037
  147SAPE  C21416229   7.621   0.439   9.239  0.6261  0.1289 -0.7379
  147SAPE  H14R16230   7.684   0.527   9.219 -2.0169  1.9423 -1.7000
  147SAPE  C21516231   7.617   0.335   9.150  0.4092 -0.1601 -0.5236
  147SAPE  H15R16232   7.680   0.348   9.060  1.7396  0.0538  0.4130
  147SAPE  C21616233   7.556   0.197   9.158  0.0177 -0.3116 -0.1018
  147SAPE  H16R16234   7.500   0.193   9.254  1.4051  1.0599  0.8156
  147SAPE  H16S16235   7.642   0.127   9.166  0.0330 -0.5791 -2.1543
  147SAPE  C21716236   7.467   0.175   9.036 -0.1432  0.9537  1.1145
  147SAPE  H17R16237   7.373   0.232   9.023 -0.2722  0.4586 -0.4006
  147SAPE  H17S16238   7.428   0.071   9.044  1.1424  0.2316 -1.0201
  147SAPE  C21816239   7.551   0.173   8.910  0.5672 -0.3356  0.3523
  147SAPE  H18R16240   7.647   0.119   8.925  0.3287 -0.5939  0.9734
  147SAPE  H18S16241   7.571   0.280   8.886 -2.8014  0.6074  1.2180
  147SAPE  C21916242   7.483   0.108   8.789 -0.1535 -0.2831 -0.3467
  147SAPE  H19R16243   7.385   0.156   8.768 -1.4155 -1.8869  1.5546
  147SAPE  H19S16244   7.466  -0.000   8.806  2.7091 -0.5321  1.6134
  147SAPE  C22016245   7.574   0.121   8.672  0.0745 -0.1528 -0.3628
  147SAPE  H20R16246   7.636   0.030   8.659  0.0486 -0.4806  1.4806
  147SAPE  H20S16247   7.644   0.207   8.681 -0.7516  0.4853  0.1315
  147SAPE  H20T16248   7.519   0.135   8.577  0.8314 -1.3207 -0.9990
  147SAPE   C3316249   6.849   0.652  10.124  0.3311  0.4961 -0.1498
  147SAPE   H3X16250   6.790   0.740  10.158 -0.6998 -0.3386  0.2819
  147SAPE   H3Y16251   6.782   0.587  10.064 -2.8658  2.3741  1.0649
  147SAPE   C3416252   6.967   0.711  10.045 -0.1282 -0.4871  0.3071
  147SAPE   H4X16253   7.028   0.627  10.003 -1.9518 -1.1566 -1.1170
  147SAPE   H4Y16254   7.026   0.774  10.116 -2.3189  0.6404  1.2030
  147SAPE   C3516255   6.920   0.800   9.929 -0.0122  0.9406 -0.2218
  147SAPE   H5X16256   7.008   0.855   9.889  1.4889  0.3969  2.1204
  147SAPE   H5Y16257   6.853   0.881   9.962 -1.9721  0.0576 -1.8740
  147SAPE   C3616258   6.845   0.715   9.822 -0.0225  0.5072 -0.4732
  147SAPE   H6X16259   6.739   0.697   9.851 -0.0180 -0.7444 -1.1704
  147SAPE   H6Y16260   6.893   0.616   9.813 -0.5570  0.0088  1.6264
  147SAPE   C3716261   6.859   0.768   9.685 -0.5505  0.3743  1.4039
  147SAPE   H7X16262   6.966   0.783   9.661 -0.9217 -1.6180 -2.0832
  147SAPE   H7Y16263   6.798   0.860   9.673 -1.8252 -0.6008  0.0612
  147SAPE   C3816264   6.789   0.675   9.580  0.4834  0.5313 -0.2087
  147SAPE   H8X16265   6.699   0.629   9.625  0.8095  0.1311  0.0465
  147SAPE   H8Y16266   6.861   0.594   9.556  0.1059  0.4811 -1.2106
  147SAPE   C3916267   6.755   0.741   9.444 -0.7813 -0.4969  0.3589
  147SAPE   H9X16268   6.783   0.849   9.438 -0.0524 -0.7784 -2.9001
  147SAPE   H9Y16269   6.645   0.752   9.436 -0.4610  2.4704 -1.3198
  147SAPE  C31016270   6.798   0.651   9.330  0.1005 -0.1285  0.4509
  147SAPE  H10X16271   6.748   0.553   9.349 -1.9925  1.3054  3.0658
  147SAPE  H10Y16272   6.907   0.634   9.343  0.0679 -0.4490  0.3266
  147SAPE  C31116273   6.760   0.705   9.193  0.4095 -0.2150 -0.6949
  147SAPE  H11X16274   6.796   0.808   9.170 -2.8854  0.8832 -1.5295
  147SAPE  H11Y16275   6.650   0.694   9.188  0.0326 -0.4582  3.9480
  147SAPE  C31216276   6.819   0.621   9.081  0.0551 -0.1659  0.1270
  147SAPE  H12X16277   6.782   0.517   9.094 -1.8347  0.5595  0.9287
  147SAPE  H12Y16278   6.929   0.611   9.077  0.1431  0.6392  0.4552
  147SAPE  C31316279   6.773   0.678   8.945  0.7283 -0.1501 -0.2019
  147SAPE  H13X16280   6.798   0.785   8.933  0.4116  0.2063  1.8210
  147SAPE  H13Y16281   6.662   0.671   8.935  0.4451  0.3479  2.0465
  147SAPE  C31416282   6.827   0.593   8.828  0.5737  0.4146 -0.1374
  147SAPE  H14X16283   6.928   0.631   8.802 -0.3158  1.2608 -2.7469
  147SAPE  H14Y16284   6.765   0.617   8.738  0.7831  1.0095 -0.1307
  147SAPE  C31516285   6.816   0.440   8.846 -0.8023  0.0980  0.4409
  147SAPE  H15X16286   6.716   0.397   8.868 -0.1442 -2.2400 -0.7338
  147SAPE  H15Y16287   6.888   0.411   8.926  1.3168  4.0356  0.1869
  147SAPE  C31616288   6.859   0.362   8.721  0.4891  0.2985 -0.1311
  147SAPE  H16X16289   6.947   0.407   8.670  1.6605 -1.5879  0.1247
  147SAPE  H16Y16290   6.772   0.364   8.652 -0.3738 -1.7032  0.8216
  147SAPE  C31716291   6.899   0.214   8.743 -1.1572 -0.0638  0.4841
  147SAPE  H17X16292   6.899   0.165   8.643 -0.5284 -2.2875  1.5096
  147SAPE  H17Y16293   6.819   0.160   8.800  0.3074 -1.8638  0.9370
  147SAPE  C31816294   7.043   0.191   8.801  0.0506 -0.0110  0.1466
  147SAPE  H18X16295   7.068   0.083   8.812  0.7500  0.1484  0.1228
  147SAPE  H18Y16296   7.059   0.231   8.903 -0.3442  1.1672 -0.2411
  147SAPE  H18Z16297   7.125   0.225   8.734 -1.8820  0.0473 -2.3332
  148SAPE     N16298   2.787   1.330  10.309 -0.0119 -0.2942  0.2930
  148SAPE   HN116299   2.864   1.400  10.309  0.1543 -0.3582 -2.5064
  148SAPE   HN216300   2.713   1.359  10.377  0.0398 -1.2663  0.7824
  148SAPE   HN316301   2.811   1.230  10.325 -0.7544 -0.7992 -1.5530
  148SAPE   C1216302   2.708   1.349  10.180  0.2840  0.4672  0.2241
  148SAPE  H12A16303   2.778   1.306  10.104 -0.9616 -0.7758 -0.2640
  148SAPE  H12B16304   2.692   1.457  10.160  3.2121  1.3512  2.0129
  148SAPE   C1116305   2.578   1.269  10.174  0.7460  0.2913  0.2192
  148SAPE  H11A16306   2.527   1.284  10.077 -1.1131  1.2740  1.2958
  148SAPE  H11B16307   2.506   1.331  10.231 -1.1772 -0.0555 -1.7080
  148SAPE     P16308   2.494   1.075  10.323  0.1039 -0.2844  0.4132
  148SAPE   O1316309   2.558   0.963  10.396  0.2346  0.0432  0.3301
  148SAPE   O1416310   2.439   1.188  10.404  0.1017 -0.1007 -0.9147
  148SAPE   O1216311   2.601   1.135  10.220 -0.2049 -0.0417  0.0594
  148SAPE   O1116312   2.375   1.030  10.229 -0.0136  0.0971  0.3716
  148SAPE    C116313   2.321   0.895  10.230  0.5750 -0.1033  0.6319
  148SAPE    HA16314   2.289   0.868  10.333 -2.2251 -1.0562 -0.4000
  148SAPE    HB16315   2.230   0.884  10.167 -0.2027  0.9288  1.5396
  148SAPE    C216316   2.423   0.789  10.180  0.2208  1.3089 -0.2465
  148SAPE    HS16317   2.487   0.761  10.267  1.1414  0.2745 -1.2166
  148SAPE   O2116318   2.499   0.840  10.071 -0.3163 -0.2017  0.2557
  148SAPE   C2116319   2.630   0.802  10.062  0.1355 -0.4348 -0.0411
  148SAPE   O2216320   2.687   0.730  10.142  0.4963  0.2953  0.3548
  148SAPE   C2216321   2.685   0.885   9.943  0.3308  1.2389 -0.6847
  148SAPE   H2R16322   2.624   0.866   9.852  0.6157  1.3926 -0.9120
  148SAPE   H2S16323   2.666   0.991   9.968 -0.0189  0.9202  0.4300
  148SAPE    C316324   2.353   0.644  10.153 -0.0651 -0.4035 -0.5719
  148SAPE    HX16325   2.317   0.609  10.252  2.7777 -1.6744  0.1171
  148SAPE    HY16326   2.426   0.564  10.130 -1.5725 -2.5869  1.6814
  148SAPE   O3116327   2.242   0.653  10.062 -0.1743 -0.4074  0.0821
  148SAPE   C3116328   2.285   0.652   9.934  0.1547 -0.3986  0.2537
  148SAPE   O3216329   2.404   0.625   9.903  0.6283  0.1907  0.2825
  148SAPE   C3216330   2.171   0.677   9.839  0.1275  0.2911 -0.3206
  148SAPE   H2X16331   2.149   0.785   9.825  0.4119  0.2399 -1.2645
  148SAPE   H2Y16332   2.079   0.635   9.886 -0.9813  1.1841 -1.6014
  148SAPE   C2316333   2.837   0.852   9.905  0.2251  0.5330 -0.8956
  148SAPE   H3R16334   2.827   0.758   9.846 -0.0002 -0.5678  0.8358
  148SAPE   H3S16335   2.883   0.827  10.003 -3.0993 -2.5755  0.0903
  148SAPE   C2416336   2.906   0.961   9.818 -0.1432  0.3336  0.0560
  148SAPE   H4R16337   2.845   0.985   9.728  0.1992 -1.0022 -0.5471
  148SAPE   H4S16338   2.998   0.916   9.775  0.9398  0.0771  2.4856
  148SAPE   C2516339   2.932   1.093   9.888  0.0964  0.2140  0.2554
  148SAPE   H5R16340   2.990   1.088   9.981  0.1142  0.7140  0.2724
  148SAPE   C2616341   2.887   1.213   9.851  0.6171 -0.8086 -0.2981
  148SAPE   H6R16342   2.903   1.302   9.915 -0.9230  0.3974 -1.5284
  148SAPE   C2716343   2.793   1.256   9.743 -0.4837 -0.1445  0.5185
  148SAPE   H7R16344   2.720   1.330   9.783  0.1756  0.3111  0.8940
  148SAPE   H7S16345   2.723   1.173   9.719 -1.9050  1.0298  0.5192
  148SAPE   C2816346   2.870   1.297   9.616 -0.0223  0.2802  0.1579
  148SAPE   H8R16347   2.972   1.333   9.636  0.0431  0.5220 -0.5693
  148SAPE   C2916348   2.829   1.274   9.493 -0.3493  0.4143 -0.1379
  148SAPE   H9R16349   2.892   1.316   9.414  1.5386 -0.6846  0.7073
  148SAPE  C21016350   2.705   1.218   9.440  0.5326  0.9280  0.1651
  148SAPE  H10R16351   2.629   1.296   9.420  0.0674  0.4027 -0.1660
  148SAPE  H10S16352   2.653   1.150   9.511 -0.5763  0.8945 -0.6521
  148SAPE  C21116353   2.735   1.129   9.329 -0.5987  0.2519  0.2665
  148SAPE  H11R16354   2.790   1.040   9.365  1.6400  1.9537  1.2971
  148SAPE  C21216355   2.709   1.141   9.199  0.0144 -0.0521 -0.6881
  148SAPE  H12R16356   2.739   1.052   9.143  0.7380 -1.2479  1.4824
  148SAPE  C21316357   2.646   1.260   9.121  0.5638  0.2669  0.2593
  148SAPE  H13R16358   2.577   1.320   9.183  2.6171  0.4703  2.4700
  148SAPE  H13S16359   2.600   1.223   9.027 -2.2918 -1.2263  2.0909
  148SAPE  C21416360   2.763   1.361   9.091 -0.1431 -0.8248  0.3471
  148SAPE  H14R16361   2.804   1.402   9.185 -2.3229  0.0686  0.9637
  148SAPE  C21516362   2.810   1.387   8.969  0.7242 -0.2924 -0.3416
  148SAPE  H15R16363   2.882   1.470   8.958 -1.7288  1.6006 -4.0504
  148SAPE  C21616364   2.759   1.327   8.840  0.0030 -0.1086  0.0347
  148SAPE  H16R16365   2.659   1.371   8.819 -0.4121 -1.0682 -0.0407
  148SAPE  H16S16366   2.741   1.218   8.843  0.0021 -0.1221 -0.4155
  148SAPE  C21716367   2.855   1.363   8.729  0.2030  0.1560  0.4372
  148SAPE  H17R16368   2.881   1.471   8.734 -1.6638  0.7747 -1.6600
  148SAPE  H17S16369   2.804   1.341   8.633  1.3690 -4.1901  0.5838
  148SAPE  C21816370   2.970   1.264   8.726  0.0056 -0.5106  0.2607
  148SAPE  H18R16371   2.931   1.167   8.688 -0.6571 -1.7379  3.6388
  148SAPE  H18S16372   3.012   1.249   8.828 -0.0048 -1.8215  0.0854
  148SAPE  C21916373   3.082   1.302   8.623  0.1692 -0.1747  0.3461
  148SAPE  H19R16374   3.111   1.407   8.644 -1.2204  0.0888  1.0519
  148SAPE  H19S16375   3.040   1.296   8.520  3.3768  0.3556 -1.1044
  148SAPE  C22016376   3.204   1.215   8.636  0.2156 -0.2846  0.5493
  148SAPE  H20R16377   3.261   1.238   8.729 -1.7391  0.7044  1.5734
  148SAPE  H20S16378   3.273   1.219   8.549  1.9277  1.4800  1.8987
  148SAPE  H20T16379   3.161   1.112   8.642 -2.1810  0.6749  0.6185
  148SAPE   C3316380   2.190   0.609   9.700 -0.1604  0.4032 -1.1872
  148SAPE   H3X16381   2.173   0.500   9.712 -0.5161  0.6008  0.3152
  148SAPE   H3Y16382   2.294   0.623   9.666  0.0305  0.0840 -0.7423
  148SAPE   C3416383   2.098   0.675   9.597  0.4120 -0.3394  0.1648
  148SAPE   H4X16384   2.126   0.782   9.589 -0.8911 -0.0448 -0.6978
  148SAPE   H4Y16385   1.995   0.670   9.637  0.7777 -0.9104  1.0649
  148SAPE   C3516386   2.127   0.620   9.455 -0.1877 -0.2087 -0.5793
  148SAPE   H5X16387   2.136   0.509   9.451  1.0806 -0.1018 -0.9067
  148SAPE   H5Y16388   2.230   0.651   9.427 -0.4317 -0.0469 -1.3238
  148SAPE   C3616389   2.020   0.669   9.362  0.6660  0.3826  0.5135
  148SAPE   H6X16390   2.012   0.779   9.372  0.3785  0.5738 -1.4880
  148SAPE   H6Y16391   1.923   0.620   9.387  0.0160  1.2503 -0.2504
  148SAPE   C3716392   2.054   0.613   9.223 -0.1812  0.4483  0.3863
  148SAPE   H7X16393   2.063   0.503   9.234 -1.3542  0.1806 -1.0924
  148SAPE   H7Y16394   2.157   0.645   9.200  0.0452 -0.8637 -0.5532
  148SAPE   C3816395   1.955   0.639   9.099 -0.1256 -0.0502  0.2011
  148SAPE   H8X16396   1.853   0.623   9.140  0.5437 -0.8833  1.6218
  148SAPE   H8Y16397   1.995   0.562   9.029  0.8853 -0.8584  1.6192
  148SAPE   C3916398   1.973   0.772   9.021 -0.0794 -0.7976 -0.1106
  148SAPE   H9X16399   2.079   0.806   9.021  0.6311 -2.8534  0.5911
  148SAPE   H9Y16400   1.916   0.850   9.076  0.6795 -1.1914  1.2809
  148SAPE  C31016401   1.930   0.759   8.871  0.3915 -0.8415 -0.7417
  148SAPE  H10X16402   1.824   0.729   8.859 -0.3673  1.7708 -1.3431
  148SAPE  H10Y16403   1.988   0.682   8.816  1.7767 -2.0212  2.1595
  148SAPE  C31116404   1.947   0.890   8.783  0.4000 -1.0213 -0.4709
  148SAPE  H11X16405   2.037   0.949   8.812  0.5592 -0.3410 -2.1971
  148SAPE  H11Y16406   1.858   0.952   8.807 -0.2257 -1.4677 -1.5754
  148SAPE  C31216407   1.947   0.848   8.639 -0.0618  0.1315 -0.8719
  148SAPE  H12X16408   1.873   0.770   8.611  1.0011 -1.1278 -0.3075
  148SAPE  H12Y16409   2.048   0.807   8.617 -0.2595 -0.5279 -0.5933
  148SAPE  C31316410   1.920   0.958   8.535  0.2520 -0.1825 -0.6242
  148SAPE  H13X16411   1.975   1.050   8.564 -0.5312  0.0769  0.0910
  148SAPE  H13Y16412   1.814   0.987   8.551 -0.1520 -1.4255 -0.9004
  148SAPE  C31416413   1.949   0.925   8.383 -0.1382 -0.7667  0.4594
  148SAPE  H14X16414   1.903   0.827   8.357 -2.1226  0.7948 -2.4138
  148SAPE  H14Y16415   2.060   0.917   8.388  0.0308  0.6131 -0.5025
  148SAPE  C31516416   1.910   1.035   8.289  0.1330  0.0105  0.0835
  148SAPE  H15X16417   1.964   1.015   8.194 -0.0305 -1.3537  0.2647
  148SAPE  H15Y16418   1.936   1.131   8.339  0.8175  0.7325 -1.5850
  148SAPE  C31616419   1.759   1.030   8.263 -0.0155 -0.1603  0.6569
  148SAPE  H16X16420   1.707   1.015   8.359  1.7149 -1.6668  1.4285
  148SAPE  H16Y16421   1.730   0.952   8.189  0.0048  0.4119  0.0306
  148SAPE  C31716422   1.711   1.161   8.200 -0.4671 -0.8460  0.3160
  148SAPE  H17X16423   1.743   1.243   8.267  1.0543 -0.2534 -1.0794
  148SAPE  H17Y16424   1.602   1.147   8.185 -0.4477 -0.1831 -0.5130
  148SAPE  C31816425   1.765   1.194   8.065 -0.5001 -0.1898  0.0279
  148SAPE  H18X16426   1.753   1.110   7.994  1.5607  0.8531 -1.6618
  148SAPE  H18Y16427   1.873   1.218   8.076 -0.7571  0.2442  2.1169
  148SAPE  H18Z16428   1.708   1.278   8.021 -0.4553 -0.2284 -0.1053
  149SAPE     N16429   4.731   4.910  10.981  0.3301 -0.7964 -0.4671
  149SAPE   HN116430   4.670   4.993  10.970  1.9382  0.4405 -0.3569
  149SAPE   HN216431   4.829   4.932  10.951  0.4124  0.9370  0.9437
  149SAPE   HN316432   4.691   4.846  10.910 -0.0325  1.9095 -2.8929
  149SAPE   C1216433   4.745   4.860  11.119  0.1947 -0.1528 -0.2842
  149SAPE  H12A16434   4.644   4.857  11.165 -0.0841 -0.2807 -0.8950
  149SAPE  H12B16435   4.814   4.929  11.172  1.4797 -0.6671 -1.2220
  149SAPE   C1116436   4.798   4.712  11.110  0.2193  0.5297 -0.9035
  149SAPE  H11A16437   4.730   4.646  11.053  0.9469  0.2169 -1.4264
  149SAPE  H11B16438   4.803   4.680  11.216 -1.6312  0.1396 -0.9014
  149SAPE     P16439   5.029   4.606  11.059  0.5452 -0.0675  0.0141
  149SAPE   O1316440   5.120   4.613  10.942  0.6515 -0.3128 -0.4089
  149SAPE   O1416441   5.088   4.612  11.194  0.3824  0.7273 -0.3030
  149SAPE   O1216442   4.928   4.726  11.049 -0.6561  0.2369 -0.3856
  149SAPE   O1116443   4.943   4.467  11.049  0.0198  0.0059 -0.2875
  149SAPE    C116444   4.880   4.432  10.919  0.3849 -0.5789  0.1614
  149SAPE    HA16445   4.786   4.377  10.943 -0.2240  1.5439  3.2083
  149SAPE    HB16446   4.843   4.525  10.871  1.5823 -0.7322 -1.0848
  149SAPE    C216447   4.961   4.346  10.814 -0.5462 -0.8435  0.4585
  149SAPE    HS16448   5.050   4.411  10.799  1.2336 -2.6047  2.5990
  149SAPE   O2116449   4.882   4.330  10.694  0.4860  0.0608  0.0857
  149SAPE   C2116450   4.870   4.443  10.619 -0.4229  0.3387 -0.6768
  149SAPE   O2216451   4.928   4.546  10.647  0.4218  0.5113 -0.5537
  149SAPE   C2216452   4.772   4.439  10.499 -0.2553  0.4418 -0.0216
  149SAPE   H2R16453   4.705   4.350  10.506 -0.4287  0.5279 -0.5444
  149SAPE   H2S16454   4.713   4.533  10.494 -1.3535 -0.2923 -1.3819
  149SAPE    C316455   5.011   4.209  10.874  0.1356 -0.1017 -0.1044
  149SAPE    HX16456   4.920   4.155  10.909  0.9656 -0.4018  1.7044
  149SAPE    HY16457   5.073   4.213  10.966 -0.5795 -1.2958  0.4499
  149SAPE   O3116458   5.078   4.128  10.776  0.1002 -0.4215 -0.0863
  149SAPE   C3116459   5.007   4.040  10.704 -0.4786 -0.7547 -0.8113
  149SAPE   O3216460   4.887   4.023  10.708  0.0666  0.0475  0.1648
  149SAPE   C3216461   5.107   3.959  10.622  0.1893 -0.2910  0.1471
  149SAPE   H2X16462   5.200   3.939  10.680  0.9739  3.8162  0.6350
  149SAPE   H2Y16463   5.143   4.021  10.537  3.1211 -0.5224  1.1038
  149SAPE   C2316464   4.847   4.417  10.364 -0.4928  0.0659  0.0108
  149SAPE   H3R16465   4.934   4.485  10.363  0.6189 -1.1301  2.8802
  149SAPE   H3S16466   4.783   4.446  10.279 -0.5328 -0.2131 -0.0558
  149SAPE   C2416467   4.900   4.273  10.343 -0.1896  0.0247  0.2804
  149SAPE   H4R16468   4.970   4.254  10.427  1.0296 -0.7188 -0.8606
  149SAPE   H4S16469   4.971   4.265  10.258  2.0075 -3.1627  2.1634
  149SAPE   C2516470   4.803   4.162  10.324 -0.1888 -0.1202 -0.0111
  149SAPE   H5R16471   4.804   4.097  10.413  0.7344  0.0110  0.0891
  149SAPE   C2616472   4.719   4.148  10.221  0.4216 -0.4511 -0.7522
  149SAPE   H6R16473   4.641   4.071  10.226  0.3270 -0.3266 -0.1072
  149SAPE   C2716474   4.707   4.242  10.107  0.1540  0.0011 -0.4553
  149SAPE   H7R16475   4.798   4.291  10.067 -1.6002  0.8780 -3.7495
  149SAPE   H7S16476   4.646   4.333  10.124 -1.1128 -0.4945 -2.0763
  149SAPE   C2816477   4.641   4.175   9.986  0.2809 -0.3084 -0.3456
  149SAPE   H8R16478   4.531   4.172   9.975  0.3217 -1.9156 -0.5370
  149SAPE   C2916479   4.714   4.134   9.874 -0.1450  0.1930 -0.3441
  149SAPE   H9R16480   4.661   4.089   9.789 -0.4765 -0.6225  0.2803
  149SAPE  C21016481   4.866   4.134   9.856 -0.6525  0.8319  0.7776
  149SAPE  H10R16482   4.917   4.127   9.954 -1.6525 -0.8584  1.2086
  149SAPE  H10S16483   4.902   4.230   9.813  1.9272  0.4716  1.9441
  149SAPE  C21116484   4.897   4.021   9.762 -0.9685 -0.3658  0.5099
  149SAPE  H11R16485   4.928   3.932   9.819  0.8231  0.2536  0.5591
  149SAPE  C21216486   4.917   4.019   9.634  0.5062  0.3664 -0.5839
  149SAPE  H12R16487   4.929   3.921   9.587 -1.9431 -1.7245  2.7843
  149SAPE  C21316488   4.909   4.139   9.535  0.0540  0.1324 -1.2179
  149SAPE  H13R16489   4.899   4.234   9.592  0.2207 -1.0813  0.9511
  149SAPE  H13S16490   4.813   4.139   9.479  0.3160  1.2779 -1.6878
  149SAPE  C21416491   5.022   4.143   9.445 -0.2561  0.0643 -0.3421
  149SAPE  H14R16492   5.119   4.153   9.496 -0.9435 -0.4005  1.1114
  149SAPE  C21516493   5.013   4.144   9.304  0.4293  0.4302  0.1971
  149SAPE  H15R16494   5.107   4.146   9.247 -0.4583 -0.4982 -1.3731
  149SAPE  C21616495   4.900   4.138   9.208  0.3267 -0.4106 -0.0682
  149SAPE  H16R16496   4.854   4.238   9.197 -0.4406 -0.9950 -3.4045
  149SAPE  H16S16497   4.825   4.067   9.249 -0.1395 -1.4503 -2.5617
  149SAPE  C21716498   4.928   4.071   9.072 -0.1065 -0.0134  0.3549
  149SAPE  H17R16499   4.831   4.061   9.020  0.0390  1.8020 -0.3471
  149SAPE  H17S16500   4.971   3.969   9.082  0.4592  0.2895  1.0837
  149SAPE  C21816501   5.008   4.160   8.975  0.2791 -0.6024  0.2406
  149SAPE  H18R16502   5.105   4.192   9.018  0.0341  0.0139  0.3403
  149SAPE  H18S16503   4.955   4.256   8.961 -1.1404 -1.6579 -2.5102
  149SAPE  C21916504   5.018   4.108   8.831  0.7221  0.2124 -0.0660
  149SAPE  H19R16505   4.925   4.089   8.773  0.4001  2.6059 -0.4366
  149SAPE  H19S16506   5.078   4.016   8.848 -0.7495 -0.7614  0.0060
  149SAPE  C22016507   5.104   4.199   8.756 -0.0390 -0.4541 -0.2798
  149SAPE  H20R16508   5.186   4.250   8.811 -0.8614  1.2090 -0.5474
  149SAPE  H20S16509   5.043   4.281   8.713  2.4593  0.5764 -2.0809
  149SAPE  H20T16510   5.151   4.152   8.666  0.3874  2.4998 -1.7154
  149SAPE   C3316511   5.047   3.836  10.557 -0.4548  1.2018  0.9919
  149SAPE   H3X16512   4.957   3.860  10.496 -1.4163  0.5050  2.0832
  149SAPE   H3Y16513   5.000   3.775  10.637  1.7516 -0.6791  0.9726
  149SAPE   C3416514   5.141   3.743  10.479  0.1092  0.5596  0.7037
  149SAPE   H4X16515   5.092   3.660  10.424  2.4750 -0.8666  0.5888
  149SAPE   H4Y16516   5.208   3.702  10.558  0.8017  0.8099  0.2586
  149SAPE   C3516517   5.240   3.812  10.373 -0.2611 -0.1246 -0.3985
  149SAPE   H5X16518   5.327   3.743  10.367 -0.2503 -0.2429  0.7452
  149SAPE   H5Y16519   5.282   3.912  10.398 -0.3036 -0.0869 -0.4813
  149SAPE   C3616520   5.199   3.805  10.221 -0.6850  0.3353 -0.0701
  149SAPE   H6X16521   5.109   3.869  10.215 -0.6461  0.5344  1.1029
  149SAPE   H6Y16522   5.171   3.705  10.181 -1.3771  0.8993 -1.0224
  149SAPE   C3716523   5.304   3.865  10.128  0.0008  0.4210 -0.1800
  149SAPE   H7X16524   5.406   3.839  10.163 -0.1065 -0.5470 -0.5541
  149SAPE   H7Y16525   5.321   3.974  10.114  3.3064 -0.3013 -3.4423
  149SAPE   C3816526   5.285   3.815   9.982 -0.1567 -0.4213  0.4401
  149SAPE   H8X16527   5.177   3.837   9.964  0.4175  1.0312 -1.6371
  149SAPE   H8Y16528   5.303   3.706   9.977  2.4050 -0.0208 -0.5658
  149SAPE   C3916529   5.373   3.888   9.882 -0.0671  0.0785  0.1464
  149SAPE   H9X16530   5.481   3.886   9.907 -0.1070 -0.5271  0.2799
  149SAPE   H9Y16531   5.339   3.994   9.889  0.6862  0.3421 -0.0947
  149SAPE  C31016532   5.364   3.836   9.736 -0.2448  0.4937 -0.2347
  149SAPE  H10X16533   5.258   3.805   9.725 -0.3258  0.6653  0.0435
  149SAPE  H10Y16534   5.434   3.749   9.733  0.1444  0.7080  1.5386
  149SAPE  C31116535   5.408   3.943   9.631  1.1709 -0.0855  0.5582
  149SAPE  H11X16536   5.514   3.971   9.647  1.6343  0.0627 -2.3320
  149SAPE  H11Y16537   5.349   4.035   9.653 -0.3312 -0.5725 -1.1922
  149SAPE  C31216538   5.386   3.914   9.487  0.4447  0.1375  0.5280
  149SAPE  H12X16539   5.281   3.881   9.480  0.3502  0.5613 -0.2048
  149SAPE  H12Y16540   5.449   3.825   9.467  1.5384  1.4104 -2.2291
  149SAPE  C31316541   5.412   4.037   9.398 -0.7809  0.4323 -0.0925
  149SAPE  H13X16542   5.522   4.051   9.405 -0.0521 -3.2104 -1.9387
  149SAPE  H13Y16543   5.349   4.126   9.420 -2.8709 -0.5740 -1.5839
  149SAPE  C31416544   5.380   4.008   9.250  0.1645  0.3923 -0.2376
  149SAPE  H14X16545   5.270   4.015   9.237  0.0514  2.5110  1.3270
  149SAPE  H14Y16546   5.419   3.910   9.216  2.1238  1.0856 -0.1584
  149SAPE  C31516547   5.447   4.114   9.166  0.2904  0.1504 -0.4891
  149SAPE  H15X16548   5.552   4.147   9.180 -0.3981  2.9017 -1.1955
  149SAPE  H15Y16549   5.386   4.206   9.179 -3.0587 -2.1169  1.4118
  149SAPE  C31616550   5.444   4.073   9.018  0.5497  0.8172  0.1554
  149SAPE  H16X16551   5.340   4.048   8.988 -0.1276  1.0902  2.1514
  149SAPE  H16Y16552   5.503   3.981   8.999 -1.2424  0.2707 -3.7593
  149SAPE  C31716553   5.498   4.171   8.910 -0.3039 -0.2635 -0.1505
  149SAPE  H17X16554   5.447   4.270   8.919 -1.8681 -0.9538 -0.8850
  149SAPE  H17Y16555   5.465   4.130   8.812  1.9194 -0.8480 -0.7139
  149SAPE  C31816556   5.645   4.190   8.903 -0.2277  0.2290 -0.2367
  149SAPE  H18X16557   5.680   4.246   8.814 -0.9818  1.0900 -0.0054
  149SAPE  H18Y16558   5.690   4.090   8.889  0.1627  0.8125 -4.5012
  149SAPE  H18Z16559   5.679   4.238   8.997  2.0800 -3.4644  1.0040
  150SAPE     N16560   0.765   4.129  10.705  0.3526  0.1058  0.0723
  150SAPE   HN116561   0.732   4.086  10.793  0.4164  0.0223  0.0559
  150SAPE   HN216562   0.787   4.055  10.635 -0.7357  0.0597 -0.2471
  150SAPE   HN316563   0.846   4.191  10.726 -0.5398  1.2918  0.1001
  150SAPE   C1216564   0.649   4.215  10.666 -0.0915 -0.3833  0.6102
  150SAPE  H12A16565   0.665   4.264  10.568  0.0257  1.3170  1.4351
  150SAPE  H12B16566   0.630   4.296  10.740 -1.2104  0.6354 -0.7344
  150SAPE   C1116567   0.520   4.130  10.671 -0.4989 -0.2239  0.5533
  150SAPE  H11A16568   0.546   4.046  10.604 -0.6143 -0.0333  0.2698
  150SAPE  H11B16569   0.442   4.180  10.611  1.8225  1.6316 -1.1036
  150SAPE     P16570   0.393   4.180  10.887  0.0098  0.0756 -0.3446
  150SAPE   O1316571   0.274   4.099  10.927  0.3448 -0.1298  0.1014
  150SAPE   O1416572   0.478   4.226  11.004  0.3649 -0.0007 -0.1228
  150SAPE   O1216573   0.479   4.081  10.800  0.4135 -0.4273  0.2437
  150SAPE   O1116574   0.352   4.300  10.799  1.2441  0.2329  0.0160
  150SAPE    C116575   0.239   4.387  10.806 -0.5353 -0.0057 -0.1100
  150SAPE    HA16576   0.229   4.419  10.912 -0.8251  2.6362 -0.8760
  150SAPE    HB16577   0.267   4.481  10.755  0.7414 -0.4684 -0.3003
  150SAPE    C216578   0.107   4.323  10.757 -0.5081 -0.4027  0.0478
  150SAPE    HS16579   0.083   4.229  10.811 -0.3224 -1.9579 -2.4080
  150SAPE   O2116580   0.121   4.299  10.615 -0.1458  0.0344 -0.0139
  150SAPE   C2116581   0.033   4.226  10.560  0.6855  0.4114  0.5625
  150SAPE   O2216582  -0.069   4.175  10.612 -0.5437  0.1001  0.0042
  150SAPE   C2216583   0.051   4.231  10.404 -0.3770 -0.6733 -0.1041
  150SAPE   H2R16584  -0.049   4.227  10.357 -0.5307 -0.7583  0.2257
  150SAPE   H2S16585   0.099   4.329  10.384 -1.7272 -0.0133 -0.2088
  150SAPE    C316586  -0.004   4.431  10.786  0.6718  0.2316  0.6254
  150SAPE    HX16587  -0.016   4.432  10.896  0.2075 -1.6600  0.6348
  150SAPE    HY16588  -0.103   4.407  10.742 -0.4952  0.1008  3.1830
  150SAPE   O3116589   0.034   4.565  10.747 -0.5461 -0.4975  0.3750
  150SAPE   C3116590   0.015   4.607  10.620  0.1534 -0.1680 -0.1507
  150SAPE   O3216591  -0.024   4.532  10.531 -0.1319 -0.1575 -0.3101
  150SAPE   C3216592   0.052   4.754  10.618 -0.2521 -0.2286 -0.5230
  150SAPE   H2X16593   0.159   4.774  10.594 -0.0425 -0.4796  0.1784
  150SAPE   H2Y16594   0.011   4.808  10.706 -1.4339 -3.2508  0.9300
  150SAPE   C2316595   0.139   4.118  10.353  0.2989  0.2998  0.7306
  150SAPE   H3R16596   0.096   4.017  10.374  1.5042  0.0919  2.4454
  150SAPE   H3S16597   0.233   4.117  10.413  0.3615  0.5210  0.6356
  150SAPE   C2416598   0.180   4.130  10.208 -0.1838 -0.4115 -0.5139
  150SAPE   H4R16599   0.279   4.079  10.204  0.4562  0.4617  1.8338
  150SAPE   H4S16600   0.194   4.238  10.186 -0.4256  0.0503  1.3556
  150SAPE   C2516601   0.084   4.073  10.108  0.6972 -0.4930 -0.3774
  150SAPE   H5R16602   0.086   3.964  10.091 -1.0390 -0.4822 -0.8159
  150SAPE   C2616603  -0.011   4.133  10.036 -0.1388 -0.7508 -0.1532
  150SAPE   H6R16604  -0.068   4.077   9.962 -0.4806  0.8529 -1.1559
  150SAPE   C2716605  -0.054   4.283  10.046 -0.9379  0.2944  0.2289
  150SAPE   H7R16606   0.016   4.354  10.095 -0.2271  2.0803 -3.0766
  150SAPE   H7S16607  -0.143   4.305  10.109 -0.5353  0.8933  0.6031
  150SAPE   C2816608  -0.071   4.317   9.900 -0.3739 -0.0095 -0.0857
  150SAPE   H8R16609  -0.148   4.260   9.846 -0.3023  2.5452 -3.1677
  150SAPE   C2916610  -0.009   4.416   9.843 -0.5021  0.3359  0.0080
  150SAPE   H9R16611  -0.039   4.431   9.738  1.4965 -1.4399 -0.8863
  150SAPE  C21016612   0.098   4.499   9.903 -0.1854 -0.4968  0.4545
  150SAPE  H10R16613   0.188   4.511   9.840  2.2795  1.2825  3.9343
  150SAPE  H10S16614   0.140   4.461   9.999 -0.3272  0.1229  0.7717
  150SAPE  C21116615   0.037   4.636   9.920 -0.0199 -0.9332 -0.0706
  150SAPE  H11R16616   0.015   4.664  10.024  0.1239 -0.3251 -0.2014
  150SAPE  C21216617   0.017   4.723   9.821 -0.1561 -0.5511  0.0976
  150SAPE  H12R16618  -0.020   4.824   9.844 -0.9269 -0.8151  0.0454
  150SAPE  C21316619   0.060   4.701   9.675  0.6172 -0.7643 -0.5196
  150SAPE  H13R16620   0.065   4.593   9.653  0.7701 -0.6618 -1.0045
  150SAPE  H13S16621   0.167   4.727   9.662  0.4856  1.6385  2.1658
  150SAPE  C21416622  -0.040   4.773   9.584  0.1809  0.4120  0.0256
  150SAPE  H14R16623  -0.146   4.762   9.611  0.0432  1.0259 -0.2559
  150SAPE  C21516624  -0.012   4.839   9.469 -0.1364 -0.0759 -0.4523
  150SAPE  H15R16625  -0.095   4.897   9.426 -0.3175  0.6437  0.8158
  150SAPE  C21616626   0.132   4.844   9.421 -0.3505  0.0160 -0.4372
  150SAPE  H16R16627   0.210   4.827   9.499  1.6434  1.3453 -2.0577
  150SAPE  H16S16628   0.166   4.944   9.387 -0.7820  1.4890  3.0324
  150SAPE  C21716629   0.156   4.736   9.317  0.4412  1.2586  0.2323
  150SAPE  H17R16630   0.121   4.640   9.362  1.7153  0.3837 -0.5827
  150SAPE  H17S16631   0.265   4.724   9.298  0.1605 -0.1345 -0.5745
  150SAPE  C21816632   0.097   4.765   9.182 -0.5310 -0.2560  0.2807
  150SAPE  H18R16633  -0.008   4.798   9.197 -0.6741 -0.3201 -0.5170
  150SAPE  H18S16634   0.087   4.678   9.113 -0.5130  0.3246 -0.4717
  150SAPE  C21916635   0.159   4.886   9.108  0.3028  0.1402  0.0034
  150SAPE  H19R16636   0.195   4.963   9.179  1.2123 -1.6708  1.6138
  150SAPE  H19S16637   0.086   4.938   9.044  1.3592 -0.1188 -1.4481
  150SAPE  C22016638   0.258   4.845   9.006  0.1765  0.4776  0.2389
  150SAPE  H20R16639   0.227   4.774   8.927  1.3440 -1.0807  1.1287
  150SAPE  H20S16640   0.341   4.799   9.064 -0.4679 -0.8327  0.1321
  150SAPE  H20T16641   0.294   4.940   8.961 -0.0354  0.9494  1.0413
  150SAPE   C3316642  -0.036   4.812  10.508  0.3515 -0.0135  0.7376
  150SAPE   H3X16643  -0.021   4.921  10.520 -0.4400  0.0667  1.0480
  150SAPE   H3Y16644  -0.143   4.789  10.524  0.6033 -2.0084 -0.1469
  150SAPE   C3416645   0.012   4.784  10.360  0.3811  0.7577 -0.7475
  150SAPE   H4X16646  -0.082   4.776  10.302 -2.0577 -0.0368  2.9533
  150SAPE   H4Y16647   0.065   4.686  10.356 -1.2139 -0.1035 -1.9654
  150SAPE   C3516648   0.115   4.893  10.313  0.2285  0.2967 -1.1925
  150SAPE   H5X16649   0.205   4.904  10.377 -0.9932  0.3423  0.5878
  150SAPE   H5Y16650   0.064   4.991  10.322 -1.0378 -0.2304 -2.4123
  150SAPE   C3616651   0.161   4.868  10.174 -0.0675  0.1331 -1.0012
  150SAPE   H6X16652   0.075   4.880  10.105 -0.2379 -0.7366 -0.9503
  150SAPE   H6Y16653   0.198   4.764  10.164 -1.6066 -0.5574  0.0476
  150SAPE   C3716654   0.272   4.960  10.135 -0.4423 -0.3108 -0.0096
  150SAPE   H7X16655   0.367   4.937  10.188 -0.6270  2.9115  2.0368
  150SAPE   H7Y16656   0.257   5.070  10.147  0.3056  0.3059 -3.5048
  150SAPE   C3816657   0.301   4.955   9.982  0.4246 -0.6138 -0.6471
  150SAPE   H8X16658   0.309   4.848   9.953 -1.0104 -0.1862 -2.8695
  150SAPE   H8Y16659   0.394   5.009   9.952  0.1844  1.1623  1.5367
  150SAPE   C3916660   0.198   5.035   9.907 -0.1772  0.3165  0.1608
  150SAPE   H9X16661   0.177   5.134   9.953 -3.4563 -0.4930  0.7003
  150SAPE   H9Y16662   0.095   4.993   9.903 -0.4661  1.0848 -1.0689
  150SAPE  C31016663   0.244   5.049   9.752 -0.1706 -0.6328 -0.0297
  150SAPE  H10X16664   0.254   4.947   9.710  0.3213 -1.7724  2.6364
  150SAPE  H10Y16665   0.351   5.080   9.754 -0.6417  1.2300 -0.8607
  150SAPE  C31116666   0.164   5.147   9.659 -0.2031  0.6271 -0.3082
  150SAPE  H11X16667   0.138   5.245   9.704 -1.4815 -0.6900  1.9621
  150SAPE  H11Y16668   0.073   5.094   9.623  0.1576  0.5938 -1.2148
  150SAPE  C31216669   0.246   5.186   9.533  0.5050  0.1883  0.3340
  150SAPE  H12X16670   0.305   5.094   9.512  0.3616  0.3049 -0.6179
  150SAPE  H12Y16671   0.327   5.258   9.559  0.1612  0.2107  1.4320
  150SAPE  C31316672   0.152   5.241   9.422 -0.1316  0.7222 -0.5101
  150SAPE  H13X16673   0.109   5.334   9.466 -1.9953 -1.4307  2.6837
  150SAPE  H13Y16674   0.073   5.164   9.402 -0.1133  0.5110  0.2125
  150SAPE  C31416675   0.229   5.266   9.291 -0.2249  0.0607 -0.3247
  150SAPE  H14X16676   0.303   5.186   9.270  0.0511  0.0825  0.5415
  150SAPE  H14Y16677   0.280   5.363   9.310 -2.5133  1.5895 -1.3934
  150SAPE  C31516678   0.137   5.288   9.163  0.2718 -0.1288  0.3077
  150SAPE  H15X16679   0.072   5.370   9.200 -1.2282 -0.7163 -0.9407
  150SAPE  H15Y16680   0.076   5.196   9.163 -0.2289  0.1522  2.3932
  150SAPE  C31616681   0.206   5.322   9.029  1.1286 -0.3860 -0.4543
  150SAPE  H16X16682   0.129   5.362   8.959 -0.6206 -1.0710  1.0002
  150SAPE  H16Y16683   0.246   5.230   8.982  1.2050 -0.4228 -0.3174
  150SAPE  C31716684   0.330   5.415   9.037 -0.0253  0.0843  0.1050
  150SAPE  H17X16685   0.398   5.380   8.956 -0.5978  2.9750 -1.7991
  150SAPE  H17Y16686   0.385   5.416   9.133 -2.2938 -1.8954  1.5347
  150SAPE  C31816687   0.286   5.552   8.997 -0.5708  0.1990  0.0378
  150SAPE  H18X16688   0.374   5.619   8.984 -0.8036 -0.0304 -4.7675
  150SAPE  H18Y16689   0.219   5.592   9.075 -2.1193 -1.1646 -0.5328
  150SAPE  H18Z16690   0.230   5.563   8.902 -1.1931  0.0644  0.3889
  151SAPE     N16691   3.778   6.407  10.839  0.2346  0.2734  0.1168
  151SAPE   HN116692   3.755   6.358  10.928 -3.9055  1.3235 -0.1733
  151SAPE   HN216693   3.828   6.495  10.864  1.4387 -0.5193  0.5980
  151SAPE   HN316694   3.684   6.437  10.806 -0.4698  0.8497  2.4104
  151SAPE   C1216695   3.874   6.333  10.758 -0.4943 -0.6973 -0.4267
  151SAPE  H12A16696   3.871   6.228  10.794  0.2942 -0.3922  0.5584
  151SAPE  H12B16697   3.976   6.367  10.783  0.0025 -2.1139 -0.4616
  151SAPE   C1116698   3.835   6.359  10.613  0.1167  0.2873 -0.0074
  151SAPE  H11A16699   3.736   6.325  10.577 -0.0061  3.6069 -3.4701
  151SAPE  H11B16700   3.909   6.304  10.551  0.2457  1.3439 -0.8266
  151SAPE     P16701   3.906   6.551  10.455  0.2912  0.5460  0.1298
  151SAPE   O1316702   4.044   6.588  10.478 -0.6544  0.1514  0.4036
  151SAPE   O1416703   3.873   6.451  10.350  0.0439 -0.0116 -0.9064
  151SAPE   O1216704   3.837   6.502  10.586  0.2778  0.4792 -0.7128
  151SAPE   O1116705   3.825   6.679  10.427 -0.0563  0.0295  0.3754
  151SAPE    C116706   3.873   6.773  10.322  0.2501 -0.1444  0.9554
  151SAPE    HA16707   3.861   6.880  10.348  2.2237  0.5687 -0.8064
  151SAPE    HB16708   3.983   6.770  10.309 -0.0431 -0.9222 -2.3039
  151SAPE    C216709   3.798   6.755  10.187 -0.2686 -0.6440  0.6513
  151SAPE    HS16710   3.729   6.842  10.177 -0.5530 -0.7275  1.7336
  151SAPE   O2116711   3.727   6.632  10.165 -0.4749 -0.4972  0.3124
  151SAPE   C2116712   3.616   6.628  10.240 -0.5569  0.2970  0.2969
  151SAPE   O2216713   3.565   6.711  10.312  0.3908 -0.0798 -0.0392
  151SAPE   C2216714   3.570   6.486  10.227 -0.9562 -0.3090 -0.3806
  151SAPE   H2R16715   3.643   6.431  10.164 -0.7913  0.3009 -0.7289
  151SAPE   H2S16716   3.566   6.447  10.331  0.9120  3.1135  1.1410
  151SAPE    C316717   3.907   6.773  10.070 -0.0780  0.0244 -0.3892
  151SAPE    HX16718   3.956   6.673  10.069 -1.0035 -0.5337  2.3241
  151SAPE    HY16719   3.978   6.846  10.116 -0.7836  0.9311 -0.6948
  151SAPE   O3116720   3.849   6.825   9.942 -0.1044 -0.6810 -0.6758
  151SAPE   C3116721   3.885   6.758   9.837  0.2060 -0.5301  0.8823
  151SAPE   O3216722   3.953   6.658   9.833 -0.4069 -0.0553 -0.3084
  151SAPE   C3216723   3.828   6.831   9.706  0.8721 -0.1266 -0.2797
  151SAPE   H2X16724   3.883   6.927   9.693 -0.9466  0.9963  0.0292
  151SAPE   H2Y16725   3.725   6.863   9.729  1.2415  1.3613 -0.5854
  151SAPE   C2316726   3.426   6.487  10.169  0.8392 -0.4805  0.4595
  151SAPE   H3R16727   3.432   6.549  10.077  1.9554  1.9984  2.0861
  151SAPE   H3S16728   3.354   6.538  10.236 -0.1157  0.2962 -1.1088
  151SAPE   C2416729   3.372   6.348  10.142  0.3618 -0.1635  0.5412
  151SAPE   H4R16730   3.280   6.362  10.080 -1.2017  3.9676  3.3291
  151SAPE   H4S16731   3.337   6.296  10.234 -1.0973 -3.1716 -1.5500
  151SAPE   C2516732   3.472   6.264  10.078 -0.0784  0.5351  0.0205
  151SAPE   H5R16733   3.534   6.211  10.152 -0.3935  0.7448  0.4380
  151SAPE   C2616734   3.494   6.244   9.944  0.4191  0.6400 -0.6041
  151SAPE   H6R16735   3.585   6.184   9.931 -0.3311 -0.6725 -0.0023
  151SAPE   C2716736   3.410   6.303   9.833  0.0012 -0.2046 -0.5901
  151SAPE   H7R16737   3.407   6.414   9.845 -0.5818 -0.2432 -0.3882
  151SAPE   H7S16738   3.315   6.246   9.834 -0.2244  0.1740 -0.0970
  151SAPE   C2816739   3.478   6.296   9.700  0.1358  0.5076  0.0910
  151SAPE   H8R16740   3.574   6.349   9.697 -1.1037  2.9514  0.9029
  151SAPE   C2916741   3.434   6.249   9.584  0.2929 -0.1231  0.0227
  151SAPE   H9R16742   3.504   6.229   9.502  0.5019 -0.8836  0.3845
  151SAPE  C21016743   3.298   6.191   9.547 -0.4010 -0.1163  0.1778
  151SAPE  H10R16744   3.222   6.225   9.620  0.3276  2.3763 -0.1300
  151SAPE  H10S16745   3.299   6.080   9.533  1.2250 -0.4409  2.4023
  151SAPE  C21116746   3.280   6.257   9.411  0.4572 -0.1646 -0.0048
  151SAPE  H11R16747   3.270   6.367   9.408 -0.9126 -0.2685  0.1117
  151SAPE  C21216748   3.276   6.192   9.291 -0.0247  0.0069 -0.2377
  151SAPE  H12R16749   3.276   6.262   9.206  0.8154  0.8345  0.4134
  151SAPE  C21316750   3.279   6.047   9.239  0.8344 -0.5987  0.2974
  151SAPE  H13R16751   3.367   5.990   9.274  1.6699  1.4563  1.7170
  151SAPE  H13S16752   3.283   6.060   9.128 -0.9868  1.0179  0.3636
  151SAPE  C21416753   3.159   5.965   9.287 -0.4750  0.3544 -0.7905
  151SAPE  H14R16754   3.118   6.011   9.378 -0.4967 -0.1351 -0.5493
  151SAPE  C21516755   3.116   5.846   9.247  0.3181  0.0395 -0.5373
  151SAPE  H15R16756   3.032   5.793   9.293  1.8851 -1.2053  1.0377
  151SAPE  C21616757   3.183   5.768   9.143 -0.5927 -1.3772  0.1257
  151SAPE  H16R16758   3.197   5.665   9.180 -0.5163 -1.9725 -1.4855
  151SAPE  H16S16759   3.280   5.817   9.121 -0.3709 -1.4700  0.8802
  151SAPE  C21716760   3.095   5.747   9.016  0.5556 -0.3111  0.3311
  151SAPE  H17R16761   3.081   5.848   8.971  0.9685 -0.8410 -1.0334
  151SAPE  H17S16762   3.002   5.706   9.062  1.1755 -0.9844  1.0014
  151SAPE  C21816763   3.151   5.647   8.917  0.5405 -0.0062  0.1477
  151SAPE  H18R16764   3.190   5.556   8.966 -0.8738 -1.7636 -1.8226
  151SAPE  H18S16765   3.235   5.691   8.858 -1.0899  0.3337 -2.0728
  151SAPE  C21916766   3.046   5.607   8.812 -0.1923 -0.8557 -0.0788
  151SAPE  H19R16767   2.959   5.560   8.863 -1.4654  0.8425 -0.5969
  151SAPE  H19S16768   3.090   5.521   8.756 -0.5591 -0.1821 -1.4213
  151SAPE  C22016769   2.995   5.718   8.731 -0.3475  0.1198  0.0993
  151SAPE  H20R16770   3.084   5.781   8.711  0.3334 -0.9461 -0.2925
  151SAPE  H20S16771   2.908   5.774   8.773 -0.7561 -0.0728 -0.4755
  151SAPE  H20T16772   2.959   5.678   8.634 -2.3245  0.1487  0.7728
  151SAPE   C3316773   3.817   6.746   9.578 -0.1053  0.3331 -0.7228
  151SAPE   H3X16774   3.747   6.662   9.596  1.1621 -1.2240 -2.5305
  151SAPE   H3Y16775   3.909   6.689   9.551 -1.0318 -1.3241 -0.5131
  151SAPE   C3416776   3.764   6.824   9.458 -0.0035  0.4265  1.0307
  151SAPE   H4X16777   3.833   6.907   9.430  2.6182 -1.2193  2.2892
  151SAPE   H4Y16778   3.663   6.866   9.479 -0.6462  0.1525 -1.2360
  151SAPE   C3516779   3.756   6.737   9.328  0.1554  0.0151  0.0807
  151SAPE   H5X16780   3.687   6.652   9.344 -0.1984  0.6078  2.0341
  151SAPE   H5Y16781   3.857   6.692   9.316 -1.0482 -3.0099  0.5905
  151SAPE   C3616782   3.716   6.820   9.201 -0.3036  0.0209  0.2152
  151SAPE   H6X16783   3.799   6.892   9.185  1.5694 -1.6264  1.9969
  151SAPE   H6Y16784   3.623   6.876   9.227 -0.0194 -0.3101  2.0785
  151SAPE   C3716785   3.700   6.741   9.070  0.0674 -0.3918 -0.3905
  151SAPE   H7X16786   3.613   6.673   9.083  1.0222 -1.4752  0.5898
  151SAPE   H7Y16787   3.791   6.678   9.057  0.1715 -0.4251  0.4582
  151SAPE   C3816788   3.677   6.837   8.956  0.7667  0.3451  0.2282
  151SAPE   H8X16789   3.774   6.891   8.943  0.4911  0.7172 -0.3011
  151SAPE   H8Y16790   3.608   6.917   8.989  2.6959  3.4821 -2.6324
  151SAPE   C3916791   3.630   6.779   8.817  0.9102 -0.4586 -1.2748
  151SAPE   H9X16792   3.530   6.738   8.841  1.4605 -0.4688  1.3052
  151SAPE   H9Y16793   3.695   6.697   8.778  1.2515 -1.1591  0.6474
  151SAPE  C31016794   3.605   6.879   8.703  0.0683  0.0040  0.3369
  151SAPE  H10X16795   3.703   6.925   8.677  0.0758 -2.1933 -4.5117
  151SAPE  H10Y16796   3.535   6.953   8.748 -0.3604  0.4741 -1.0744
  151SAPE  C31116797   3.556   6.831   8.575 -0.2942  0.2286  0.3740
  151SAPE  H11X16798   3.561   6.915   8.503  0.0506 -2.1702 -2.6346
  151SAPE  H11Y16799   3.447   6.807   8.580 -0.4316  0.4985 -0.8876
  151SAPE  C31216800   3.638   6.706   8.530 -0.1145  0.8000 -0.2059
  151SAPE  H12X16801   3.611   6.616   8.589 -0.6381  1.2859  0.3050
  151SAPE  H12Y16802   3.744   6.725   8.557  0.1938 -1.1857  0.0635
  151SAPE  C31316803   3.612   6.676   8.375 -0.6283 -0.0708 -0.3113
  151SAPE  H13X16804   3.639   6.768   8.318 -0.4464 -0.2010 -0.4351
  151SAPE  H13Y16805   3.504   6.656   8.357 -0.8132  1.2908 -0.8065
  151SAPE  C31416806   3.702   6.553   8.327 -0.1175 -0.4313  0.1786
  151SAPE  H14X16807   3.672   6.457   8.375  0.5794 -0.3466  0.8107
  151SAPE  H14Y16808   3.804   6.570   8.369 -0.6672  2.1217  0.6210
  151SAPE  C31516809   3.711   6.528   8.174 -0.8450 -0.4018 -0.8257
  151SAPE  H15X16810   3.743   6.619   8.120 -2.0777  2.3094  2.6008
  151SAPE  H15Y16811   3.605   6.502   8.151 -1.2813 -1.0720  1.5906
  151SAPE  C31616812   3.794   6.407   8.142 -0.2732 -0.2840  0.0587
  151SAPE  H16X16813   3.765   6.371   8.041 -2.1732 -3.2227  1.5010
  151SAPE  H16Y16814   3.756   6.324   8.205 -1.7653 -0.7074 -1.3347
  151SAPE  C31716815   3.943   6.428   8.148 -0.5635 -0.2435 -0.5496
  151SAPE  H17X16816   3.968   6.442   8.255 -0.0078 -0.2613 -0.6748
  151SAPE  H17Y16817   3.984   6.522   8.106  0.4906  1.0581  3.0028
  151SAPE  C31816818   4.020   6.308   8.090  0.1892  0.0180 -0.5342
  151SAPE  H18X16819   4.016   6.307   7.979 -0.7764  0.0337 -0.5061
  151SAPE  H18Y16820   3.977   6.218   8.136 -0.6236  0.1123 -1.0946
  151SAPE  H18Z16821   4.128   6.312   8.116  0.1030 -0.4641 -0.0886
  152SAPE     N16822   3.629   0.041  10.562  0.0916 -0.4269  0.6874
  152SAPE   HN116823   3.542   0.004  10.604 -0.6422 -1.5221 -1.5955
  152SAPE   HN216824   3.604   0.132  10.519  1.1881 -0.8707 -0.9973
  152SAPE   HN316825   3.651  -0.024  10.483  0.9815  1.9743 -1.1656
  152SAPE   C1216826   3.742   0.052  10.663 -0.2433  0.8101 -0.0890
  152SAPE  H12A16827   3.840   0.053  10.610  0.4280  0.8111  1.1089
  152SAPE  H12B16828   3.743  -0.046  10.716  0.3004  2.2731  2.8529
  152SAPE   C1116829   3.737   0.173  10.758 -0.1338  0.2206  0.5542
  152SAPE  H11A16830   3.832   0.190  10.813  0.4980  1.5637 -0.8453
  152SAPE  H11B16831   3.649   0.163  10.825 -0.3943  4.0240  1.0191
  152SAPE     P16832   3.759   0.431  10.725  0.3547  0.2845 -0.3968
  152SAPE   O1316833   3.651   0.530  10.688  0.4966  0.2014 -0.4880
  152SAPE   O1416834   3.815   0.445  10.859 -0.2211 -0.0220  0.0182
  152SAPE   O1216835   3.712   0.289  10.680  0.1451  0.0674 -0.0292
  152SAPE   O1116836   3.884   0.434  10.635 -0.5818  0.2033  0.2860
  152SAPE    C116837   3.947   0.550  10.577 -0.1235  0.2232  0.3682
  152SAPE    HA16838   3.867   0.615  10.535  0.5757  2.1223  1.8645
  152SAPE    HB16839   3.996   0.612  10.654  0.0312 -0.3921  0.7741
  152SAPE    C216840   4.055   0.515  10.470 -0.2350 -0.1730  0.1618
  152SAPE    HS16841   4.141   0.475  10.529  0.4143 -0.7575 -1.1467
  152SAPE   O2116842   4.089   0.632  10.392  0.0239  0.2700  0.6054
  152SAPE   C2116843   4.219   0.657  10.384  0.3215 -0.5136  0.4096
  152SAPE   O2216844   4.305   0.592  10.432 -1.0861 -0.2732  0.4262
  152SAPE   C2216845   4.235   0.786  10.301  0.1253 -0.0421 -0.6178
  152SAPE   H2R16846   4.181   0.768  10.206 -1.3104  1.2430 -0.0762
  152SAPE   H2S16847   4.180   0.867  10.354  0.4161  0.4076 -1.0049
  152SAPE    C316848   3.999   0.393  10.389 -0.1555  0.0056 -0.0592
  152SAPE    HX16849   3.901   0.420  10.346 -0.8170 -1.9854  0.0988
  152SAPE    HY16850   3.988   0.305  10.456  1.7285  0.8268  1.4380
  152SAPE   O3116851   4.075   0.358  10.276  0.0209 -0.8128 -0.0696
  152SAPE   C3116852   4.178   0.275  10.300  0.1387 -0.0596 -0.3603
  152SAPE   O3216853   4.215   0.230  10.408  0.8555  0.0924  0.1941
  152SAPE   C3216854   4.226   0.223  10.162 -0.7299 -0.2804 -0.0506
  152SAPE   H2X16855   4.218   0.114  10.178 -0.7018 -0.0890  1.4155
  152SAPE   H2Y16856   4.334   0.250  10.162 -1.0735  1.2574  0.9598
  152SAPE   C2316857   4.387   0.809  10.276  0.3811 -0.6463  1.0495
  152SAPE   H3R16858   4.436   0.713  10.252 -1.2056 -1.4243  0.8342
  152SAPE   H3S16859   4.429   0.820  10.379  2.0400 -1.4424  0.4870
  152SAPE   C2416860   4.429   0.924  10.187  0.5115  1.2118  0.0078
  152SAPE   H4R16861   4.539   0.937  10.197  1.3238 -2.1166 -2.8541
  152SAPE   H4S16862   4.374   1.012  10.226  0.8046  0.8214  1.3481
  152SAPE   C2516863   4.407   0.903  10.036  0.6397  0.3077  0.2786
  152SAPE   H5R16864   4.489   0.850   9.985 -0.8495  0.8829 -2.9947
  152SAPE   C2616865   4.299   0.939   9.965 -0.3268  0.2639  0.0594
  152SAPE   H6R16866   4.286   0.912   9.859 -0.1594 -1.7824  0.5282
  152SAPE   C2716867   4.178   1.012  10.014 -0.2947  0.0323  0.0107
  152SAPE   H7R16868   4.194   1.027  10.123 -0.9755 -1.4350  0.3336
  152SAPE   H7S16869   4.085   0.952  10.021  0.2972 -0.9781 -0.4330
  152SAPE   C2816870   4.142   1.140   9.957 -0.0210  0.1703  0.1618
  152SAPE   H8R16871   4.175   1.227  10.016 -0.2879 -0.2730  0.9667
  152SAPE   C2916872   4.097   1.160   9.834  0.3444  1.1969  0.3947
  152SAPE   H9R16873   4.097   1.265   9.801  0.0315  0.9511 -0.4094
  152SAPE  C21016874   4.057   1.055   9.730 -0.5292  0.7635 -0.3728
  152SAPE  H10R16875   3.976   1.093   9.664 -2.9278  0.7323  2.3330
  152SAPE  H10S16876   4.015   0.962   9.774 -1.1375 -0.2126 -2.8451
  152SAPE  C21116877   4.184   1.025   9.661 -0.9240 -1.3576  0.0091
  152SAPE  H11R16878   4.280   1.061   9.701 -1.0405 -0.9018 -0.1083
  152SAPE  C21216879   4.194   0.963   9.540 -0.0970 -0.0814 -0.1751
  152SAPE  H12R16880   4.292   0.935   9.498 -0.1467  2.1915 -2.0265
  152SAPE  C21316881   4.074   0.908   9.457  0.0086 -0.1623 -0.3029
  152SAPE  H13R16882   4.006   0.851   9.524  0.9474  0.7813  1.5374
  152SAPE  H13S16883   4.120   0.836   9.386  4.3032  0.7035  1.2478
  152SAPE  C21416884   3.982   1.006   9.391  1.0122 -0.0704  0.1392
  152SAPE  H14R16885   3.980   1.103   9.443 -2.4853  0.3181 -0.4879
  152SAPE  C21516886   3.905   0.988   9.284 -0.5025  0.1337 -0.2683
  152SAPE  H15R16887   3.854   1.078   9.247  1.4967  0.8103 -1.5723
  152SAPE  C21616888   3.890   0.871   9.199  0.0924 -0.8306 -0.4730
  152SAPE  H16R16889   3.783   0.844   9.182 -0.5124 -0.4932  2.3689
  152SAPE  H16S16890   3.935   0.778   9.241  0.2152 -0.6503 -0.2057
  152SAPE  C21716891   3.949   0.906   9.058 -0.3904  0.0603  0.6332
  152SAPE  H17R16892   4.057   0.926   9.072 -0.6838  0.0497  3.3617
  152SAPE  H17S16893   3.905   0.994   9.005  1.6604 -0.7795 -2.8198
  152SAPE  C21816894   3.942   0.787   8.959 -0.0524 -0.3108 -0.0639
  152SAPE  H18R16895   3.838   0.756   8.937  0.0570 -1.4848  0.9717
  152SAPE  H18S16896   3.983   0.690   8.993 -1.0695 -1.0616 -0.9364
  152SAPE  C21916897   4.036   0.813   8.835 -0.0830 -0.4134  0.0802
  152SAPE  H19R16898   4.016   0.910   8.784 -0.4317 -1.0860 -1.1107
  152SAPE  H19S16899   4.022   0.730   8.763  0.9533 -0.2096 -0.3905
  152SAPE  C22016900   4.182   0.816   8.872 -0.0282 -0.1129 -0.3181
  152SAPE  H20R16901   4.216   0.718   8.912  0.0963 -0.5246 -1.4029
  152SAPE  H20S16902   4.207   0.890   8.951 -0.8435  0.7442 -0.8532
  152SAPE  H20T16903   4.243   0.844   8.784  1.1289 -1.7237 -0.0788
  152SAPE   C3316904   4.154   0.261  10.032  0.1066  0.3100 -0.0673
  152SAPE   H3X16905   4.190   0.366  10.020 -2.6821  2.2271  5.1480
  152SAPE   H3Y16906   4.045   0.253  10.048  0.2862 -0.2214  0.9780
  152SAPE   C3416907   4.215   0.169   9.925  0.8066 -0.3884  0.6576
  152SAPE   H4X16908   4.165   0.070   9.925  2.4379 -1.3005 -1.6692
  152SAPE   H4Y16909   4.325   0.165   9.939  1.0430  2.1982  0.0107
  152SAPE   C3516910   4.201   0.225   9.777  0.1088  0.1473  0.3769
  152SAPE   H5X16911   4.274   0.309   9.770  0.8439 -0.3603  1.6340
  152SAPE   H5Y16912   4.097   0.265   9.771 -0.0950 -0.2048  1.3251
  152SAPE   C3616913   4.223   0.117   9.671 -0.5519  0.1307  0.1860
  152SAPE   H6X16914   4.191   0.014   9.699  2.0064 -1.1669 -1.3185
  152SAPE   H6Y16915   4.332   0.104   9.656 -0.7604 -1.1350 -0.4075
  152SAPE   C3716916   4.156   0.160   9.537  0.3347  0.3738 -0.5151
  152SAPE   H7X16917   4.198   0.255   9.496 -0.7929  0.4748 -1.4598
  152SAPE   H7Y16918   4.047   0.170   9.556  0.2312 -2.1129  0.5747
  152SAPE   C3816919   4.184   0.046   9.434  0.5474 -0.7443  0.7536
  152SAPE   H8X16920   4.131  -0.048   9.462  0.5379 -0.6723  0.9807
  152SAPE   H8Y16921   4.292   0.024   9.440  0.7722  0.1928  0.2579
  152SAPE   C3916922   4.143   0.081   9.285  0.9759 -0.1943  0.3312
  152SAPE   H9X16923   4.198   0.170   9.248  0.4100  0.4186  0.9600
  152SAPE   H9Y16924   4.035   0.104   9.290  0.5362 -2.2964  1.5534
  152SAPE  C31016925   4.160  -0.038   9.191 -0.1757 -0.0932  0.2524
  152SAPE  H10X16926   4.128  -0.132   9.240  2.7334 -1.1376  0.3291
  152SAPE  H10Y16927   4.266  -0.051   9.163  0.2655  4.1308 -0.7507
  152SAPE  C31116928   4.079  -0.008   9.067 -0.4339  0.4813  0.1060
  152SAPE  H11X16929   4.113   0.093   9.038  0.6875 -0.5069 -2.2829
  152SAPE  H11Y16930   3.970  -0.003   9.091  0.0394 -0.5995  2.9018
  152SAPE  C31216931   4.116  -0.105   8.954 -0.3612  0.3837  0.5472
  152SAPE  H12X16932   4.075  -0.207   8.966 -0.7732  0.5872  0.9182
  152SAPE  H12Y16933   4.227  -0.110   8.948 -0.2843  1.9281  0.2232
  152SAPE  C31316934   4.056  -0.064   8.814 -0.1338  0.6105 -0.9765
  152SAPE  H13X16935   4.115   0.023   8.777 -0.9742  1.5642 -0.1162
  152SAPE  H13Y16936   3.952  -0.032   8.833  0.0912  0.0292  1.4584
  152SAPE  C31416937   4.045  -0.175   8.709  0.5741  0.1452 -0.4204
  152SAPE  H14X16938   3.983  -0.150   8.620 -2.0248 -0.3229  1.1523
  152SAPE  H14Y16939   3.991  -0.256   8.762  0.5663  0.0670 -0.5474
  152SAPE  C31516940   4.177  -0.238   8.678  0.3730  0.0084 -0.1247
  152SAPE  H15X16941   4.222  -0.269   8.774  2.7705  0.3579 -1.0676
  152SAPE  H15Y16942   4.241  -0.166   8.622 -1.2475  0.7715 -1.0875
  152SAPE  C31616943   4.163  -0.356   8.578  0.1526  0.1325  0.4229
  152SAPE  H16X16944   4.100  -0.316   8.496  1.5408 -0.8584 -1.1743
  152SAPE  H16Y16945   4.104  -0.441   8.619 -1.2390  0.1021 -1.5002
  152SAPE  C31716946   4.295  -0.409   8.514 -0.2827 -0.6132  0.7127
  152SAPE  H17X16947   4.359  -0.475   8.577  1.9405 -1.0418 -1.8038
  152SAPE  H17Y16948   4.359  -0.321   8.490  1.6780 -1.6791  1.7566
  152SAPE  C31816949   4.271  -0.494   8.391  0.4592 -0.2283  0.1033
  152SAPE  H18X16950   4.207  -0.581   8.416 -0.4516 -0.0883 -1.5925
  152SAPE  H18Y16951   4.366  -0.524   8.342  1.1283  1.7378  0.0989
  152SAPE  H18Z16952   4.212  -0.431   8.321  1.3694  2.5048  1.6155
  153SAPE     N16953   4.724   1.517  11.281  1.0135  0.1109  0.5528
  153SAPE   HN116954   4.743   1.431  11.225 -0.4086  0.5286 -0.6171
  153SAPE   HN216955   4.713   1.485  11.380  0.0605  1.0116  0.7535
  153SAPE   HN316956   4.628   1.541  11.251  0.2111 -1.4291  1.7320
  153SAPE   C1216957   4.820   1.626  11.239  0.1006  0.0382  0.3054
  153SAPE  H12A16958   4.912   1.603  11.298  1.4103 -1.7681 -2.2885
  153SAPE  H12B16959   4.785   1.727  11.272 -0.9731 -0.4140  0.5921
  153SAPE   C1116960   4.842   1.624  11.087  0.0861 -0.2611 -0.1237
  153SAPE  H11A16961   4.923   1.697  11.068  0.9055 -0.7364  1.4223
  153SAPE  H11B16962   4.747   1.651  11.034  0.4522  3.2801  0.7626
  153SAPE     P16963   4.889   1.439  10.922 -0.1091  0.4786  0.2768
  153SAPE   O1316964   5.031   1.447  10.880 -0.3337  0.3126  0.0769
  153SAPE   O1416965   4.843   1.299  10.917  0.0033 -0.2311  0.1263
  153SAPE   O1216966   4.887   1.491  11.068  0.0333 -0.9891 -1.0752
  153SAPE   O1116967   4.807   1.537  10.818  0.0696  0.0159  0.0303
  153SAPE    C116968   4.672   1.526  10.796  0.3609  0.7969 -0.6271
  153SAPE    HA16969   4.618   1.491  10.887 -1.0243 -1.3948 -2.1761
  153SAPE    HB16970   4.630   1.626  10.771 -2.5724 -0.7004 -2.2714
  153SAPE    C216971   4.633   1.418  10.698 -0.2380  0.5624 -0.1937
  153SAPE    HS16972   4.633   1.321  10.753 -0.6308 -0.2249 -1.5371
  153SAPE   O2116973   4.721   1.412  10.582 -0.2650  0.1330  0.4336
  153SAPE   C2116974   4.752   1.286  10.545  0.4614 -0.1375 -0.6264
  153SAPE   O2216975   4.719   1.187  10.603 -0.1293  0.3889 -0.0975
  153SAPE   C2216976   4.825   1.289  10.407  0.3045  0.1960 -0.3206
  153SAPE   H2R16977   4.828   1.392  10.365  0.0426  0.3912  0.1359
  153SAPE   H2S16978   4.928   1.256  10.430  0.4776 -0.2450 -1.6146
  153SAPE    C316979   4.496   1.447  10.644  0.6346  0.5767  0.1174
  153SAPE    HX16980   4.504   1.547  10.595  1.2582  1.0395  1.1355
  153SAPE    HY16981   4.421   1.457  10.725 -2.0281  0.3997 -2.1385
  153SAPE   O3116982   4.456   1.350  10.540  0.1805 -0.2392 -0.6858
  153SAPE   C3116983   4.401   1.245  10.588  0.3053  0.6437  0.3919
  153SAPE   O3216984   4.410   1.203  10.703 -0.8140  0.0122  0.2089
  153SAPE   C3216985   4.325   1.157  10.479 -0.1114 -0.2261  0.2766
  153SAPE   H2X16986   4.279   1.069  10.529 -0.7083  0.0134  0.1488
  153SAPE   H2Y16987   4.410   1.136  10.410  0.1188  1.9948 -0.1904
  153SAPE   C2316988   4.761   1.184  10.310  0.1809 -0.5906  0.0042
  153SAPE   H3R16989   4.666   1.219  10.266  0.9735  0.9463 -0.5599
  153SAPE   H3S16990   4.735   1.093  10.369  0.6549  0.8299  2.5769
  153SAPE   C2416991   4.851   1.139  10.190 -0.1400 -0.2255 -0.3858
  153SAPE   H4R16992   4.959   1.152  10.210  0.2196  2.1746 -3.2200
  153SAPE   H4S16993   4.832   1.212  10.108 -1.5179 -0.1043  0.0071
  153SAPE   C2516994   4.816   0.996  10.143  0.3676 -0.0589  0.6987
  153SAPE   H5R16995   4.812   0.916  10.219 -3.5821 -0.1041  0.6706
  153SAPE   C2616996   4.780   0.949  10.019 -0.1105 -0.0282 -0.1763
  153SAPE   H6R16997   4.758   0.842  10.005 -3.4948  0.7383 -1.9054
  153SAPE   C2716998   4.762   1.026   9.896  0.3133  0.1474  0.1240
  153SAPE   H7R16999   4.785   0.955   9.813  1.9963  0.8333 -0.0378
  153SAPE   H7S17000   4.845   1.099   9.891  1.8357 -1.4693  0.6200
  153SAPE   C2817001   4.640   1.100   9.848  0.2764 -0.7422 -0.1592
  153SAPE   H8R17002   4.581   1.128   9.936 -1.0552 -1.6037 -0.7532
  153SAPE   C2917003   4.593   1.107   9.723  0.6301  0.6256  0.5249
  153SAPE   H9R17004   4.491   1.149   9.713  0.7032  0.3859 -2.0431
  153SAPE  C21017005   4.670   1.065   9.602  0.0944 -0.2179  0.1688
  153SAPE  H10R17006   4.765   1.011   9.624 -1.2811 -2.4314  1.0468
  153SAPE  H10S17007   4.688   1.153   9.537 -1.4487 -0.6450 -0.8761
  153SAPE  C21117008   4.590   0.958   9.522  0.1295 -0.7269  0.3882
  153SAPE  H11R17009   4.576   0.865   9.579 -0.5421 -1.0846 -0.3508
  153SAPE  C21217010   4.550   0.969   9.388 -0.1035 -0.4153 -0.8069
  153SAPE  H12R17011   4.492   0.886   9.344 -0.6627  0.5172 -1.8824
  153SAPE  C21317012   4.561   1.083   9.292 -0.1216 -0.8589  0.1864
  153SAPE  H13R17013   4.646   1.057   9.225  2.3958 -1.7006  3.4079
  153SAPE  H13S17014   4.587   1.179   9.340  0.0266  0.4840 -2.4595
  153SAPE  C21417015   4.427   1.103   9.221  1.0005  0.4277  0.0705
  153SAPE  H14R17016   4.341   1.099   9.290  1.0560 -2.1728  0.1031
  153SAPE  C21517017   4.410   1.100   9.086  0.6403  0.6393 -0.2732
  153SAPE  H15R17018   4.307   1.099   9.048 -0.5722 -0.2451  2.7183
  153SAPE  C21617019   4.511   1.097   8.966 -0.0418 -0.2194 -0.5752
  153SAPE  H16R17020   4.494   1.014   8.894 -1.9837  1.4210 -2.1482
  153SAPE  H16S17021   4.611   1.078   9.011 -0.5704 -0.3835  0.5659
  153SAPE  C21717022   4.519   1.234   8.909 -0.6630 -0.6724  0.0467
  153SAPE  H17R17023   4.518   1.313   8.986 -1.6386 -1.6342  1.0621
  153SAPE  H17S17024   4.427   1.259   8.851 -0.9395  1.1776  1.2034
  153SAPE  C21817025   4.644   1.249   8.827  0.3406  0.0716 -0.5472
  153SAPE  H18R17026   4.653   1.185   8.736 -0.2679  0.3857 -0.8298
  153SAPE  H18S17027   4.738   1.236   8.885 -0.3484 -0.6638  0.4306
  153SAPE  C21917028   4.640   1.393   8.773 -0.0967  0.1637 -0.3495
  153SAPE  H19R17029   4.661   1.471   8.850  2.8333 -0.6883 -0.1704
  153SAPE  H19S17030   4.543   1.404   8.721 -1.2112 -2.8040  0.9404
  153SAPE  C22017031   4.745   1.413   8.664 -0.3137  0.1144 -0.0612
  153SAPE  H20R17032   4.735   1.516   8.624 -2.1960 -0.4249 -1.0795
  153SAPE  H20S17033   4.719   1.356   8.573  1.6132  2.1172 -2.0107
  153SAPE  H20T17034   4.853   1.404   8.691 -1.1870 -2.3631  3.3663
  153SAPE   C3317035   4.226   1.247  10.401  0.4590  0.4450  0.1251
  153SAPE   H3X17036   4.187   1.199  10.310 -1.6377  0.1190  1.1228
  153SAPE   H3Y17037   4.275   1.339  10.362 -0.2546  0.4391 -0.8149
  153SAPE   C3417038   4.116   1.304  10.485  0.5298 -0.0012  0.0809
  153SAPE   H4X17039   4.150   1.382  10.556  2.5026  0.6737 -1.5274
  153SAPE   H4Y17040   4.081   1.216  10.544  2.2137  0.8754  2.5644
  153SAPE   C3517041   4.006   1.362  10.390 -0.4123  0.7515 -0.1044
  153SAPE   H5X17042   3.920   1.376  10.460 -0.3875 -0.3999  0.1799
  153SAPE   H5Y17043   3.983   1.282  10.317  1.7154 -0.3593  0.3811
  153SAPE   C3617044   4.034   1.507  10.329  0.3402  0.4983  0.1428
  153SAPE   H6X17045   4.135   1.502  10.283 -0.4032 -1.8769 -1.4412
  153SAPE   H6Y17046   4.042   1.575  10.416  2.2198 -1.8846  1.9689
  153SAPE   C3717047   3.930   1.552  10.215 -0.0211 -0.9358 -0.2789
  153SAPE   H7X17048   3.936   1.660  10.192 -0.2360 -0.6175  1.0834
  153SAPE   H7Y17049   3.823   1.545  10.245 -0.1498  0.2605 -0.4230
  153SAPE   C3817050   3.938   1.470  10.087  0.0190 -0.0914 -0.3304
  153SAPE   H8X17051   3.933   1.364  10.123  2.4038  0.4973  2.0690
  153SAPE   H8Y17052   4.039   1.489  10.045 -0.1964  1.1194 -0.3135
  153SAPE   C3917053   3.830   1.507   9.992  0.1966 -0.3603 -0.0439
  153SAPE   H9X17054   3.833   1.612   9.957 -0.5951 -0.5093 -0.5844
  153SAPE   H9Y17055   3.730   1.483  10.034 -0.8507  2.1772 -0.8762
  153SAPE  C31017056   3.853   1.434   9.865  0.2597  0.1682 -0.0260
  153SAPE  H10X17057   3.858   1.324   9.883  0.1468 -0.6166 -3.9607
  153SAPE  H10Y17058   3.943   1.488   9.828 -0.1799  1.2584  0.4556
  153SAPE  C31117059   3.740   1.439   9.764 -0.0079 -0.2348 -0.7735
  153SAPE  H11X17060   3.701   1.542   9.752  2.2147  0.6694 -0.5891
  153SAPE  H11Y17061   3.656   1.380   9.808  0.2698 -1.0038 -1.2452
  153SAPE  C31217062   3.775   1.394   9.620  0.0566 -0.3251 -0.0321
  153SAPE  H12X17063   3.681   1.379   9.564 -1.6065  1.9620  1.9506
  153SAPE  H12Y17064   3.835   1.302   9.633  0.7688 -0.1121 -1.4929
  153SAPE  C31317065   3.853   1.504   9.546 -0.0867  0.3446  0.6530
  153SAPE  H13X17066   3.956   1.516   9.586  0.7199  1.3460 -1.5538
  153SAPE  H13Y17067   3.790   1.595   9.555 -0.2917  0.5288 -1.8757
  153SAPE  C31417068   3.858   1.476   9.390  0.5239 -0.4601 -0.0218
  153SAPE  H14X17069   3.873   1.572   9.337  0.2870 -0.6350 -0.4151
  153SAPE  H14Y17070   3.763   1.429   9.355  1.7404 -2.4329 -0.8559
  153SAPE  C31517071   3.966   1.380   9.343 -0.6335 -0.4452  0.4103
  153SAPE  H15X17072   3.968   1.291   9.409  0.3298 -1.0096 -0.3505
  153SAPE  H15Y17073   4.063   1.435   9.346 -0.4995 -0.4176 -2.2985
  153SAPE  C31617074   3.933   1.336   9.201  0.0177  0.4664  0.2338
  153SAPE  H16X17075   3.828   1.299   9.192 -1.3987  4.5247 -3.4307
  153SAPE  H16Y17076   4.003   1.258   9.163  1.4746  0.9573  1.7880
  153SAPE  C31717077   3.945   1.443   9.088  0.3781 -0.1215 -1.0623
  153SAPE  H17X17078   4.050   1.478   9.078  1.5735 -3.7311 -2.5088
  153SAPE  H17Y17079   3.879   1.526   9.123  0.7529 -0.5588  0.7765
  153SAPE  C31817080   3.888   1.383   8.965  0.0574  0.7473 -0.1093
  153SAPE  H18X17081   3.865   1.445   8.875 -0.2089 -0.0558 -0.6095
  153SAPE  H18Y17082   3.804   1.318   8.996  0.6605 -0.0875 -0.1848
  153SAPE  H18Z17083   3.956   1.304   8.927 -0.0716  1.2261 -1.3916
  154SAPE     N17084   6.668   1.619  11.154  0.3423 -0.3126  0.1074
  154SAPE   HN117085   6.650   1.657  11.249 -0.6117  1.3163 -0.6761
  154SAPE   HN217086   6.737   1.541  11.147 -1.4273 -2.0620  1.0654
  154SAPE   HN317087   6.704   1.694  11.092  0.1041 -0.6278 -0.4206
  154SAPE   C1217088   6.540   1.579  11.087  0.1063 -0.6791  0.6607
  154SAPE  H12A17089   6.458   1.653  11.105 -0.3545 -1.4708  1.9242
  154SAPE  H12B17090   6.502   1.482  11.125  0.2664 -1.2762 -0.6426
  154SAPE   C1117091   6.557   1.559  10.938 -0.2679 -0.2152 -0.1535
  154SAPE  H11A17092   6.456   1.527  10.905  0.2555 -0.9669 -1.0604
  154SAPE  H11B17093   6.640   1.487  10.925  0.1944 -0.2209  2.3026
  154SAPE     P17094   6.620   1.692  10.724 -0.1134  0.3585  0.4468
  154SAPE   O1317095   6.635   1.835  10.685  0.4011  0.2634  0.5958
  154SAPE   O1417096   6.734   1.594  10.709 -0.8013 -0.2887  0.4138
  154SAPE   O1217097   6.590   1.690  10.882 -0.0126 -0.4409  0.3027
  154SAPE   O1117098   6.480   1.645  10.680 -0.6829  0.5679  0.3588
  154SAPE    C117099   6.378   1.722  10.627 -0.0149 -0.1065 -0.6498
  154SAPE    HA17100   6.364   1.812  10.690  0.3206 -0.0217 -0.6915
  154SAPE    HB17101   6.411   1.762  10.529 -1.4374  3.4848  0.2123
  154SAPE    C217102   6.245   1.643  10.624 -0.8554 -0.0294 -0.1848
  154SAPE    HS17103   6.239   1.570  10.707 -0.2458 -0.0134 -0.1179
  154SAPE   O2117104   6.246   1.580  10.494 -0.2493  0.4115 -0.3750
  154SAPE   C2117105   6.160   1.478  10.474 -0.8979 -0.8351  0.2958
  154SAPE   O2217106   6.081   1.435  10.555  0.0268  0.1008 -0.5607
  154SAPE   C2217107   6.177   1.430  10.325  0.1339 -0.5257 -0.5214
  154SAPE   H2R17108   6.206   1.521  10.268 -2.1219  1.0995  0.7089
  154SAPE   H2S17109   6.274   1.377  10.328 -0.2591 -1.2423  2.3769
  154SAPE    C317110   6.119   1.736  10.637 -0.4204  0.2030 -0.0188
  154SAPE    HX17111   6.129   1.759  10.745  0.8460 -0.7991  0.1000
  154SAPE    HY17112   6.034   1.667  10.618  0.6697 -1.0658 -0.4250
  154SAPE   O3117113   6.132   1.849  10.547 -0.2041 -0.5643 -0.7270
  154SAPE   C3117114   6.073   1.837  10.429 -0.3073 -0.4925 -0.0045
  154SAPE   O3217115   5.985   1.760  10.398 -0.3858  0.2184  0.0705
  154SAPE   C3217116   6.136   1.940  10.331  0.1927  0.3402 -0.5493
  154SAPE   H2X17117   6.246   1.945  10.344  0.2458 -2.4381  0.6505
  154SAPE   H2Y17118   6.095   2.039  10.361 -0.1082 -0.1512  0.7121
  154SAPE   C2317119   6.054   1.359  10.261  0.4713 -0.4901  0.4997
  154SAPE   H3R17120   5.964   1.410  10.301 -1.0006 -3.3176  1.0817
  154SAPE   H3S17121   6.035   1.257  10.302 -1.8789  0.0876  0.9938
  154SAPE   C2417122   6.041   1.362  10.107 -0.0285  0.2836 -0.3247
  154SAPE   H4R17123   5.944   1.315  10.081  0.2731  0.3836 -1.6525
  154SAPE   H4S17124   6.135   1.314  10.075  0.7807  1.9817 -0.5702
  154SAPE   C2517125   6.027   1.508  10.051 -0.0906  0.5605  0.6457
  154SAPE   H5R17126   6.040   1.584  10.129  0.6733 -0.3104  1.3769
  154SAPE   C2617127   5.986   1.535   9.925 -0.5984 -0.3786  1.2362
  154SAPE   H6R17128   5.960   1.637   9.895 -0.5331 -0.4955  0.7820
  154SAPE   C2717129   5.949   1.430   9.818 -0.3870 -0.2905  0.6037
  154SAPE   H7R17130   5.839   1.419   9.810 -0.3952  0.7336 -1.2470
  154SAPE   H7S17131   6.006   1.339   9.847  2.0481  1.3513  1.3864
  154SAPE   C2817132   5.999   1.484   9.683 -0.1568  0.0208  0.1393
  154SAPE   H8R17133   6.102   1.522   9.680 -0.5421  1.2357  1.2834
  154SAPE   C2917134   5.932   1.488   9.564  1.0029 -0.2310 -0.4950
  154SAPE   H9R17135   5.982   1.526   9.473  0.7867  0.6352 -0.2578
  154SAPE  C21017136   5.785   1.461   9.529 -0.6310 -0.2631 -0.0102
  154SAPE  H10R17137   5.734   1.389   9.597 -2.3579  1.7384  0.9063
  154SAPE  H10S17138   5.793   1.408   9.431 -0.2233  0.6807 -0.4982
  154SAPE  C21117139   5.698   1.581   9.516  0.3926  0.4582  0.7485
  154SAPE  H11R17140   5.751   1.676   9.531  1.0518  0.3117 -0.5245
  154SAPE  C21217141   5.564   1.572   9.490  0.9827 -0.1842 -0.1999
  154SAPE  H12R17142   5.511   1.668   9.485  2.3827  0.6445  0.4280
  154SAPE  C21317143   5.485   1.442   9.473  0.1595  0.0577 -0.3078
  154SAPE  H13R17144   5.459   1.415   9.577  1.8529  0.3999  0.2315
  154SAPE  H13S17145   5.545   1.360   9.427 -0.6773 -1.5498  1.3483
  154SAPE  C21417146   5.356   1.464   9.389 -0.3318 -0.2456 -0.1259
  154SAPE  H14R17147   5.268   1.514   9.434 -0.7733  0.3154 -1.5312
  154SAPE  C21517148   5.344   1.450   9.254  0.2472 -0.2967  0.3245
  154SAPE  H15R17149   5.248   1.473   9.205  0.8153 -3.2609 -2.4974
  154SAPE  C21617150   5.439   1.409   9.144  0.4308  0.1823 -0.0128
  154SAPE  H16R17151   5.538   1.382   9.186 -0.7883 -1.0675  2.2647
  154SAPE  H16S17152   5.450   1.499   9.081 -0.7175 -0.2748 -0.8992
  154SAPE  C21717153   5.383   1.300   9.052  0.2047  0.4053 -0.6931
  154SAPE  H17R17154   5.363   1.204   9.104 -2.1995  1.7003  1.0076
  154SAPE  H17S17155   5.470   1.269   8.990  2.2560  0.0571  2.1610
  154SAPE  C21817156   5.256   1.336   8.972  0.3398 -0.5789 -0.3736
  154SAPE  H18R17157   5.274   1.438   8.934 -2.5188  1.6819  3.5114
  154SAPE  H18S17158   5.177   1.362   9.047  0.3450  3.9567 -1.6784
  154SAPE  C21917159   5.206   1.234   8.874  0.6624  0.1858  0.0737
  154SAPE  H19R17160   5.111   1.267   8.827  1.5548  1.9305 -0.5996
  154SAPE  H19S17161   5.178   1.154   8.946  0.9589  0.0750  0.0658
  154SAPE  C22017162   5.308   1.183   8.766  0.4072 -0.0920 -0.6840
  154SAPE  H20R17163   5.259   1.107   8.703  0.2897  1.2358 -2.2785
  154SAPE  H20S17164   5.395   1.137   8.818 -0.7337 -0.0013  1.4097
  154SAPE  H20T17165   5.344   1.266   8.701  0.8580 -1.7411 -2.6461
  154SAPE   C3317166   6.103   1.900  10.185  0.3366 -0.1555  0.5896
  154SAPE   H3X17167   6.123   1.992  10.127 -0.4516 -0.8300 -0.7854
  154SAPE   H3Y17168   5.994   1.884  10.178  0.3258 -0.2274  0.9163
  154SAPE   C3417169   6.188   1.785  10.126  0.6396 -0.2009  0.5301
  154SAPE   H4X17170   6.147   1.757  10.026 -0.3030  0.3721  0.7371
  154SAPE   H4Y17171   6.187   1.708  10.206  2.4077 -1.0514 -0.2266
  154SAPE   C3517172   6.333   1.824  10.110 -1.1064 -0.5091  0.0517
  154SAPE   H5X17173   6.401   1.737  10.103  0.5557  0.8466 -1.5664
  154SAPE   H5Y17174   6.373   1.875  10.200  1.5155 -0.3859 -1.0895
  154SAPE   C3617175   6.359   1.911   9.993  0.3164 -0.2073  0.5140
  154SAPE   H6X17176   6.280   1.990   9.996  1.3041  0.8575 -0.5092
  154SAPE   H6Y17177   6.345   1.861   9.895  0.9446 -0.0755  0.3553
  154SAPE   C3717178   6.500   1.973  10.001 -0.1657  0.1046 -0.5826
  154SAPE   H7X17179   6.565   1.891   9.963  0.2943  0.5024 -0.6627
  154SAPE   H7Y17180   6.527   1.992  10.107  0.4875  0.2252 -0.7676
  154SAPE   C3817181   6.528   2.097   9.917 -0.3147  0.2464 -0.1866
  154SAPE   H8X17182   6.628   2.133   9.949  0.4328 -0.9173 -1.1462
  154SAPE   H8Y17183   6.446   2.171   9.925 -0.9717 -0.2318 -1.9375
  154SAPE   C3917184   6.519   2.065   9.765  0.4295  0.3787  0.7741
  154SAPE   H9X17185   6.536   1.956   9.746  1.5699  0.6918 -0.0871
  154SAPE   H9Y17186   6.595   2.127   9.714  0.7565  2.9703  4.0973
  154SAPE  C31017187   6.379   2.079   9.699 -0.3122  0.2604  0.5179
  154SAPE  H10X17188   6.305   2.101   9.780 -0.1009 -0.4685  0.9231
  154SAPE  H10Y17189   6.353   1.988   9.641 -0.2981 -0.9817  2.3446
  154SAPE  C31117190   6.371   2.194   9.595  0.1442  0.2448 -0.4636
  154SAPE  H11X17191   6.440   2.277   9.624 -0.5011 -0.0094  2.0655
  154SAPE  H11Y17192   6.280   2.258   9.604 -0.0958 -0.1720  0.1356
  154SAPE  C31217193   6.401   2.150   9.456  0.1066  0.9397 -0.6300
  154SAPE  H12X17194   6.329   2.067   9.445  0.7025  0.3880 -0.4051
  154SAPE  H12Y17195   6.504   2.112   9.441  1.1358  3.3239 -0.0880
  154SAPE  C31317196   6.385   2.266   9.362  0.6036  1.1839  0.3679
  154SAPE  H13X17197   6.439   2.353   9.405  0.8918  1.6410 -0.8759
  154SAPE  H13Y17198   6.275   2.280   9.354  0.1411 -1.0128  2.1785
  154SAPE  C31417199   6.438   2.250   9.217 -0.0289 -0.4944 -0.0904
  154SAPE  H14X17200   6.379   2.183   9.150  2.6431 -0.6080 -2.4750
  154SAPE  H14Y17201   6.541   2.211   9.211  1.0693  2.2181 -0.2790
  154SAPE  C31517202   6.435   2.393   9.148  0.5383  0.0755 -0.9195
  154SAPE  H15X17203   6.511   2.466   9.184  0.6427 -0.1833 -0.6093
  154SAPE  H15Y17204   6.346   2.440   9.196  0.5123 -1.5137  0.7018
  154SAPE  C31617205   6.434   2.392   9.000  0.1547 -0.3164  0.6795
  154SAPE  H16X17206   6.368   2.305   8.979  0.8335 -1.4110  2.7973
  154SAPE  H16Y17207   6.534   2.359   8.965  0.2609  0.5529  0.1140
  154SAPE  C31717208   6.404   2.518   8.927  0.1585  0.2941  0.0591
  154SAPE  H17X17209   6.483   2.587   8.962  1.4789 -1.1587  0.0487
  154SAPE  H17Y17210   6.302   2.554   8.954 -1.0244 -1.7555 -1.3891
  154SAPE  C31817211   6.417   2.503   8.777  0.6270 -0.0718  0.1915
  154SAPE  H18X17212   6.499   2.433   8.749  2.3121  2.4301 -1.5137
  154SAPE  H18Y17213   6.426   2.599   8.722  1.6451 -0.9187 -1.2035
  154SAPE  H18Z17214   6.337   2.446   8.725 -0.6587  0.9583  0.9844
  155SAPE     N17215   6.486   2.447  10.834  0.4980 -0.3758  0.4754
  155SAPE   HN117216   6.549   2.452  10.751 -0.1785 -1.2596 -0.1157
  155SAPE   HN217217   6.452   2.349  10.827 -0.1312 -0.0754 -1.4221
  155SAPE   HN317218   6.401   2.504  10.816 -0.3325 -1.4241  0.9770
  155SAPE   C1217219   6.543   2.471  10.971  0.0954 -0.6602 -0.3197
  155SAPE  H12A17220   6.601   2.378  10.987 -0.6517 -1.3276 -1.3574
  155SAPE  H12B17221   6.471   2.485  11.055  2.2722  2.0570  1.2980
  155SAPE   C1117222   6.637   2.589  10.978  0.2359  0.2603 -0.0855
  155SAPE  H11A17223   6.686   2.587  11.078 -1.3348  1.7913  0.7672
  155SAPE  H11B17224   6.575   2.681  10.973 -1.6989 -0.9236  0.6857
  155SAPE     P17225   6.855   2.680  10.881  0.0302  0.1006  0.1363
  155SAPE   O1317226   6.893   2.704  11.020 -0.2285  0.4622 -0.4310
  155SAPE   O1417227   6.967   2.631  10.801  0.3600 -0.3148  0.0469
  155SAPE   O1217228   6.732   2.583  10.870  0.5922  0.0054  0.8255
  155SAPE   O1117229   6.802   2.816  10.829  0.1464 -0.3744  0.3282
  155SAPE    C117230   6.682   2.832  10.754 -0.2555 -0.0431 -0.2957
  155SAPE    HA17231   6.620   2.742  10.739  0.2416 -0.0039 -3.2130
  155SAPE    HB17232   6.619   2.906  10.808 -0.2951  0.5612 -1.1381
  155SAPE    C217233   6.710   2.912  10.621  0.1032 -0.2211  0.0218
  155SAPE    HS17234   6.613   2.942  10.578  0.4731 -0.7343 -1.2411
  155SAPE   O2117235   6.784   2.824  10.526 -0.2138  0.3897 -0.3786
  155SAPE   C2117236   6.699   2.756  10.460  0.5259  0.0153  0.0730
  155SAPE   O2217237   6.577   2.763  10.471 -0.1574 -0.0573 -0.3598
  155SAPE   C2217238   6.768   2.654  10.367 -0.0653 -0.0256 -0.9036
  155SAPE   H2R17239   6.830   2.718  10.301  0.8598  0.2983  0.2438
  155SAPE   H2S17240   6.840   2.587  10.419  0.5639 -0.5891 -2.4415
  155SAPE    C317241   6.790   3.042  10.637 -0.6720 -0.1047  0.8752
  155SAPE    HX17242   6.874   3.022  10.706 -1.6287 -1.2501  1.7525
  155SAPE    HY17243   6.724   3.119  10.682 -0.9555  1.6201 -2.1722
  155SAPE   O3117244   6.824   3.111  10.518 -0.5966  0.0628  0.5029
  155SAPE   C3117245   6.928   3.057  10.448  0.1546  0.1757 -0.0393
  155SAPE   O3217246   7.010   2.979  10.495  0.0827 -0.0829  0.1357
  155SAPE   C3217247   6.940   3.123  10.313 -0.4109  0.3369 -0.7424
  155SAPE   H2X17248   7.041   3.169  10.307 -0.1670 -0.2137 -0.9201
  155SAPE   H2Y17249   6.863   3.202  10.305 -1.4951 -0.5341  0.5959
  155SAPE   C2317250   6.670   2.565  10.283  0.0945  0.2243 -0.7829
  155SAPE   H3R17251   6.580   2.626  10.261 -0.5008  0.0508  0.9460
  155SAPE   H3S17252   6.645   2.475  10.343  0.0324  1.1733  0.6698
  155SAPE   C2417253   6.730   2.503  10.161 -0.0028  0.2669 -0.4923
  155SAPE   H4R17254   6.793   2.419  10.195 -1.8376 -0.6421  0.8305
  155SAPE   H4S17255   6.801   2.571  10.109  1.6208 -1.2334 -0.3106
  155SAPE   C2517256   6.618   2.447  10.070  0.0186 -0.2791  0.4038
  155SAPE   H5R17257   6.555   2.365  10.107 -0.9512 -1.0475 -2.6467
  155SAPE   C2617258   6.602   2.471   9.938 -0.1321 -0.4004  0.1362
  155SAPE   H6R17259   6.515   2.423   9.891  0.5507 -2.4609  0.8858
  155SAPE   C2717260   6.686   2.558   9.850 -0.6396  0.0589 -0.1004
  155SAPE   H7R17261   6.742   2.498   9.775  0.0606  1.6271 -0.8792
  155SAPE   H7S17262   6.765   2.610   9.909 -0.1222  1.5148 -1.9791
  155SAPE   C2817263   6.598   2.667   9.793 -0.4206 -0.3312 -0.2681
  155SAPE   H8R17264   6.551   2.739   9.862 -1.8187 -1.8614  0.4514
  155SAPE   C2917265   6.564   2.672   9.665 -0.0304  0.2980 -0.8719
  155SAPE   H9R17266   6.504   2.759   9.637 -0.3641  0.2024 -0.4677
  155SAPE  C21017267   6.604   2.576   9.545 -0.3998 -0.4206 -0.6567
  155SAPE  H10R17268   6.518   2.582   9.474  1.2998 -0.1644 -2.7894
  155SAPE  H10S17269   6.621   2.475   9.588  1.0690  0.4802  1.0160
  155SAPE  C21117270   6.730   2.626   9.478  0.0389  0.5804 -0.1079
  155SAPE  H11R17271   6.827   2.590   9.516  0.1625  0.8051 -0.2074
  155SAPE  C21217272   6.725   2.717   9.381 -0.5216  0.1972  0.7066
  155SAPE  H12R17273   6.821   2.734   9.331 -1.5451 -0.4967 -1.6229
  155SAPE  C21317274   6.601   2.775   9.318  0.3919  0.4784  0.2257
  155SAPE  H13R17275   6.531   2.794   9.402  2.3441 -0.6388  2.2004
  155SAPE  H13S17276   6.558   2.704   9.244 -0.3703 -0.5977  1.6596
  155SAPE  C21417277   6.624   2.909   9.255  0.3273  0.6074 -0.3690
  155SAPE  H14R17278   6.608   3.000   9.316  0.4361  0.6112 -0.3472
  155SAPE  C21517279   6.657   2.930   9.125 -0.5942  0.2233 -0.2832
  155SAPE  H15R17280   6.662   3.035   9.094  0.5740  0.5262  0.8301
  155SAPE  C21617281   6.688   2.817   9.030  0.5800 -0.2602  0.7656
  155SAPE  H16R17282   6.627   2.812   8.938  0.7523  1.5089  0.5181
  155SAPE  H16S17283   6.684   2.720   9.085 -0.1422 -1.0261 -0.5914
  155SAPE  C21717284   6.835   2.831   8.984  0.1501 -0.6083  0.2587
  155SAPE  H17R17285   6.876   2.735   8.946  0.0642 -0.6377  0.2383
  155SAPE  H17S17286   6.898   2.854   9.072 -0.9460  2.6799  0.3076
  155SAPE  C21817287   6.860   2.937   8.874 -0.0133  0.1653  0.4618
  155SAPE  H18R17288   6.967   2.934   8.845  0.1173  1.7151  0.7259
  155SAPE  H18S17289   6.854   3.033   8.929 -3.3633  0.4644 -0.2040
  155SAPE  C21917290   6.790   2.919   8.743 -0.2486  0.0398  0.0852
  155SAPE  H19R17291   6.681   2.934   8.759 -0.1917  0.7934 -0.1761
  155SAPE  H19S17292   6.819   2.823   8.694  4.0942 -1.5143  4.8198
  155SAPE  C22017293   6.824   3.038   8.647 -0.0953 -0.7393  0.4859
  155SAPE  H20R17294   6.932   3.062   8.656 -0.1270 -1.0296  1.9157
  155SAPE  H20S17295   6.770   3.128   8.685 -1.2234 -2.1708  2.5157
  155SAPE  H20T17296   6.789   3.009   8.545  2.7498  0.6653 -0.9839
  155SAPE   C3317297   6.919   3.019  10.207  0.2085 -0.2606 -0.4021
  155SAPE   H3X17298   6.814   2.984  10.219 -0.4073  1.9572  1.2906
  155SAPE   H3Y17299   6.996   2.938  10.209 -0.7114 -1.1505  0.7839
  155SAPE   C3417300   6.922   3.080  10.070 -0.2943 -0.1564  0.2132
  155SAPE   H4X17301   7.025   3.098  10.035  0.3586 -0.5517  1.8321
  155SAPE   H4Y17302   6.880   3.183  10.071 -1.4879 -0.6246  0.7498
  155SAPE   C3517303   6.853   2.993   9.966  0.5901 -1.0012 -0.4925
  155SAPE   H5X17304   6.742   2.999   9.973  0.4696 -2.6211 -0.5344
  155SAPE   H5Y17305   6.877   2.885   9.978  0.1723 -1.0794 -0.3465
  155SAPE   C3617306   6.904   3.018   9.828 -0.4207  0.4090 -0.1238
  155SAPE   H6X17307   7.014   3.009   9.838 -0.3769  0.7398 -0.3168
  155SAPE   H6Y17308   6.893   3.122   9.790 -0.0333  1.6051  2.7188
  155SAPE   C3717309   6.883   2.904   9.731 -1.3125 -0.3004  0.4726
  155SAPE   H7X17310   6.773   2.888   9.737 -1.3850  0.2065  0.5921
  155SAPE   H7Y17311   6.922   2.809   9.771 -3.4215 -1.3947  0.0790
  155SAPE   C3817312   6.941   2.928   9.591 -0.2196  1.0480 -0.4216
  155SAPE   H8X17313   6.911   2.843   9.525  0.9785  0.7244 -0.5684
  155SAPE   H8Y17314   7.052   2.929   9.597 -0.1405  1.3417 -1.6870
  155SAPE   C3917315   6.903   3.062   9.528 -0.0315 -0.6650  0.1111
  155SAPE   H9X17316   6.942   3.147   9.589 -0.7342 -1.3862  1.6388
  155SAPE   H9Y17317   6.792   3.062   9.528 -0.0314 -0.8529  0.0883
  155SAPE  C31017318   6.961   3.093   9.388 -0.9466 -0.1350 -0.1862
  155SAPE  H10X17319   6.939   2.998   9.334  0.2624 -0.7052  0.2934
  155SAPE  H10Y17320   7.072   3.101   9.389 -0.9747  0.2389  0.0180
  155SAPE  C31117321   6.882   3.203   9.324 -0.3118  0.2555 -0.1580
  155SAPE  H11X17322   6.907   3.300   9.373 -0.6047  0.1018  0.3028
  155SAPE  H11Y17323   6.775   3.172   9.322 -0.5301  0.9633 -2.0195
  155SAPE  C31217324   6.931   3.241   9.177  0.1811 -0.0715 -0.7352
  155SAPE  H12X17325   6.903   3.151   9.117 -4.2281  0.1082  0.6743
  155SAPE  H12Y17326   7.041   3.257   9.173 -0.1564  2.8522 -0.6035
  155SAPE  C31317327   6.860   3.364   9.125 -0.6946  0.7779  0.0455
  155SAPE  H13X17328   6.879   3.456   9.184  0.4180  0.7447 -0.2403
  155SAPE  H13Y17329   6.760   3.319   9.142  0.3679 -1.4123  0.9264
  155SAPE  C31417330   6.891   3.388   8.978 -0.1962 -0.5457 -0.0317
  155SAPE  H14X17331   6.868   3.291   8.927  0.1470 -0.3205 -0.6212
  155SAPE  H14Y17332   6.998   3.418   8.969 -0.5773  0.2965 -2.9180
  155SAPE  C31517333   6.805   3.492   8.914 -0.0681 -0.1588  0.7923
  155SAPE  H15X17334   6.702   3.473   8.950  0.5999 -0.2983  2.7608
  155SAPE  H15Y17335   6.821   3.482   8.804 -0.5900  2.7013  0.3745
  155SAPE  C31617336   6.840   3.634   8.962 -0.5235  0.9977  0.1025
  155SAPE  H16X17337   6.950   3.644   8.950  0.0082 -0.6003  2.6416
  155SAPE  H16Y17338   6.824   3.649   9.071 -1.1604 -0.4421  0.2345
  155SAPE  C31717339   6.759   3.741   8.895  0.6712  0.4771  0.7437
  155SAPE  H17X17340   6.655   3.739   8.935  0.6965 -0.9555  0.7954
  155SAPE  H17Y17341   6.745   3.711   8.789  0.8301  0.8248  0.6255
  155SAPE  C31817342   6.831   3.872   8.908 -0.1266  0.1504  0.0344
  155SAPE  H18X17343   6.846   3.910   9.011 -2.0117  0.4509  0.2297
  155SAPE  H18Y17344   6.768   3.946   8.854 -2.5262 -0.9748  1.1483
  155SAPE  H18Z17345   6.924   3.861   8.847  0.4314 -1.5392  1.1290
  156SAPE     N17346   4.445   6.731  10.675 -0.3066 -0.3730 -0.6169
  156SAPE   HN117347   4.359   6.681  10.707  0.8132 -1.0043  1.6479
  156SAPE   HN217348   4.432   6.833  10.690  4.3398  0.1334  1.7631
  156SAPE   HN317349   4.463   6.714  10.574 -0.7953 -1.5105 -0.5358
  156SAPE   C1217350   4.556   6.673  10.757 -0.0910 -0.5898 -0.2863
  156SAPE  H12A17351   4.547   6.562  10.755 -2.1004 -0.5417  1.8762
  156SAPE  H12B17352   4.547   6.699  10.864  4.4596  0.7842 -0.0283
  156SAPE   C1117353   4.692   6.721  10.697 -0.0097  0.2760 -0.1700
  156SAPE  H11A17354   4.777   6.674  10.751  0.0094 -2.1829 -2.1405
  156SAPE  H11B17355   4.689   6.832  10.702 -1.3220  0.1972  2.9622
  156SAPE     P17356   4.797   6.582  10.500  0.2130 -0.0942 -0.1973
  156SAPE   O1317357   4.859   6.507  10.609 -0.1829  0.0822  0.3572
  156SAPE   O1417358   4.721   6.495  10.408  0.1405  0.0946 -0.0844
  156SAPE   O1217359   4.690   6.683  10.560 -0.2687  0.2658  0.1847
  156SAPE   O1117360   4.894   6.676  10.412 -0.3870  0.4601 -0.5270
  156SAPE    C117361   4.835   6.788  10.337 -0.0197  0.0104  0.1090
  156SAPE    HA17362   4.731   6.814  10.363 -0.1820 -1.7447  1.3757
  156SAPE    HB17363   4.899   6.872  10.369 -1.1127  0.3993  1.3352
  156SAPE    C217364   4.845   6.758  10.187 -0.3601 -0.0122 -0.0338
  156SAPE    HS17365   4.841   6.855  10.134  0.6827  0.0760  0.0360
  156SAPE   O2117366   4.734   6.678  10.145 -0.0890  0.0251 -0.2659
  156SAPE   C2117367   4.605   6.717  10.138  1.3334 -0.3791 -0.1372
  156SAPE   O2217368   4.556   6.816  10.187  0.4827  0.5605 -0.2491
  156SAPE   C2217369   4.523   6.618  10.059  0.0694 -0.5747  0.3951
  156SAPE   H2R17370   4.589   6.530  10.043  0.5700 -0.1366  0.0195
  156SAPE   H2S17371   4.434   6.594  10.120 -1.8867 -1.5126 -2.6227
  156SAPE    C317372   4.979   6.691  10.142 -0.2802 -0.2166 -0.6870
  156SAPE    HX17373   4.983   6.594  10.197  1.7463  0.5918  0.6959
  156SAPE    HY17374   5.061   6.757  10.176  0.1110 -0.8258 -0.4245
  156SAPE   O3117375   4.996   6.688   9.998  0.0412  0.1513  0.4393
  156SAPE   C3117376   4.984   6.564   9.941  0.8434  0.4633  0.0942
  156SAPE   O3217377   4.945   6.462   9.994 -0.4519  0.2336 -0.6457
  156SAPE   C3217378   5.013   6.584   9.792  0.5920  0.1077 -0.7351
  156SAPE   H2X17379   5.120   6.593   9.762  0.2673 -0.1914 -2.0222
  156SAPE   H2Y17380   4.958   6.677   9.764 -1.2267 -1.6016 -3.3134
  156SAPE   C2317381   4.451   6.678   9.938 -0.4377  0.2212 -0.4350
  156SAPE   H3R17382   4.457   6.789   9.936 -1.0855  0.2774  0.3781
  156SAPE   H3S17383   4.345   6.647   9.946 -0.5586  0.0856 -2.2422
  156SAPE   C2417384   4.504   6.623   9.805 -0.3067  1.1143 -0.0869
  156SAPE   H4R17385   4.440   6.642   9.717 -0.3257 -1.0573 -0.5844
  156SAPE   H4S17386   4.506   6.512   9.806  0.3155  1.1117  1.5808
  156SAPE   C2517387   4.644   6.678   9.789 -0.1149  0.2535  0.6703
  156SAPE   H5R17388   4.718   6.641   9.861  0.8381 -0.4096 -0.6055
  156SAPE   C2617389   4.686   6.742   9.684 -0.2058  0.1009 -0.3128
  156SAPE   H6R17390   4.783   6.793   9.689  0.3910 -1.1356  1.5466
  156SAPE   C2717391   4.609   6.778   9.561  0.5298  0.0589  0.2811
  156SAPE   H7R17392   4.652   6.869   9.515 -0.6443  0.8751  0.7519
  156SAPE   H7S17393   4.501   6.791   9.582  0.0241 -2.7640 -0.1264
  156SAPE   C2817394   4.602   6.662   9.463 -0.3467 -0.3259 -0.1977
  156SAPE   H8R17395   4.598   6.566   9.516 -2.4735 -0.1744  0.0291
  156SAPE   C2917396   4.600   6.662   9.330  0.4977  0.2635 -0.0830
  156SAPE   H9R17397   4.581   6.562   9.289  0.7347 -1.8855  4.4156
  156SAPE  C21017398   4.588   6.777   9.231  0.0198 -0.3782  0.0221
  156SAPE  H10R17399   4.640   6.865   9.275 -0.3362 -0.3006  0.2855
  156SAPE  H10S17400   4.484   6.814   9.227 -0.6894 -1.6861  3.1109
  156SAPE  C21117401   4.657   6.744   9.101 -0.0417  0.2354 -0.3308
  156SAPE  H11R17402   4.747   6.682   9.117 -0.8645 -0.9054 -0.0117
  156SAPE  C21217403   4.623   6.786   8.978  0.3227  0.0723  0.0865
  156SAPE  H12R17404   4.686   6.751   8.895  0.8416 -0.9974  0.9116
  156SAPE  C21317405   4.504   6.866   8.939 -0.0111  0.0330 -0.4362
  156SAPE  H13R17406   4.547   6.969   8.945  0.4707 -0.2000  0.1490
  156SAPE  H13S17407   4.427   6.868   9.019 -0.8991 -0.7338 -1.2493
  156SAPE  C21417408   4.447   6.831   8.807  0.0223 -0.1923 -0.0271
  156SAPE  H14R17409   4.341   6.799   8.811 -0.5302  1.6216  1.9083
  156SAPE  C21517410   4.508   6.855   8.688 -0.2142 -0.4582 -0.0109
  156SAPE  H15R17411   4.466   6.829   8.590 -0.3724  0.6608 -0.2520
  156SAPE  C21617412   4.645   6.911   8.664 -0.1400 -0.2872 -0.9227
  156SAPE  H16R17413   4.675   6.958   8.760 -1.2502  1.5502 -1.4050
  156SAPE  H16S17414   4.645   6.995   8.591  1.3843 -1.5521 -2.4609
  156SAPE  C21717415   4.747   6.802   8.626 -0.2125  0.2999  0.1939
  156SAPE  H17R17416   4.762   6.818   8.518  3.2995  0.2625  0.5569
  156SAPE  H17S17417   4.699   6.705   8.649 -1.1072  0.4775 -0.8905
  156SAPE  C21817418   4.880   6.786   8.697  0.1442 -0.4634  0.1529
  156SAPE  H18R17419   4.863   6.745   8.798  0.0970 -0.6693  0.0610
  156SAPE  H18S17420   4.943   6.877   8.688  1.0765 -0.9332  1.6100
  156SAPE  C21917421   4.967   6.676   8.626  0.2630  0.2591  0.0402
  156SAPE  H19R17422   4.905   6.589   8.597  0.1633 -0.2200  1.5832
  156SAPE  H19S17423   5.035   6.637   8.704 -2.8535 -0.5600  2.5567
  156SAPE  C22017424   5.045   6.722   8.498  0.1679 -0.0919 -0.3942
  156SAPE  H20R17425   5.099   6.818   8.514  0.9172 -0.3857 -1.1078
  156SAPE  H20S17426   4.977   6.728   8.411  0.9031  0.6925 -0.9282
  156SAPE  H20T17427   5.116   6.644   8.461 -0.2501 -0.4529 -0.4416
  156SAPE   C3317428   4.957   6.483   9.683 -0.0729  0.0159  0.0155
  156SAPE   H3X17429   4.846   6.483   9.685 -0.1730 -2.5395 -0.9870
  156SAPE   H3Y17430   4.984   6.379   9.712 -0.5238  0.0903  0.7478
  156SAPE   C3417431   4.993   6.528   9.540 -0.3023  0.2044 -0.5382
  156SAPE   H4X17432   5.104   6.527   9.527 -0.4781  2.0535 -2.7501
  156SAPE   H4Y17433   4.956   6.631   9.526  1.7750  0.6516 -3.7892
  156SAPE   C3517434   4.924   6.441   9.427 -0.4372  0.3210 -0.3191
  156SAPE   H5X17435   4.817   6.461   9.446  0.1939  1.2135  2.8580
  156SAPE   H5Y17436   4.947   6.334   9.443 -1.0585  0.4351  1.5162
  156SAPE   C3617437   4.972   6.489   9.288 -0.5651  0.0112 -0.2921
  156SAPE   H6X17438   5.083   6.480   9.291 -0.5556  0.3281  0.7777
  156SAPE   H6Y17439   4.956   6.598   9.275 -1.9256 -0.0089  0.9609
  156SAPE   C3717440   4.920   6.412   9.168 -0.0461  0.6898  0.2813
  156SAPE   H7X17441   4.810   6.401   9.182 -0.1992  1.4115 -0.2836
  156SAPE   H7Y17442   4.960   6.309   9.163 -0.8384  0.4068 -0.4931
  156SAPE   C3817443   4.946   6.483   9.031  0.1077 -0.3738  0.5949
  156SAPE   H8X17444   5.048   6.446   9.004  0.2897 -0.7109  1.6937
  156SAPE   H8Y17445   4.956   6.593   9.041  0.4039 -0.4501  1.1811
  156SAPE   C3917446   4.843   6.447   8.921 -0.3662 -0.7789 -0.3095
  156SAPE   H9X17447   4.846   6.534   8.852  0.5439 -2.5661 -2.6519
  156SAPE   H9Y17448   4.740   6.450   8.964 -0.4305 -0.3496 -0.4855
  156SAPE  C31017449   4.874   6.312   8.847  0.2124 -0.1003  0.3566
  156SAPE  H10X17450   4.824   6.250   8.924 -0.4467 -0.2959 -0.2166
  156SAPE  H10Y17451   4.984   6.298   8.856  0.0485 -1.2720  0.6531
  156SAPE  C31117452   4.814   6.285   8.710  0.0548 -0.1315 -0.2621
  156SAPE  H11X17453   4.833   6.177   8.692  1.8348 -0.3604  2.3997
  156SAPE  H11Y17454   4.873   6.341   8.634 -1.9852  0.7405 -1.2643
  156SAPE  C31217455   4.668   6.328   8.686 -0.1259 -0.6037 -0.5479
  156SAPE  H12X17456   4.636   6.330   8.580  0.0041  0.3871 -0.5748
  156SAPE  H12Y17457   4.657   6.433   8.719  1.7207 -0.5470 -0.0218
  156SAPE  C31317458   4.559   6.253   8.778  0.0759 -0.3152 -0.7067
  156SAPE  H13X17459   4.460   6.302   8.765  0.8434  1.6352  0.3401
  156SAPE  H13Y17460   4.583   6.253   8.886  1.1361 -0.8432 -0.9288
  156SAPE  C31417461   4.549   6.104   8.732  0.2704  0.5834 -0.5277
  156SAPE  H14X17462   4.639   6.045   8.756 -0.1194 -0.4866 -1.5863
  156SAPE  H14Y17463   4.534   6.100   8.621 -0.9202  0.8566 -0.3944
  156SAPE  C31517464   4.428   6.033   8.790  0.7372  0.4877  0.3409
  156SAPE  H15X17465   4.348   6.108   8.774  0.7586  0.5572  0.5528
  156SAPE  H15Y17466   4.438   6.014   8.899  0.0725 -0.7166  0.2139
  156SAPE  C31617467   4.397   5.904   8.718 -0.0839 -0.4726  0.8173
  156SAPE  H16X17468   4.366   5.911   8.611  2.3516 -0.4289  0.0728
  156SAPE  H16Y17469   4.310   5.864   8.775  0.0785 -1.0342  0.6810
  156SAPE  C31717470   4.506   5.801   8.722  0.2757 -0.0037 -0.8533
  156SAPE  H17X17471   4.509   5.761   8.825 -0.5913 -2.0808 -1.5894
  156SAPE  H17Y17472   4.603   5.847   8.696  0.9318 -1.0721 -0.3575
  156SAPE  C31817473   4.461   5.677   8.646 -0.1154  0.2887 -0.7015
  156SAPE  H18X17474   4.362   5.641   8.680 -1.0548  0.7725 -2.7262
  156SAPE  H18Y17475   4.542   5.600   8.645  0.4638  0.8151  1.5033
  156SAPE  H18Z17476   4.439   5.707   8.541 -1.7102 -2.9734 -1.4202
  157SAPE     N17477   3.383   5.592  10.848 -0.3204  0.0627 -0.4759
  157SAPE   HN117478   3.315   5.634  10.915 -0.4074 -0.2193 -0.3878
  157SAPE   HN217479   3.334   5.567  10.760 -0.0625  0.2416 -0.6699
  157SAPE   HN317480   3.427   5.508  10.890 -1.4127  0.4384  1.6012
  157SAPE   C1217481   3.489   5.699  10.813 -0.1796 -0.1462  0.6183
  157SAPE  H12A17482   3.478   5.783  10.884 -1.8899 -1.1296  1.5795
  157SAPE  H12B17483   3.470   5.733  10.709  2.7588  0.3061  0.1261
  157SAPE   C1117484   3.635   5.635  10.830  1.0425  0.3329  0.1666
  157SAPE  H11A17485   3.648   5.612  10.938 -0.0289  2.2735  0.7664
  157SAPE  H11B17486   3.703   5.716  10.794 -1.8208  2.3791 -0.9609
  157SAPE     P17487   3.781   5.435  10.778  0.0983 -0.1948 -0.2769
  157SAPE   O1317488   3.897   5.519  10.758  0.4135 -0.6472  0.3874
  157SAPE   O1417489   3.775   5.377  10.914  0.0226  0.0131  0.4025
  157SAPE   O1217490   3.646   5.521  10.750  0.3480  0.9841  0.2509
  157SAPE   O1117491   3.788   5.321  10.669  0.1334 -0.5984 -0.4826
  157SAPE    C117492   3.692   5.207  10.672 -0.6910  0.3857 -0.0846
  157SAPE    HA17493   3.745   5.112  10.695 -0.3337  1.0444  2.0607
  157SAPE    HB17494   3.625   5.202  10.761 -1.0456 -2.1065 -0.4097
  157SAPE    C217495   3.597   5.213  10.541 -0.3483  0.3413  0.3757
  157SAPE    HS17496   3.537   5.120  10.532 -0.6213  0.5053  0.5098
  157SAPE   O2117497   3.680   5.230  10.418  0.5991  0.3473  0.5908
  157SAPE   C2117498   3.767   5.140  10.397 -0.3841 -0.5306 -0.8611
  157SAPE   O2217499   3.778   5.038  10.458  0.2951 -0.3637 -0.5080
  157SAPE   C2217500   3.841   5.184  10.268 -0.4061  0.3548 -0.0875
  157SAPE   H2R17501   3.899   5.278  10.280  3.7669 -1.6229 -2.4117
  157SAPE   H2S17502   3.921   5.108  10.254  0.0479  0.7362  0.4163
  157SAPE    C317503   3.486   5.317  10.540  0.7979  1.0362 -0.4380
  157SAPE    HX17504   3.528   5.413  10.576  0.0721  1.8202 -1.6143
  157SAPE    HY17505   3.403   5.292  10.609  0.9072  1.0931 -0.2882
  157SAPE   O3117506   3.432   5.344  10.413 -0.2287  0.3968 -0.2442
  157SAPE   C3117507   3.303   5.350  10.392 -0.7300 -0.3151  0.8648
  157SAPE   O3217508   3.209   5.317  10.462  0.1985  0.5804 -0.1541
  157SAPE   C3217509   3.273   5.418  10.252  0.0615 -0.0554 -0.1195
  157SAPE   H2X17510   3.329   5.367  10.170  0.0233  1.7193 -1.2964
  157SAPE   H2Y17511   3.322   5.517  10.266 -1.3854  0.7139 -0.2776
  157SAPE   C2317512   3.743   5.189  10.142 -0.1088  0.6431 -0.3846
  157SAPE   H3R17513   3.664   5.259  10.177 -3.1421 -2.3212 -0.8128
  157SAPE   H3S17514   3.702   5.091  10.110  0.1725  0.1926  0.6115
  157SAPE   C2417515   3.810   5.240  10.013  0.2391  0.2029 -0.5013
  157SAPE   H4R17516   3.729   5.221   9.938 -2.5057  0.7135  2.1368
  157SAPE   H4S17517   3.896   5.174   9.992 -1.4074 -1.2850 -3.2784
  157SAPE   C2517518   3.863   5.385  10.009 -0.1924  0.1714 -0.5356
  157SAPE   H5R17519   3.912   5.424  10.099 -1.8612  3.0527 -0.7567
  157SAPE   C2617520   3.842   5.475   9.902  0.0867  0.6416 -0.0299
  157SAPE   H6R17521   3.894   5.570   9.920  0.8472 -0.1081  2.1000
  157SAPE   C2717522   3.766   5.459   9.770  0.5013  0.8270 -1.0078
  157SAPE   H7R17523   3.709   5.554   9.765  0.0775  0.6132 -0.3840
  157SAPE   H7S17524   3.692   5.377   9.789  0.8631  0.2713 -1.9238
  157SAPE   C2817525   3.845   5.442   9.644 -0.1732 -0.5881  0.3890
  157SAPE   H8R17526   3.954   5.444   9.663 -0.1330  0.6876  0.1209
  157SAPE   C2917527   3.801   5.419   9.519  0.1833  0.1614  0.6328
  157SAPE   H9R17528   3.875   5.411   9.438 -1.4913  2.3920 -1.2522
  157SAPE  C21017529   3.649   5.403   9.487  0.0529  1.1336 -0.0871
  157SAPE  H10R17530   3.588   5.377   9.576 -1.8038 -1.3358 -1.9222
  157SAPE  H10S17531   3.629   5.322   9.413 -0.2131  1.1814 -0.0698
  157SAPE  C21117532   3.595   5.530   9.423 -0.6973  0.7068 -0.1995
  157SAPE  H11R17533   3.575   5.607   9.499 -3.0761  0.0904 -0.1292
  157SAPE  C21217534   3.586   5.564   9.297 -0.2151 -0.1369  0.0048
  157SAPE  H12R17535   3.542   5.662   9.273  2.6194  0.8921 -1.5282
  157SAPE  C21317536   3.631   5.480   9.186  0.6978 -0.8865 -0.6860
  157SAPE  H13R17537   3.572   5.504   9.095 -1.6711 -3.8159 -0.1102
  157SAPE  H13S17538   3.600   5.375   9.204 -0.2216 -0.4153  0.6075
  157SAPE  C21417539   3.776   5.500   9.154 -0.4436  0.1003 -0.3173
  157SAPE  H14R17540   3.814   5.600   9.177  0.3758 -0.7892  2.6458
  157SAPE  C21517541   3.861   5.405   9.126 -0.1388 -0.5287  0.1619
  157SAPE  H15R17542   3.959   5.426   9.081 -0.3821 -2.7498 -1.6568
  157SAPE  C21617543   3.829   5.260   9.123  0.6672 -0.3231 -0.1609
  157SAPE  H16R17544   3.720   5.239   9.136  0.0389  3.4651  2.2856
  157SAPE  H16S17545   3.860   5.202   9.212  3.7885 -0.1172 -1.0006
  157SAPE  C21717546   3.889   5.182   9.007 -0.3379  0.1592 -0.2427
  157SAPE  H17R17547   3.850   5.078   9.008  1.5922 -0.6129  0.8352
  157SAPE  H17S17548   4.000   5.176   9.003 -0.3638 -0.0983 -0.6899
  157SAPE  C21817549   3.855   5.247   8.865 -0.4953  0.1324 -0.2077
  157SAPE  H18R17550   3.893   5.351   8.870  0.6376 -0.3123  1.3478
  157SAPE  H18S17551   3.745   5.248   8.848 -0.9691  1.5351  2.3277
  157SAPE  C21917552   3.928   5.172   8.741  0.2987  0.1507  0.2989
  157SAPE  H19R17553   3.928   5.238   8.651  0.5777 -1.8078 -1.2103
  157SAPE  H19S17554   3.856   5.098   8.701  0.4685  0.8366 -1.4002
  157SAPE  C22017555   4.064   5.106   8.753  0.1633 -0.0898 -0.3796
  157SAPE  H20R17556   4.113   5.079   8.656 -0.5861 -0.4924 -0.6501
  157SAPE  H20S17557   4.062   5.021   8.825 -0.8191  1.8367  1.9643
  157SAPE  H20T17558   4.126   5.186   8.798 -0.5471  1.7660 -2.5281
  157SAPE   C3317559   3.129   5.433  10.208  0.2434  0.0688  0.3758
  157SAPE   H3X17560   3.059   5.436  10.295  0.0084 -0.5756  0.2128
  157SAPE   H3Y17561   3.099   5.344  10.149 -0.8656  1.6836 -1.6113
  157SAPE   C3417562   3.105   5.557  10.116 -0.8314  0.7443 -0.4999
  157SAPE   H4X17563   3.128   5.657  10.159 -3.8804  1.2355  0.1825
  157SAPE   H4Y17564   2.996   5.562  10.095 -0.5912  2.6220 -1.4872
  157SAPE   C3517565   3.171   5.539   9.982  0.3517  0.1157 -0.1311
  157SAPE   H5X17566   3.160   5.434   9.948 -0.1097  0.3845 -0.8275
  157SAPE   H5Y17567   3.281   5.553   9.983  0.6645 -1.7392  2.2873
  157SAPE   C3617568   3.114   5.628   9.868  0.7741 -0.0552 -0.1468
  157SAPE   H6X17569   3.136   5.735   9.890 -2.1767  0.4296  0.8582
  157SAPE   H6Y17570   3.004   5.619   9.867  0.7620 -0.1509  1.1195
  157SAPE   C3717571   3.180   5.616   9.728  0.2212  0.1081 -0.5396
  157SAPE   H7X17572   3.290   5.629   9.722  0.0500  1.7185 -0.4504
  157SAPE   H7Y17573   3.136   5.696   9.664 -1.1337 -0.1171  0.0612
  157SAPE   C3817574   3.151   5.487   9.658 -1.0207  0.3490 -0.0402
  157SAPE   H8X17575   3.042   5.467   9.645 -1.2140  1.7124 -0.6679
  157SAPE   H8Y17576   3.200   5.400   9.707 -1.2430  0.1633 -0.1422
  157SAPE   C3917577   3.216   5.481   9.520  0.2760  0.2664  0.0636
  157SAPE   H9X17578   3.317   5.438   9.536 -0.0037 -0.4747 -0.1460
  157SAPE   H9Y17579   3.242   5.578   9.472 -0.9615  0.2278 -0.7528
  157SAPE  C31017580   3.144   5.408   9.407 -0.1493  0.7654  0.4879
  157SAPE  H10X17581   3.057   5.467   9.372 -0.5486  1.2953  2.2644
  157SAPE  H10Y17582   3.111   5.305   9.433 -1.0329 -0.0771 -3.3186
  157SAPE  C31117583   3.229   5.388   9.281  0.2915  0.1425  0.2040
  157SAPE  H11X17584   3.330   5.345   9.299  0.1397 -0.7206 -0.8950
  157SAPE  H11Y17585   3.254   5.491   9.248  0.3452 -0.3009 -1.2247
  157SAPE  C31217586   3.155   5.298   9.178  0.0554 -0.5149 -0.2315
  157SAPE  H12X17587   3.063   5.349   9.141  0.5091  0.8281  0.4372
  157SAPE  H12Y17588   3.121   5.202   9.223 -1.7694 -0.3425 -1.1353
  157SAPE  C31317589   3.252   5.268   9.060 -0.3488 -0.6613 -0.1225
  157SAPE  H13X17590   3.303   5.364   9.038 -1.0801 -0.1768  0.2350
  157SAPE  H13Y17591   3.194   5.238   8.970 -0.5413  1.2495 -0.6777
  157SAPE  C31417592   3.366   5.170   9.097 -0.4625  0.3158 -0.1340
  157SAPE  H14X17593   3.318   5.075   9.129 -0.4027  0.9338  1.9194
  157SAPE  H14Y17594   3.419   5.201   9.190 -0.1787  1.1066 -0.5505
  157SAPE  C31517595   3.472   5.136   8.992 -0.4031 -0.3730 -0.6611
  157SAPE  H15X17596   3.537   5.054   9.030 -1.1372 -0.0591  1.3523
  157SAPE  H15Y17597   3.538   5.224   8.974 -0.8656 -0.4161 -2.7682
  157SAPE  C31617598   3.430   5.070   8.858  0.2261 -0.1394  0.1812
  157SAPE  H16X17599   3.389   5.157   8.803  1.7069  0.0348 -0.6914
  157SAPE  H16Y17600   3.342   5.005   8.875  0.0350  0.2059  0.5365
  157SAPE  C31717601   3.535   4.997   8.778  0.2658 -0.2819  0.1035
  157SAPE  H17X17602   3.572   4.905   8.828  0.6432  0.0327  0.4076
  157SAPE  H17Y17603   3.623   5.065   8.776  1.4911 -1.8066 -0.4628
  157SAPE  C31817604   3.497   4.975   8.631  0.0416 -0.0961  0.2458
  157SAPE  H18X17605   3.444   4.879   8.616  0.6397 -0.0949 -2.2927
  157SAPE  H18Y17606   3.589   4.971   8.569 -0.3250  0.0210 -0.3111
  157SAPE  H18Z17607   3.440   5.062   8.592  0.2281  0.3648  0.9840
  158SAPE     N17608   3.261   0.152  10.758  0.2855  0.3188  0.4751
  158SAPE   HN117609   3.301   0.067  10.714  0.0271 -0.4126  1.6314
  158SAPE   HN217610   3.263   0.128  10.859  1.1138 -2.9819 -0.1997
  158SAPE   HN317611   3.166   0.163  10.716  0.2773 -1.9262 -0.2066
  158SAPE   C1217612   3.350   0.277  10.743  0.1291 -0.8182 -0.0089
  158SAPE  H12A17613   3.456   0.251  10.765 -0.0178 -1.0066  0.4968
  158SAPE  H12B17614   3.310   0.355  10.811  0.7381 -0.7461  0.2760
  158SAPE   C1117615   3.338   0.347  10.602 -0.1285  0.2863  0.4195
  158SAPE  H11A17616   3.375   0.263  10.539 -0.6554 -3.3529  4.4652
  158SAPE  H11B17617   3.416   0.425  10.592 -1.6698  1.9861  1.0685
  158SAPE     P17618   3.142   0.350  10.431 -0.0123  0.2140  0.1423
  158SAPE   O1317619   3.177   0.207  10.405 -0.0699 -0.0502 -0.2876
  158SAPE   O1417620   3.005   0.389  10.443  0.0396 -0.1185 -0.6485
  158SAPE   O1217621   3.207   0.385  10.567 -0.1092 -0.2901  0.0030
  158SAPE   O1117622   3.220   0.444  10.327 -0.0739 -0.3928 -0.4116
  158SAPE    C117623   3.245   0.587  10.345 -0.1670 -0.6243 -0.8045
  158SAPE    HA17624   3.152   0.646  10.331 -0.1590 -0.3731  0.1045
  158SAPE    HB17625   3.276   0.609  10.449  1.0781  1.4218 -1.5491
  158SAPE    C217626   3.349   0.639  10.243 -0.7278 -0.1358  0.4550
  158SAPE    HS17627   3.357   0.749  10.257 -1.9366  0.0378 -0.1829
  158SAPE   O2117628   3.305   0.603  10.108 -0.0760  0.2348  0.3145
  158SAPE   C2117629   3.207   0.674  10.061 -0.5863  0.1932  0.5631
  158SAPE   O2217630   3.161   0.774  10.112 -0.3879  0.5329 -0.3486
  158SAPE   C2217631   3.166   0.643   9.927  0.0395 -0.3941 -0.0337
  158SAPE   H2R17632   3.113   0.546   9.919  1.7860 -1.2777 -1.8913
  158SAPE   H2S17633   3.093   0.722   9.900  0.7337 -0.0375 -0.8916
  158SAPE    C317634   3.484   0.574  10.270 -0.4046  0.2466  0.3815
  158SAPE    HX17635   3.470   0.464  10.270 -0.0262  0.1610 -1.5532
  158SAPE    HY17636   3.520   0.604  10.371  2.4005 -0.7381 -0.2251
  158SAPE   O3117637   3.587   0.616  10.176 -0.3524 -0.7125  0.2262
  158SAPE   C3117638   3.688   0.539  10.167 -0.4479 -0.0580 -0.5469
  158SAPE   O3217639   3.706   0.436  10.225 -0.2837  0.6912 -0.9503
  158SAPE   C3217640   3.763   0.588  10.040  0.6294  0.0051  0.6956
  158SAPE   H2X17641   3.770   0.698  10.050 -0.6975  0.3473 -1.4750
  158SAPE   H2Y17642   3.689   0.573   9.959  0.5559 -1.0991  0.9586
  158SAPE   C2317643   3.268   0.647   9.819 -0.7376  0.8555  0.3306
  158SAPE   H3R17644   3.333   0.557   9.812 -1.2059  0.4674  0.9107
  158SAPE   H3S17645   3.346   0.726   9.825 -0.0490  0.5948 -2.9495
  158SAPE   C2417646   3.209   0.671   9.678  0.2914  0.2227 -0.2979
  158SAPE   H4R17647   3.295   0.684   9.608  1.5132 -3.2530  0.3565
  158SAPE   H4S17648   3.158   0.769   9.667  1.8445  0.9687 -1.2650
  158SAPE   C2517649   3.124   0.554   9.638 -0.2907 -0.3904  0.1878
  158SAPE   H5R17650   3.054   0.509   9.711 -0.4406  0.2969  0.4794
  158SAPE   C2617651   3.120   0.509   9.511 -0.2374  0.4444 -1.3771
  158SAPE   H6R17652   3.049   0.425   9.505  0.6674 -0.7537  2.1173
  158SAPE   C2717653   3.197   0.566   9.399 -0.6114  0.4481  0.3336
  158SAPE   H7R17654   3.297   0.602   9.431  0.5447 -1.3644 -1.0021
  158SAPE   H7S17655   3.139   0.652   9.358 -0.9544  0.8745  1.6850
  158SAPE   C2817656   3.216   0.465   9.294 -0.3072 -0.0208  0.5757
  158SAPE   H8R17657   3.317   0.423   9.284 -0.0863  0.5817  0.1916
  158SAPE   C2917658   3.119   0.446   9.200  0.3513 -0.5651  0.2098
  158SAPE   H9R17659   3.144   0.395   9.106 -3.2241 -0.2756 -1.0664
  158SAPE  C21017660   2.982   0.511   9.185  0.3283  0.4256  0.0888
  158SAPE  H10R17661   2.970   0.553   9.083 -1.7745 -0.9782 -0.3031
  158SAPE  H10S17662   2.969   0.597   9.254 -2.6359  1.4466 -1.5669
  158SAPE  C21117663   2.873   0.412   9.198  0.4372 -0.7798  0.0446
  158SAPE  H11R17664   2.872   0.368   9.299  0.4141  0.8835  0.8076
  158SAPE  C21217665   2.776   0.365   9.111  0.3407 -0.6790 -0.2158
  158SAPE  H12R17666   2.702   0.288   9.137 -2.6344  2.7571  2.4770
  158SAPE  C21317667   2.749   0.411   8.967  0.1277  0.7062  0.0116
  158SAPE  H13R17668   2.809   0.501   8.940  1.3321  0.8267  2.7582
  158SAPE  H13S17669   2.644   0.446   8.965 -0.1623 -0.1835 -1.1958
  158SAPE  C21417670   2.770   0.301   8.871 -0.2091  0.0046 -0.3287
  158SAPE  H14R17671   2.724   0.205   8.900  0.2693 -1.1979 -3.1957
  158SAPE  C21517672   2.824   0.291   8.747 -0.1818 -0.4997 -0.7496
  158SAPE  H15R17673   2.823   0.191   8.702 -1.3858 -1.9384  2.1844
  158SAPE  C21617674   2.887   0.398   8.667  0.5149 -0.3485  0.5063
  158SAPE  H16R17675   2.848   0.498   8.697 -0.1227  0.3113 -2.2454
  158SAPE  H16S17676   2.862   0.391   8.559  0.0051  2.1837  0.3804
  158SAPE  C21717677   3.037   0.374   8.680 -0.1412  0.0224  0.1515
  158SAPE  H17R17678   3.078   0.455   8.615 -0.7862  1.0022  0.9375
  158SAPE  H17S17679   3.069   0.272   8.649  1.3785  0.8973 -1.3955
  158SAPE  C21817680   3.092   0.430   8.811 -0.1540  0.4718 -0.7095
  158SAPE  H18R17681   3.048   0.382   8.901  0.4865 -1.0423 -1.1727
  158SAPE  H18S17682   3.061   0.537   8.809 -1.0331  0.2557  0.2359
  158SAPE  C21917683   3.243   0.401   8.822  0.4488  0.0850  0.1846
  158SAPE  H19R17684   3.275   0.461   8.910 -0.1888  1.3148 -0.3904
  158SAPE  H19S17685   3.289   0.445   8.731  0.4377  0.5994  0.4196
  158SAPE  C22017686   3.283   0.262   8.861  0.3477 -0.1900  0.2919
  158SAPE  H20R17687   3.390   0.243   8.884  0.2814 -0.8077  0.1197
  158SAPE  H20S17688   3.263   0.197   8.772  0.1479  0.3122 -0.0371
  158SAPE  H20T17689   3.218   0.226   8.944 -0.8378  0.7348 -0.2035
  158SAPE   C3317690   3.897   0.510  10.010  0.4567  0.2062 -0.1650
  158SAPE   H3X17691   3.879   0.401  10.008 -0.1866  0.3061  0.1019
  158SAPE   H3Y17692   3.965   0.541  10.093 -0.0243  1.9450 -0.3835
  158SAPE   C3417693   3.948   0.561   9.871 -0.5663  0.8285 -0.4801
  158SAPE   H4X17694   4.059   0.561   9.861 -0.5787  1.9557 -0.7202
  158SAPE   H4Y17695   3.925   0.669   9.856 -2.7131  0.1629 -2.5993
  158SAPE   C3517696   3.890   0.483   9.754  0.0295  0.1474 -0.8477
  158SAPE   H5X17697   3.780   0.476   9.761  0.1289 -0.2945  0.8025
  158SAPE   H5Y17698   3.916   0.375   9.752 -1.3672 -0.1970 -0.9219
  158SAPE   C3617699   3.915   0.544   9.615 -0.1393  0.1715 -0.5263
  158SAPE   H6X17700   4.017   0.589   9.613 -0.4074  0.9660  1.4708
  158SAPE   H6Y17701   3.843   0.629   9.608  1.3275  1.3846 -1.7620
  158SAPE   C3717702   3.905   0.442   9.502 -0.3337  0.0449 -0.3297
  158SAPE   H7X17703   3.816   0.381   9.526 -3.1328  3.6100 -0.7011
  158SAPE   H7Y17704   4.001   0.387   9.511  0.1177  0.7440 -0.7365
  158SAPE   C3817705   3.894   0.505   9.362 -0.2348 -0.0928  0.7027
  158SAPE   H8X17706   3.985   0.569   9.356  0.6736 -1.2292  2.0184
  158SAPE   H8Y17707   3.817   0.585   9.351  1.3425  1.2677 -1.2959
  158SAPE   C3917708   3.888   0.406   9.247 -0.1459 -0.5697  0.0359
  158SAPE   H9X17709   3.800   0.339   9.256 -0.7095  0.2784  1.1119
  158SAPE   H9Y17710   3.983   0.350   9.254  0.3470  0.1657 -0.5635
  158SAPE  C31017711   3.883   0.478   9.103  0.4828  0.1808  0.1410
  158SAPE  H10X17712   3.983   0.522   9.084  1.0460 -1.9691 -2.5176
  158SAPE  H10Y17713   3.813   0.564   9.106  1.8094  1.3912 -1.3621
  158SAPE  C31117714   3.838   0.384   8.994 -0.3619  0.1688  0.2499
  158SAPE  H11X17715   3.747   0.327   9.020  2.1099 -3.2396  2.1110
  158SAPE  H11Y17716   3.912   0.304   8.974 -1.9390 -1.4130  0.5786
  158SAPE  C31217717   3.811   0.444   8.850  0.7514 -0.2653 -0.4525
  158SAPE  H12X17718   3.816   0.366   8.770  0.5193 -0.0596 -0.6707
  158SAPE  H12Y17719   3.888   0.520   8.826  1.6037 -1.1799 -0.7291
  158SAPE  C31317720   3.663   0.493   8.848  0.5833 -0.3220 -0.6039
  158SAPE  H13X17721   3.648   0.546   8.945  0.4843 -2.0712  0.3746
  158SAPE  H13Y17722   3.592   0.408   8.844 -0.1339  0.3138 -2.1887
  158SAPE  C31417723   3.630   0.576   8.724  0.0471 -0.1607  0.1723
  158SAPE  H14X17724   3.702   0.661   8.720 -2.5198  2.1466 -0.8033
  158SAPE  H14Y17725   3.528   0.621   8.733  1.6844  4.0042  0.3957
  158SAPE  C31517726   3.630   0.505   8.583  0.1874  0.2543  0.5452
  158SAPE  H15X17727   3.533   0.538   8.540  0.1519  1.3051  1.3801
  158SAPE  H15Y17728   3.603   0.398   8.595 -1.5468  0.7311  1.1978
  158SAPE  C31617729   3.760   0.526   8.507 -0.9501  0.5173 -0.1452
  158SAPE  H16X17730   3.844   0.471   8.554 -0.3281  0.6780 -1.0407
  158SAPE  H16Y17731   3.795   0.631   8.522  1.8607 -0.3388 -0.1732
  158SAPE  C31717732   3.751   0.494   8.357  0.3185 -0.0205  0.5284
  158SAPE  H17X17733   3.701   0.395   8.348 -1.0765  0.5410  1.6908
  158SAPE  H17Y17734   3.850   0.491   8.306  0.4007 -0.0503  0.6888
  158SAPE  C31817735   3.677   0.599   8.270  0.6721  0.0248 -0.0009
  158SAPE  H18X17736   3.567   0.588   8.284  0.6456 -0.7056 -0.7360
  158SAPE  H18Y17737   3.709   0.588   8.164  0.0501 -0.5873 -0.1313
  158SAPE  H18Z17738   3.699   0.704   8.299  0.7401  0.1234 -0.4015
  159SAPE     N17739   5.458   3.078   6.208  0.3708 -0.3486  0.0557
  159SAPE   HN117740   5.509   3.051   6.121 -0.0819  1.6106 -0.8573
  159SAPE   HN217741   5.458   3.179   6.234 -0.8025 -0.3808  0.2256
  159SAPE   HN317742   5.503   3.046   6.296  1.0277  3.3306  1.2248
  159SAPE   C1217743   5.315   3.034   6.203  0.1334  0.3989  0.7010
  159SAPE  H12A17744   5.310   2.925   6.182  0.1240  0.5507 -0.0891
  159SAPE  H12B17745   5.281   3.094   6.116  2.0842 -1.0442 -1.1601
  159SAPE   C1117746   5.251   3.085   6.331  0.9873 -0.2184 -0.5355
  159SAPE  H11A17747   5.305   3.042   6.418  0.2912  0.1931  0.1232
  159SAPE  H11B17748   5.151   3.036   6.325  1.7026 -1.6285 -1.3593
  159SAPE     P17749   5.245   3.316   6.467 -0.2800 -0.2240  0.2644
  159SAPE   O1317750   5.285   3.454   6.435  0.2063  0.6057 -0.4535
  159SAPE   O1417751   5.115   3.299   6.531 -0.5632 -0.4855  0.0311
  159SAPE   O1217752   5.239   3.224   6.335  0.3132 -0.5239 -0.5280
  159SAPE   O1117753   5.356   3.242   6.549  0.4919  0.5451 -0.5900
  159SAPE    C117754   5.492   3.290   6.560  0.1539  1.1464  0.2687
  159SAPE    HA17755   5.561   3.203   6.547 -0.8313  0.4408 -0.3684
  159SAPE    HB17756   5.516   3.367   6.484  0.2124  0.4481 -0.4367
  159SAPE    C217757   5.517   3.347   6.702  0.0178  0.2118 -0.6609
  159SAPE    HS17758   5.618   3.393   6.694  0.7675 -1.6134 -3.2271
  159SAPE   O2117759   5.502   3.243   6.803 -0.4508 -0.7343 -0.2832
  159SAPE   C2117760   5.613   3.177   6.824 -0.8775  0.1980 -0.1655
  159SAPE   O2217761   5.723   3.201   6.773  0.0975  0.4423  0.5893
  159SAPE   C2217762   5.584   3.073   6.939  0.0376  0.5989  0.4653
  159SAPE   H2R17763   5.474   3.073   6.956  0.1478  1.0248  1.2456
  159SAPE   H2S17764   5.611   2.975   6.897  0.6845  0.3477  1.4422
  159SAPE    C317765   5.426   3.474   6.734  0.0124  0.4665  0.0569
  159SAPE    HX17766   5.320   3.442   6.730  0.1557 -0.1878  1.0011
  159SAPE    HY17767   5.447   3.550   6.656 -2.5239  2.0138  0.7901
  159SAPE   O3117768   5.452   3.536   6.865  0.1004  0.1877  0.5117
  159SAPE   C3117769   5.371   3.634   6.901  1.1132  0.1515  0.1005
  159SAPE   O3217770   5.269   3.671   6.844 -0.6283  0.1634 -0.6959
  159SAPE   C3217771   5.420   3.686   7.029  0.2558  0.6162  0.8661
  159SAPE   H2X17772   5.342   3.760   7.056 -1.6543 -0.4765 -1.2918
  159SAPE   H2Y17773   5.516   3.738   7.008  0.4916  0.2232  0.9348
  159SAPE   C2317774   5.664   3.110   7.063 -0.6056 -0.6198 -0.0087
  159SAPE   H3R17775   5.767   3.132   7.029 -0.5561 -2.3265 -1.0653
  159SAPE   H3S17776   5.662   3.022   7.132 -0.1698 -0.3203  0.3949
  159SAPE   C2417777   5.603   3.235   7.133 -0.2176  0.2006 -0.1632
  159SAPE   H4R17778   5.587   3.319   7.062 -0.2080  0.4662  0.1477
  159SAPE   H4S17779   5.672   3.287   7.203 -0.0193  1.2955 -1.1317
  159SAPE   C2517780   5.477   3.198   7.207 -0.1788 -0.4043  0.5563
  159SAPE   H5R17781   5.392   3.166   7.145  0.1967  0.1801 -0.2667
  159SAPE   C2617782   5.453   3.183   7.342  0.0693  0.0938 -0.3370
  159SAPE   H6R17783   5.357   3.143   7.378  0.3068 -0.5347 -0.3902
  159SAPE   C2717784   5.562   3.202   7.450 -0.1534 -0.6926  0.7232
  159SAPE   H7R17785   5.529   3.272   7.530  2.2528  1.8090 -0.3133
  159SAPE   H7S17786   5.649   3.256   7.407 -1.4791  1.0599  0.1271
  159SAPE   C2817787   5.612   3.074   7.509 -0.5871 -0.0013 -0.0896
  159SAPE   H8R17788   5.631   3.001   7.430 -3.3083 -0.4664 -0.4295
  159SAPE   C2917789   5.638   3.042   7.642  0.1345  0.4629 -0.4327
  159SAPE   H9R17790   5.677   2.941   7.661  1.0633  0.8134 -0.4395
  159SAPE  C21017791   5.629   3.128   7.770  0.5316 -0.1487  0.4004
  159SAPE  H10R17792   5.624   3.238   7.753  1.5061 -0.0013  1.0252
  159SAPE  H10S17793   5.724   3.102   7.822  0.9996 -0.8374 -0.7303
  159SAPE  C21117794   5.505   3.098   7.855  0.1367 -0.7003 -0.8595
  159SAPE  H11R17795   5.413   3.153   7.827 -1.0148 -0.8489  2.2851
  159SAPE  C21217796   5.489   3.012   7.961  0.4735  0.1994 -0.1100
  159SAPE  H12R17797   5.392   3.006   8.011  0.2823 -0.6968 -0.5645
  159SAPE  C21317798   5.590   2.916   8.018 -0.4115 -0.3723 -0.2122
  159SAPE  H13R17799   5.647   2.860   7.941 -0.3263 -1.0800  0.3529
  159SAPE  H13S17800   5.537   2.836   8.073  0.4126  0.1221  1.3775
  159SAPE  C21417801   5.674   2.989   8.125  0.3044  0.7450  0.1303
  159SAPE  H14R17802   5.615   3.021   8.212 -0.7549 -1.5207  0.3255
  159SAPE  C21517803   5.802   3.020   8.116 -0.0524 -0.1622 -0.6781
  159SAPE  H15R17804   5.845   3.073   8.202 -2.0236  0.0412  0.2250
  159SAPE  C21617805   5.897   2.993   8.002  0.8010 -0.1792  0.3253
  159SAPE  H16R17806   5.931   3.088   7.957  1.1488 -0.5675 -0.2417
  159SAPE  H16S17807   5.845   2.937   7.921 -1.4794  1.0218  0.8647
  159SAPE  C21717808   6.020   2.916   8.055 -0.9687  0.0161  0.4969
  159SAPE  H17R17809   5.983   2.823   8.105 -0.0089  0.8422  2.8530
  159SAPE  H17S17810   6.061   2.990   8.127 -0.9999  0.6120 -0.0905
  159SAPE  C21817811   6.133   2.889   7.951 -0.0043  0.3802  0.7940
  159SAPE  H18R17812   6.103   2.841   7.855  3.2053 -0.3707  0.0495
  159SAPE  H18S17813   6.207   2.821   7.999  0.2528 -0.9285 -1.3299
  159SAPE  C21917814   6.208   3.021   7.903  0.6884  0.0218 -0.1462
  159SAPE  H19R17815   6.239   3.081   7.991 -2.3616  2.4877 -0.5882
  159SAPE  H19S17816   6.122   3.074   7.857 -0.3935 -2.9654 -1.8929
  159SAPE  C22017817   6.307   3.000   7.790 -0.0470 -0.5325  0.0588
  159SAPE  H20R17818   6.272   2.912   7.731 -0.4701  0.2935 -0.9751
  159SAPE  H20S17819   6.412   2.989   7.822  0.1557 -0.8673 -0.6950
  159SAPE  H20T17820   6.299   3.076   7.709  0.5314 -0.8094 -0.2635
  159SAPE   C3317821   5.439   3.583   7.148 -0.3333  0.3501  0.2595
  159SAPE   H3X17822   5.538   3.534   7.132 -0.9342 -0.7221 -0.2741
  159SAPE   H3Y17823   5.368   3.498   7.153 -0.8652  0.6350 -1.7122
  159SAPE   C3417824   5.451   3.653   7.287  0.6090 -0.0810  0.0902
  159SAPE   H4X17825   5.357   3.695   7.328  0.8459  1.0725 -0.4950
  159SAPE   H4Y17826   5.514   3.743   7.272  2.2792 -0.9529  1.4361
  159SAPE   C3517827   5.515   3.579   7.397 -0.6806  1.1294 -0.0262
  159SAPE   H5X17828   5.604   3.525   7.360 -0.6032 -1.4674  3.5489
  159SAPE   H5Y17829   5.456   3.493   7.436 -0.8606  1.5725  0.7031
  159SAPE   C3617830   5.541   3.661   7.526  0.1812 -0.4254  0.4101
  159SAPE   H6X17831   5.591   3.754   7.490 -1.2905  0.7164  1.2080
  159SAPE   H6Y17832   5.610   3.600   7.588  2.4692  2.3983  0.8489
  159SAPE   C3717833   5.408   3.698   7.602 -0.1275 -0.2233  0.1043
  159SAPE   H7X17834   5.362   3.601   7.632  0.4413 -0.6002 -0.2258
  159SAPE   H7Y17835   5.337   3.755   7.538 -0.4728 -1.5321 -0.7281
  159SAPE   C3817836   5.435   3.791   7.725 -0.1844 -0.3174  0.3411
  159SAPE   H8X17837   5.343   3.795   7.786 -0.1146 -1.2287  0.5209
  159SAPE   H8Y17838   5.456   3.894   7.689  2.3860 -0.3491  1.5575
  159SAPE   C3917839   5.562   3.753   7.812  0.0618  0.5755  0.0413
  159SAPE   H9X17840   5.562   3.837   7.884 -0.3996  2.8455 -2.4681
  159SAPE   H9Y17841   5.654   3.743   7.750  0.3989 -0.6174  0.6991
  159SAPE  C31017842   5.531   3.630   7.892  0.3425 -0.2280  0.0217
  159SAPE  H10X17843   5.491   3.541   7.838 -2.2680  0.2858  0.9481
  159SAPE  H10Y17844   5.440   3.663   7.946  0.9705 -0.4058  1.2274
  159SAPE  C31117845   5.638   3.591   7.994  0.1446  0.0313  0.6515
  159SAPE  H11X17846   5.664   3.685   8.047  1.0622 -0.2010  0.6285
  159SAPE  H11Y17847   5.732   3.570   7.940 -0.6303  0.6626 -1.0242
  159SAPE  C31217848   5.597   3.483   8.099  0.1382  0.1764 -0.0294
  159SAPE  H12X17849   5.601   3.390   8.040 -2.0850 -0.0923  0.1521
  159SAPE  H12Y17850   5.490   3.489   8.131 -0.1485 -0.0114 -0.9412
  159SAPE  C31317851   5.692   3.484   8.222  0.6431 -0.7593 -1.1315
  159SAPE  H13X17852   5.672   3.565   8.296  4.0377 -0.0481 -0.8454
  159SAPE  H13Y17853   5.800   3.495   8.200  1.4609 -0.3182  2.5377
  159SAPE  C31417854   5.671   3.348   8.298  0.1421 -1.0166 -0.1699
  159SAPE  H14X17855   5.758   3.289   8.264  2.2390  1.3001  0.8777
  159SAPE  H14Y17856   5.576   3.305   8.259 -0.9157  0.3022  0.8470
  159SAPE  C31517857   5.665   3.355   8.452  0.5138 -0.5765 -0.1441
  159SAPE  H15X17858   5.648   3.259   8.503 -0.3588 -0.0517  0.5877
  159SAPE  H15Y17859   5.575   3.419   8.470  1.2314  1.4593 -2.9982
  159SAPE  C31617860   5.786   3.422   8.507  0.0080  0.6912  0.2340
  159SAPE  H16X17861   5.799   3.523   8.461 -0.6576  1.1481  1.0331
  159SAPE  H16Y17862   5.872   3.354   8.488  0.7737  1.2555  1.5292
  159SAPE  C31717863   5.775   3.442   8.652  0.1842  0.2440 -0.1794
  159SAPE  H17X17864   5.758   3.354   8.718 -3.1380  1.2439  0.5444
  159SAPE  H17Y17865   5.693   3.514   8.675 -0.5580 -0.9284  0.9883
  159SAPE  C31817866   5.904   3.515   8.705  0.0263 -0.1919  0.8157
  159SAPE  H18X17867   5.891   3.570   8.800  0.9419  1.1814  0.1814
  159SAPE  H18Y17868   5.946   3.592   8.636  2.1395 -0.9840  1.1499
  159SAPE  H18Z17869   5.986   3.442   8.720  1.4125  1.0363 -0.4503
  160SAPE     N17870   4.543   4.485   5.973 -0.1084  0.1017 -0.5817
  160SAPE   HN117871   4.548   4.440   5.879 -2.2021  1.6868 -1.5183
  160SAPE   HN217872   4.478   4.432   6.035 -1.0299  1.1377 -0.6246
  160SAPE   HN317873   4.502   4.580   5.965  0.1981  0.2919  0.0609
  160SAPE   C1217874   4.671   4.507   6.039 -0.5239  0.4906 -0.1747
  160SAPE  H12A17875   4.746   4.551   5.970  0.1133 -0.2241  0.0499
  160SAPE  H12B17876   4.716   4.407   6.057 -0.0600  0.7910  0.3800
  160SAPE   C1117877   4.661   4.588   6.170 -0.0964  0.2755 -0.6666
  160SAPE  H11A17878   4.625   4.688   6.140  0.9612  0.2814 -2.0211
  160SAPE  H11B17879   4.758   4.619   6.212 -1.0352  0.6235  1.3615
  160SAPE     P17880   4.627   4.488   6.418  0.1744 -0.0161 -0.1960
  160SAPE   O1317881   4.525   4.398   6.474  0.0266  0.2111 -0.5313
  160SAPE   O1417882   4.769   4.451   6.417 -0.3886  0.2906 -0.5294
  160SAPE   O1217883   4.581   4.527   6.273  0.6192  0.6457  0.4840
  160SAPE   O1117884   4.617   4.624   6.488  0.0685  0.5892  0.4248
  160SAPE    C117885   4.724   4.716   6.507  0.9305  0.0861  0.5944
  160SAPE    HA17886   4.800   4.712   6.426 -0.5024  0.3148 -0.8125
  160SAPE    HB17887   4.674   4.815   6.502  0.8026 -0.0458 -1.7071
  160SAPE    C217888   4.780   4.708   6.656  0.3698  0.3944  0.2044
  160SAPE    HS17889   4.823   4.607   6.672 -0.5655  0.1808  1.6044
  160SAPE   O2117890   4.675   4.722   6.761 -0.0268  0.1341  0.7122
  160SAPE   C2117891   4.670   4.643   6.870 -0.6891  0.8725  0.0347
  160SAPE   O2217892   4.747   4.552   6.893  0.3794  0.0119 -0.2300
  160SAPE   C2217893   4.544   4.677   6.955 -0.1344 -0.0075  0.1359
  160SAPE   H2R17894   4.455   4.670   6.889  1.5538 -0.1099 -2.2649
  160SAPE   H2S17895   4.550   4.608   7.043  4.8235  0.4444  0.4608
  160SAPE    C317896   4.889   4.810   6.681 -0.2095 -0.0198 -0.0199
  160SAPE    HX17897   4.865   4.913   6.646  3.0094  1.4430  1.5985
  160SAPE    HY17898   4.972   4.769   6.620 -0.9975 -0.7840 -0.6120
  160SAPE   O3117899   4.935   4.809   6.818  0.1846  0.3206 -0.7632
  160SAPE   C3117900   5.056   4.841   6.846 -0.0521 -0.2681  0.3900
  160SAPE   O3217901   5.147   4.874   6.773  0.5603  0.3438  0.6125
  160SAPE   C3217902   5.068   4.828   6.999  0.3178  0.4341  0.7683
  160SAPE   H2X17903   5.138   4.742   7.008  0.6090  0.4609 -0.9056
  160SAPE   H2Y17904   4.970   4.808   7.048 -1.0175  5.1648  0.4819
  160SAPE   C2317905   4.557   4.825   7.007 -0.0995  0.5937 -0.5401
  160SAPE   H3R17906   4.460   4.835   7.061 -0.3234 -1.7844 -0.3960
  160SAPE   H3S17907   4.537   4.891   6.920  2.0228  0.5440 -1.1301
  160SAPE   C2417908   4.685   4.857   7.088 -0.3596  0.5639 -0.1800
  160SAPE   H4R17909   4.776   4.827   7.033 -1.2992 -0.9292 -0.9751
  160SAPE   H4S17910   4.708   4.797   7.179 -0.2852  2.1029  0.8495
  160SAPE   C2517911   4.701   5.003   7.106 -0.6629 -0.9003 -0.2024
  160SAPE   H5R17912   4.694   5.059   7.011 -2.2280 -0.2976  0.2376
  160SAPE   C2617913   4.744   5.075   7.216  1.1864 -0.1659  0.4694
  160SAPE   H6R17914   4.751   5.183   7.196  0.2126 -0.4277 -1.4922
  160SAPE   C2717915   4.790   5.027   7.347  0.0397  0.7088 -0.7045
  160SAPE   H7R17916   4.842   4.929   7.333 -1.8726 -0.1888 -2.0166
  160SAPE   H7S17917   4.697   4.995   7.399  0.2827 -1.2528 -1.3886
  160SAPE   C2817918   4.868   5.122   7.425  0.1037  0.1466 -0.0474
  160SAPE   H8R17919   4.903   5.213   7.373  0.7304  0.6654  1.2422
  160SAPE   C2917920   4.904   5.114   7.555 -0.1772 -0.5697 -0.3957
  160SAPE   H9R17921   4.960   5.198   7.597  1.1982 -1.1578 -0.9775
  160SAPE  C21017922   4.870   5.014   7.665 -0.1112 -0.5673 -0.1693
  160SAPE  H10R17923   4.823   4.922   7.624 -0.0369 -0.9960  0.6862
  160SAPE  H10S17924   4.790   5.062   7.725 -2.7210 -3.1350 -1.3438
  160SAPE  C21117925   4.993   4.981   7.757  0.3996 -0.1093  1.1808
  160SAPE  H11R17926   5.089   4.976   7.704  0.0935  0.3593  0.5714
  160SAPE  C21217927   4.985   4.950   7.885 -0.0684  0.6355  0.4496
  160SAPE  H12R17928   5.078   4.911   7.926 -0.2797 -0.8773 -0.4608
  160SAPE  C21317929   4.862   4.934   7.964  0.2828  0.3126  0.2476
  160SAPE  H13R17930   4.861   4.834   8.012  3.7388  0.5379  1.0001
  160SAPE  H13S17931   4.772   4.926   7.899  1.3379 -1.5279 -1.0895
  160SAPE  C21417932   4.824   5.047   8.060  0.0343  0.3919 -0.3273
  160SAPE  H14R17933   4.891   5.134   8.054  1.7997 -1.0154 -2.9549
  160SAPE  C21517934   4.722   5.042   8.151  0.9665 -0.6112  0.2560
  160SAPE  H15R17935   4.711   5.132   8.213  4.0089 -0.5999  0.9601
  160SAPE  C21617936   4.626   4.928   8.169  0.3321  0.0314 -0.0073
  160SAPE  H16R17937   4.613   4.877   8.071 -0.0939 -3.4141  1.6588
  160SAPE  H16S17938   4.527   4.963   8.204  0.1644  0.1324 -0.5821
  160SAPE  C21717939   4.684   4.826   8.271  0.3468 -0.1834 -0.0085
  160SAPE  H17R17940   4.717   4.872   8.367 -2.1728  0.1893  0.7691
  160SAPE  H17S17941   4.768   4.776   8.219 -0.0484 -1.6919  0.7516
  160SAPE  C21817942   4.577   4.713   8.307  0.3035  0.2738 -0.7921
  160SAPE  H18R17943   4.552   4.643   8.225 -1.3477 -0.5803  0.3868
  160SAPE  H18S17944   4.477   4.751   8.337 -0.6331 -2.1001 -0.7082
  160SAPE  C21917945   4.620   4.630   8.427 -0.2428  0.8568  0.1550
  160SAPE  H19R17946   4.546   4.547   8.425  0.3700  0.2763  1.0944
  160SAPE  H19S17947   4.599   4.691   8.517 -1.9249  2.2549 -1.1036
  160SAPE  C22017948   4.755   4.570   8.424 -0.3189  0.2868 -0.7581
  160SAPE  H20R17949   4.766   4.504   8.513  1.7609  2.0972  0.4351
  160SAPE  H20S17950   4.836   4.645   8.415  0.7437 -1.0008 -2.4837
  160SAPE  H20T17951   4.767   4.501   8.338  2.9295  0.0970 -0.2929
  160SAPE   C3317952   5.129   4.957   7.061 -0.2553 -0.2138 -0.1932
  160SAPE   H3X17953   5.081   5.047   7.018  0.9681  0.7898  0.4622
  160SAPE   H3Y17954   5.237   4.970   7.038  0.1708  1.1464  2.1544
  160SAPE   C3417955   5.128   4.939   7.214  0.0929  0.1103 -0.3617
  160SAPE   H4X17956   5.024   4.909   7.240  0.1367  0.8797  0.7827
  160SAPE   H4Y17957   5.147   5.034   7.269 -0.0623 -0.0924  0.0444
  160SAPE   C3517958   5.223   4.839   7.275  0.1575  0.0942 -0.0933
  160SAPE   H5X17959   5.327   4.862   7.245 -0.0456 -0.5085 -1.3368
  160SAPE   H5Y17960   5.202   4.742   7.226 -1.2545  1.0573 -1.5233
  160SAPE   C3617961   5.200   4.825   7.426  0.3463 -0.5448  0.8209
  160SAPE   H6X17962   5.112   4.758   7.432 -0.6252  0.7319  1.3836
  160SAPE   H6Y17963   5.166   4.919   7.476  0.8779  0.4932 -0.6853
  160SAPE   C3717964   5.323   4.766   7.491  0.7372 -0.4142  0.3526
  160SAPE   H7X17965   5.394   4.851   7.492 -0.8190  0.9522 -0.1296
  160SAPE   H7Y17966   5.373   4.690   7.428 -0.1750 -0.3162 -0.5041
  160SAPE   C3817967   5.298   4.725   7.637  0.0746  0.0312 -0.0994
  160SAPE   H8X17968   5.224   4.643   7.635 -1.1523  1.1006 -1.9882
  160SAPE   H8Y17969   5.266   4.810   7.700 -2.0441 -0.4820 -0.4211
  160SAPE   C3917970   5.417   4.674   7.711 -0.3605 -0.5018  0.2750
  160SAPE   H9X17971   5.501   4.745   7.695 -1.1310  0.5806  0.8579
  160SAPE   H9Y17972   5.457   4.581   7.666  0.9635 -0.3519  1.0904
  160SAPE  C31017973   5.392   4.648   7.857  0.6742  0.1036  0.1919
  160SAPE  H10X17974   5.347   4.548   7.872  1.2914 -0.6217 -2.3923
  160SAPE  H10Y17975   5.312   4.715   7.896  0.1709  0.1257 -0.8560
  160SAPE  C31117976   5.525   4.652   7.929  0.0355 -0.6430  0.1161
  160SAPE  H11X17977   5.578   4.749   7.919 -2.1965  0.6581  0.1325
  160SAPE  H11Y17978   5.588   4.574   7.882 -0.2736  0.0296 -1.4898
  160SAPE  C31217979   5.507   4.616   8.081 -0.4080 -0.7380  0.6182
  160SAPE  H12X17980   5.609   4.584   8.109 -0.6806 -1.6780  0.5727
  160SAPE  H12Y17981   5.445   4.524   8.087 -0.7346 -0.6438 -0.8517
  160SAPE  C31317982   5.445   4.727   8.167  0.4612  0.3956 -0.3290
  160SAPE  H13X17983   5.360   4.769   8.111 -0.3758 -0.9913 -0.1588
  160SAPE  H13Y17984   5.513   4.813   8.181  1.6541 -0.6526  0.6112
  160SAPE  C31417985   5.393   4.676   8.301  0.3391 -0.3792 -0.2423
  160SAPE  H14X17986   5.482   4.672   8.368  0.2911  1.4814 -0.0319
  160SAPE  H14Y17987   5.340   4.578   8.303 -1.0819  0.3727  0.1928
  160SAPE  C31517988   5.292   4.776   8.357 -0.1902  0.1576  1.0246
  160SAPE  H15X17989   5.290   4.754   8.466 -1.6289 -0.1197  0.9616
  160SAPE  H15Y17990   5.187   4.754   8.329 -0.3119 -0.1143  1.6893
  160SAPE  C31617991   5.326   4.926   8.338 -1.1275  1.1442 -0.1674
  160SAPE  H16X17992   5.327   4.949   8.229  0.1876  1.0020 -0.2075
  160SAPE  H16Y17993   5.421   4.956   8.388 -1.0690 -0.5629  0.8328
  160SAPE  C31717994   5.224   5.018   8.400  0.6086  0.8213  0.0737
  160SAPE  H17X17995   5.250   5.126   8.394 -1.2132  1.2296 -1.1881
  160SAPE  H17Y17996   5.224   4.990   8.507  1.9033 -0.7718 -0.2975
  160SAPE  C31817997   5.072   5.010   8.350 -0.3675  0.9372  0.4310
  160SAPE  H18X17998   5.034   4.906   8.356  1.8825  0.0473  0.0155
  160SAPE  H18Y17999   5.067   5.051   8.247 -2.5105  1.0477  0.5384
  160SAPE  H18Z18000   5.019   5.074   8.424 -0.9697  1.6270 -0.5697
  161SAPE     N18001   0.240   2.852   6.114 -1.3171  0.1771  0.1533
  161SAPE   HN118002   0.286   2.927   6.169 -1.0941  0.9500 -1.0429
  161SAPE   HN218003   0.286   2.759   6.112 -0.1875  0.7305 -1.3286
  161SAPE   HN318004   0.237   2.877   6.013  1.3525 -3.5211 -1.0383
  161SAPE   C1218005   0.109   2.816   6.167  0.2661  0.2973  0.0150
  161SAPE  H12A18006   0.050   2.781   6.080  3.1085  1.1715 -2.4523
  161SAPE  H12B18007   0.063   2.906   6.212 -1.0707 -0.0041 -0.7241
  161SAPE   C1118008   0.111   2.723   6.290  0.6997 -0.4055 -0.3450
  161SAPE  H11A18009   0.011   2.708   6.335  0.7179  3.7029  1.4502
  161SAPE  H11B18010   0.173   2.770   6.369  1.7168 -0.4674 -1.0879
  161SAPE     P18011   0.309   2.545   6.261  0.0209 -0.1395 -0.0644
  161SAPE   O1318012   0.319   2.408   6.218 -0.0776  0.5319 -0.1324
  161SAPE   O1418013   0.380   2.646   6.176 -0.2638 -0.2910  0.8781
  161SAPE   O1218014   0.158   2.592   6.248  0.7581 -0.3614 -0.1481
  161SAPE   O1118015   0.355   2.566   6.414 -0.2583 -0.0401 -0.1947
  161SAPE    C118016   0.298   2.487   6.517  0.2253 -0.5279  0.4410
  161SAPE    HA18017   0.244   2.400   6.475  1.2020 -0.9872  0.0904
  161SAPE    HB18018   0.382   2.450   6.580  2.8999  0.8562 -2.0601
  161SAPE    C218019   0.199   2.566   6.599 -0.0155 -0.5705 -0.0721
  161SAPE    HS18020   0.113   2.601   6.539 -1.3634 -0.4370  1.8463
  161SAPE   O2118021   0.272   2.680   6.659 -0.0447  0.4776 -0.1609
  161SAPE   C2118022   0.190   2.780   6.695 -0.7776 -0.0670 -1.0953
  161SAPE   O2218023   0.072   2.772   6.711 -0.4906 -0.6908  0.5320
  161SAPE   C2218024   0.289   2.899   6.708  0.1716 -0.0796 -0.4357
  161SAPE   H2R18025   0.389   2.879   6.751 -0.0758  1.5059  0.9806
  161SAPE   H2S18026   0.310   2.935   6.605  0.6228  1.4737  0.1586
  161SAPE    C318027   0.150   2.474   6.714  0.1804  0.7755  0.4649
  161SAPE    HX18028   0.088   2.392   6.673 -1.0712  2.8471 -2.0523
  161SAPE    HY18029   0.071   2.525   6.774 -1.9672 -0.6121 -1.0223
  161SAPE   O3118030   0.254   2.418   6.801  0.0525  0.0929  0.2482
  161SAPE   C3118031   0.261   2.478   6.919 -0.1512 -0.0516 -0.6815
  161SAPE   O3218032   0.207   2.581   6.949 -0.0735 -0.5877  0.4403
  161SAPE   C3218033   0.367   2.402   7.004 -0.3723 -0.0905  0.7722
  161SAPE   H2X18034   0.455   2.387   6.938 -1.7452 -1.0795 -0.9037
  161SAPE   H2Y18035   0.319   2.306   7.033 -0.7973 -0.6089 -1.4891
  161SAPE   C2318036   0.238   3.028   6.790 -0.4634 -0.1783 -0.2459
  161SAPE   H3R18037   0.155   3.071   6.729 -0.0966  0.5925 -0.2103
  161SAPE   H3S18038   0.328   3.092   6.781 -1.2055  0.6903 -1.8838
  161SAPE   C2418039   0.195   2.996   6.928  0.2066 -0.5628  0.3511
  161SAPE   H4R18040   0.093   2.954   6.911 -0.1130  1.2686 -3.0559
  161SAPE   H4S18041   0.179   3.091   6.984  2.4526 -0.9339  1.7412
  161SAPE   C2518042   0.303   2.919   7.003 -0.1523  0.2319  0.6409
  161SAPE   H5R18043   0.361   2.849   6.941 -1.1823 -1.3144  1.3537
  161SAPE   C2618044   0.321   2.926   7.134  0.0566 -0.2630  0.2060
  161SAPE   H6R18045   0.412   2.877   7.172  1.4181  0.3239 -2.0933
  161SAPE   C2718046   0.243   2.997   7.238 -0.3462 -0.3395  0.7932
  161SAPE   H7R18047   0.219   2.915   7.309  0.4578 -3.1187 -1.9732
  161SAPE   H7S18048   0.150   3.039   7.193  0.5827  1.7731  0.7340
  161SAPE   C2818049   0.307   3.115   7.301 -0.1755 -0.5583 -0.2047
  161SAPE   H8R18050   0.390   3.158   7.244  0.0412 -0.3969  0.2302
  161SAPE   C2918051   0.260   3.159   7.423  0.0309  0.4740  0.1265
  161SAPE   H9R18052   0.310   3.249   7.463  1.2963 -0.1965  0.1263
  161SAPE  C21018053   0.139   3.105   7.499 -0.6525 -0.1261 -0.0862
  161SAPE  H10R18054   0.135   2.994   7.499  0.0004 -0.1629  0.9528
  161SAPE  H10S18055   0.045   3.135   7.448 -0.2843  1.0968 -0.0651
  161SAPE  C21118056   0.141   3.160   7.640  0.4634 -0.5428  0.5115
  161SAPE  H11R18057   0.113   3.265   7.653  2.4705  0.2978 -1.2916
  161SAPE  C21218058   0.183   3.107   7.753  0.3818  0.2930  0.3217
  161SAPE  H12R18059   0.158   3.160   7.846 -1.3697  0.5114 -0.2462
  161SAPE  C21318060   0.251   2.973   7.771 -0.3808 -0.3347  0.1969
  161SAPE  H13R18061   0.283   2.951   7.667  1.0601  4.1589 -0.5254
  161SAPE  H13S18062   0.175   2.905   7.816  0.0337 -1.7666 -1.1914
  161SAPE  C21418063   0.377   2.984   7.855 -0.0418 -0.4147 -0.0529
  161SAPE  H14R18064   0.470   3.007   7.802  0.5937 -0.9343  0.8021
  161SAPE  C21518065   0.372   2.985   7.992 -0.0473  0.3239 -0.3810
  161SAPE  H15R18066   0.465   2.981   8.051 -1.7990 -1.4913  2.5412
  161SAPE  C21618067   0.251   2.973   8.072 -0.1619  0.2338 -0.3062
  161SAPE  H16R18068   0.173   2.934   8.004  0.3952  1.9598 -2.0242
  161SAPE  H16S18069   0.234   3.070   8.124 -0.8491 -0.0294 -0.0340
  161SAPE  C21718070   0.258   2.868   8.186 -0.5031 -0.2295  0.4340
  161SAPE  H17R18071   0.276   2.770   8.137  0.8133 -0.2468  0.9232
  161SAPE  H17S18072   0.165   2.865   8.247  0.0154 -0.0103  1.2425
  161SAPE  C21818073   0.383   2.898   8.278 -0.4532  0.7917 -0.5705
  161SAPE  H18R18074   0.394   3.008   8.278  0.3852  0.7441  0.8493
  161SAPE  H18S18075   0.469   2.863   8.216 -0.0610 -0.2902  0.5275
  161SAPE  C21918076   0.384   2.833   8.414 -0.8814 -0.4974 -0.1393
  161SAPE  H19R18077   0.332   2.739   8.390  0.1637 -0.6322 -2.1586
  161SAPE  H19S18078   0.329   2.892   8.490 -0.3144 -0.3116  0.1371
  161SAPE  C22018079   0.523   2.793   8.464 -0.5948 -0.2016  0.6576
  161SAPE  H20R18080   0.600   2.867   8.431 -0.0468  0.0076  2.3196
  161SAPE  H20S18081   0.553   2.692   8.428 -2.3802 -0.5374  0.0474
  161SAPE  H20T18082   0.518   2.797   8.575  0.1787  1.6349  0.6644
  161SAPE   C3318083   0.393   2.469   7.145 -0.3945  0.7582  0.2191
  161SAPE   H3X18084   0.414   2.394   7.224  0.0381 -1.3292 -1.7738
  161SAPE   H3Y18085   0.299   2.523   7.169 -0.3204  1.1694 -0.3901
  161SAPE   C3418086   0.504   2.576   7.141  0.0915 -0.6248 -0.0641
  161SAPE   H4X18087   0.470   2.662   7.079 -0.0593  0.8243  1.9084
  161SAPE   H4Y18088   0.578   2.512   7.090  0.9208 -0.6534  1.1468
  161SAPE   C3518089   0.552   2.625   7.277  0.0620  0.5915  0.1293
  161SAPE   H5X18090   0.461   2.644   7.338 -0.0411  0.0764  0.1368
  161SAPE   H5Y18091   0.602   2.723   7.262  0.6042  0.0403 -1.9229
  161SAPE   C3618092   0.658   2.523   7.329 -0.0894  0.0647 -0.7138
  161SAPE   H6X18093   0.737   2.518   7.251  1.8124  0.1396  1.1222
  161SAPE   H6Y18094   0.615   2.423   7.353  1.8373 -0.2334  1.9091
  161SAPE   C3718095   0.742   2.566   7.455 -0.1497 -0.5410  0.2197
  161SAPE   H7X18096   0.816   2.642   7.420  0.5995 -1.2465  0.2456
  161SAPE   H7Y18097   0.808   2.485   7.492 -0.2257 -0.1235  1.3131
  161SAPE   C3818098   0.655   2.620   7.571 -0.5237  1.0114  0.0432
  161SAPE   H8X18099   0.623   2.721   7.537 -4.0390  0.0283  0.0601
  161SAPE   H8Y18100   0.722   2.639   7.657  1.1873  0.3647 -1.0817
  161SAPE   C3918101   0.545   2.527   7.607 -0.1216 -0.1611 -0.0157
  161SAPE   H9X18102   0.588   2.425   7.617 -1.1540 -0.4756  1.7352
  161SAPE   H9Y18103   0.474   2.533   7.522 -1.0892 -0.4145  0.7606
  161SAPE  C31018104   0.467   2.556   7.734 -0.2038  0.0890  0.2247
  161SAPE  H10X18105   0.377   2.490   7.738  0.7669 -1.2391  2.1393
  161SAPE  H10Y18106   0.436   2.662   7.748 -1.5432 -0.3388  0.7005
  161SAPE  C31118107   0.546   2.508   7.854 -0.2256 -0.8413 -0.8891
  161SAPE  H11X18108   0.633   2.576   7.863 -1.4947  0.6226  1.4180
  161SAPE  H11Y18109   0.573   2.402   7.839  0.7573 -1.3307  3.2611
  161SAPE  C31218110   0.466   2.522   7.984 -0.8046  0.6811 -0.1241
  161SAPE  H12X18111   0.392   2.442   8.003  0.1964 -0.3248 -0.3830
  161SAPE  H12Y18112   0.409   2.617   7.995 -0.7871  0.6280  0.4660
  161SAPE  C31318113   0.555   2.534   8.107 -0.4934  0.2855 -0.1474
  161SAPE  H13X18114   0.486   2.544   8.193  0.5914  0.8548  0.6733
  161SAPE  H13Y18115   0.612   2.629   8.098 -0.5189  0.3962  0.7765
  161SAPE  C31418116   0.644   2.411   8.135  0.0924 -0.7688 -0.2788
  161SAPE  H14X18117   0.731   2.418   8.067  0.3322  2.0150  0.1892
  161SAPE  H14Y18118   0.585   2.318   8.128  0.1707 -0.6687 -3.7922
  161SAPE  C31518119   0.708   2.414   8.272  0.4281  0.1318 -0.2156
  161SAPE  H15X18120   0.626   2.405   8.346 -2.5283  0.2740 -3.2477
  161SAPE  H15Y18121   0.764   2.509   8.286  0.5894 -0.3143  2.8397
  161SAPE  C31618122   0.811   2.299   8.296 -0.1625 -0.5647  0.0987
  161SAPE  H16X18123   0.880   2.325   8.378  1.2072 -1.3978 -0.7507
  161SAPE  H16Y18124   0.889   2.283   8.218  0.6102 -1.7654  1.0849
  161SAPE  C31718125   0.748   2.157   8.308  0.0586 -0.5944 -0.3584
  161SAPE  H17X18126   0.670   2.152   8.230  0.1681  1.6157 -0.6961
  161SAPE  H17Y18127   0.688   2.151   8.401 -0.1624 -0.6668 -0.5067
  161SAPE  C31818128   0.842   2.041   8.286  0.9325 -0.1507 -0.1526
  161SAPE  H18X18129   0.785   1.946   8.273  0.8369 -0.1919  0.5094
  161SAPE  H18Y18130   0.898   2.029   8.381  1.9250 -2.3315 -0.9534
  161SAPE  H18Z18131   0.904   2.044   8.194 -1.9945  1.6923 -2.2689
  162SAPE     N18132   5.552   6.365   6.048  0.2411 -0.1554  0.0542
  162SAPE   HN118133   5.457   6.406   6.042 -1.1357 -3.0208  0.6907
  162SAPE   HN218134   5.617   6.416   5.985 -1.4867 -0.6602 -2.2315
  162SAPE   HN318135   5.561   6.265   6.020  0.3207  0.3333 -1.7826
  162SAPE   C1218136   5.599   6.380   6.189 -0.5487 -0.1296 -0.6516
  162SAPE  H12A18137   5.614   6.488   6.213 -1.0006  0.0035 -0.9539
  162SAPE  H12B18138   5.696   6.326   6.184 -0.0514  0.8438 -2.1524
  162SAPE   C1118139   5.497   6.313   6.294  0.3989 -0.0602 -0.0967
  162SAPE  H11A18140   5.422   6.392   6.316 -0.9943 -1.0771 -1.0732
  162SAPE  H11B18141   5.555   6.295   6.387  0.0998 -0.1710  0.0718
  162SAPE     P18142   5.488   6.059   6.238 -0.2965  0.2306  0.1918
  162SAPE   O1318143   5.405   5.976   6.155  0.3464  0.0763  0.4229
  162SAPE   O1418144   5.633   6.060   6.203  0.4842  0.1851  0.2109
  162SAPE   O1218145   5.435   6.202   6.231 -0.2447 -0.4839  0.0436
  162SAPE   O1118146   5.463   6.030   6.392  0.1384  0.2501 -0.3215
  162SAPE    C118147   5.323   5.993   6.416 -0.9964 -0.2953  0.1981
  162SAPE    HA18148   5.258   6.037   6.337  0.4706  2.8791  0.5989
  162SAPE    HB18149   5.305   5.883   6.421 -1.2204 -0.2272  1.0178
  162SAPE    C218150   5.266   6.042   6.551 -0.7073  0.0951  0.5612
  162SAPE    HS18151   5.160   6.010   6.564 -0.8130  0.9741  2.1756
  162SAPE   O2118152   5.287   6.180   6.567  0.5780  0.0311 -0.3329
  162SAPE   C2118153   5.198   6.256   6.504 -0.5357 -0.3777  0.3709
  162SAPE   O2218154   5.110   6.210   6.432 -0.2654 -0.3299 -0.2486
  162SAPE   C2218155   5.226   6.402   6.535 -0.3410 -0.0775 -0.0225
  162SAPE   H2R18156   5.336   6.409   6.532 -0.1305 -1.8657  1.5240
  162SAPE   H2S18157   5.167   6.462   6.462 -0.2892 -1.3300 -1.1180
  162SAPE    C318158   5.334   5.968   6.674 -0.1580 -0.8936  0.3840
  162SAPE    HX18159   5.435   6.015   6.671 -0.4321 -0.2918  0.3637
  162SAPE    HY18160   5.332   5.857   6.668 -1.3432 -1.0894  2.8395
  162SAPE   O3118161   5.263   6.010   6.795  0.1368  0.3320  0.0379
  162SAPE   C3118162   5.157   5.940   6.827  0.0245  0.2014  0.2735
  162SAPE   O3218163   5.117   5.836   6.774 -0.0675 -0.0336 -0.6405
  162SAPE   C3218164   5.100   6.003   6.954 -1.3898  0.0820  0.3317
  162SAPE   H2X18165   4.995   6.022   6.924 -1.2621  1.6197  0.7600
  162SAPE   H2Y18166   5.151   6.096   6.987  0.5026 -0.2767 -1.4355
  162SAPE   C2318167   5.180   6.448   6.675 -0.2224 -0.0736  0.1567
  162SAPE   H3R18168   5.221   6.552   6.671  0.8065 -0.4985 -2.4219
  162SAPE   H3S18169   5.237   6.394   6.754  0.8158  1.2399  0.3508
  162SAPE   C2418170   5.024   6.451   6.694 -0.4311  0.0735 -0.0592
  162SAPE   H4R18171   4.982   6.461   6.591 -0.4898 -0.1078 -0.0532
  162SAPE   H4S18172   4.998   6.542   6.752 -0.1914  0.6822 -0.8878
  162SAPE   C2518173   4.972   6.320   6.738  0.5029  0.0629 -0.4527
  162SAPE   H5R18174   4.978   6.238   6.665  0.3336 -0.5939  0.2580
  162SAPE   C2618175   4.924   6.289   6.858 -0.5886 -0.1889 -0.2891
  162SAPE   H6R18176   4.896   6.186   6.887  1.8092 -1.4516 -2.0538
  162SAPE   C2718177   4.915   6.390   6.964 -0.2063  0.4805  0.4283
  162SAPE   H7R18178   4.823   6.363   7.022 -1.5194 -1.6349 -2.4209
  162SAPE   H7S18179   4.896   6.488   6.916 -1.0441 -0.0448 -0.3349
  162SAPE   C2818180   5.039   6.415   7.052  1.1344 -0.8095  0.5481
  162SAPE   H8R18181   5.122   6.459   6.994  0.0177  0.4349 -0.1601
  162SAPE   C2918182   5.059   6.395   7.182 -0.1978 -0.5276  0.5579
  162SAPE   H9R18183   5.150   6.433   7.229  1.1247 -1.7092 -0.9398
  162SAPE  C21018184   4.957   6.340   7.273  0.6474 -0.9633  0.2765
  162SAPE  H10R18185   4.982   6.249   7.331  1.9420 -0.6382  0.2600
  162SAPE  H10S18186   4.872   6.301   7.213 -0.7278  2.0588  0.0758
  162SAPE  C21118187   4.897   6.439   7.370 -0.7448 -0.3899  0.4509
  162SAPE  H11R18188   4.813   6.497   7.328 -1.6608 -2.9296 -1.5234
  162SAPE  C21218189   4.936   6.458   7.494  0.3425 -0.4513  0.4156
  162SAPE  H12R18190   4.892   6.542   7.550 -1.3173 -1.6412  0.9935
  162SAPE  C21318191   5.045   6.378   7.567 -0.2065  0.4235 -0.4876
  162SAPE  H13R18192   5.128   6.444   7.599 -1.5485  1.2128  1.6665
  162SAPE  H13S18193   5.085   6.307   7.491 -2.7190 -0.2915 -1.2435
  162SAPE  C21418194   4.978   6.305   7.683  0.2452  0.1922 -0.2823
  162SAPE  H14R18195   4.886   6.250   7.659  0.1605  0.2008  0.0086
  162SAPE  C21518196   5.010   6.296   7.814 -0.9317 -0.0249  0.5602
  162SAPE  H15R18197   4.960   6.227   7.884 -0.6221 -0.2163  0.5934
  162SAPE  C21618198   5.132   6.359   7.874  1.0261 -0.8190 -0.0500
  162SAPE  H16R18199   5.200   6.382   7.789 -0.5105 -0.9706 -1.3791
  162SAPE  H16S18200   5.186   6.292   7.944  0.3652 -1.2321  0.0709
  162SAPE  C21718201   5.090   6.494   7.943 -0.5462  0.1582 -0.4031
  162SAPE  H17R18202   5.024   6.469   8.028 -0.8922  0.8615 -0.4634
  162SAPE  H17S18203   5.040   6.555   7.865 -0.8744 -0.6111 -0.8102
  162SAPE  C21818204   5.221   6.562   7.994 -0.0165  0.2435 -0.4175
  162SAPE  H18R18205   5.212   6.672   7.996 -4.7443  0.1126 -2.2805
  162SAPE  H18S18206   5.293   6.531   7.915  0.4558 -0.4921  0.2918
  162SAPE  C21918207   5.265   6.515   8.133 -0.2684  0.4689  0.1111
  162SAPE  H19R18208   5.316   6.416   8.133  0.1246  0.6067 -2.0982
  162SAPE  H19S18209   5.183   6.520   8.207  0.3325  0.1497  0.8176
  162SAPE  C22018210   5.381   6.606   8.183 -0.6864 -0.5124 -0.0657
  162SAPE  H20R18211   5.426   6.574   8.279  3.8351 -0.4918 -1.9059
  162SAPE  H20S18212   5.352   6.712   8.193 -1.0472 -0.7504  1.6303
  162SAPE  H20T18213   5.470   6.596   8.116 -1.5200  1.9657 -1.6767
  162SAPE   C3318214   5.110   5.903   7.064 -0.5654  0.2974  0.3334
  162SAPE   H3X18215   5.220   5.912   7.082 -0.5539  0.0266  0.4041
  162SAPE   H3Y18216   5.076   5.800   7.038 -0.0074  0.7177 -2.2499
  162SAPE   C3418217   5.044   5.948   7.188 -0.8235  1.1865 -0.2911
  162SAPE   H4X18218   4.938   5.979   7.180 -1.1305  0.9368  1.9862
  162SAPE   H4Y18219   5.095   6.040   7.226 -0.6251  0.2919  1.7637
  162SAPE   C3518220   5.060   5.847   7.302  0.1388  0.0496  0.7349
  162SAPE   H5X18221   5.169   5.828   7.314  0.1504 -0.6320 -0.3717
  162SAPE   H5Y18222   5.009   5.752   7.279  0.3000  0.3474 -0.9987
  162SAPE   C3618223   5.006   5.913   7.428 -0.4424 -0.8543 -0.1178
  162SAPE   H6X18224   4.899   5.915   7.400  0.0716 -0.2685 -2.2161
  162SAPE   H6Y18225   5.048   6.014   7.449 -0.0273 -0.8908 -0.7332
  162SAPE   C3718226   5.038   5.828   7.551 -0.3961  0.0548  0.3470
  162SAPE   H7X18227   5.147   5.808   7.540 -0.4288 -0.9364  1.5591
  162SAPE   H7Y18228   4.980   5.735   7.534 -0.5486  0.5519 -2.1291
  162SAPE   C3818229   5.010   5.890   7.688 -1.1352 -0.4879  0.1958
  162SAPE   H8X18230   4.902   5.915   7.693 -0.6407  1.9130 -0.0613
  162SAPE   H8Y18231   5.070   5.981   7.706 -1.0138 -0.3425 -0.9209
  162SAPE   C3918232   5.041   5.788   7.798 -0.8597  0.9095  0.9245
  162SAPE   H9X18233   5.151   5.770   7.803 -1.3169 -2.3591  0.9380
  162SAPE   H9Y18234   5.000   5.688   7.775 -1.9051  1.1167  1.8235
  162SAPE  C31018235   5.013   5.826   7.938  0.6048  0.5148  1.1222
  162SAPE  H10X18236   4.999   5.733   7.996 -0.4539 -1.0661 -1.4980
  162SAPE  H10Y18237   4.918   5.884   7.937  0.1428 -0.2099  1.6772
  162SAPE  C31118238   5.121   5.921   8.000 -0.4888 -0.3835 -0.2764
  162SAPE  H11X18239   5.134   6.003   7.927 -1.1106 -0.7056 -0.7565
  162SAPE  H11Y18240   5.220   5.871   8.003  1.6593  3.4568 -0.8533
  162SAPE  C31218241   5.091   5.982   8.134 -0.4157  0.5097  0.6480
  162SAPE  H12X18242   5.074   5.905   8.212  0.3452 -0.6356 -0.2819
  162SAPE  H12Y18243   4.997   6.040   8.119  0.7268  2.2196 -0.2752
  162SAPE  C31318244   5.189   6.090   8.178 -0.1987  0.9533 -0.7483
  162SAPE  H13X18245   5.178   6.180   8.114  1.5152 -0.2464 -2.8844
  162SAPE  H13Y18246   5.294   6.055   8.173 -0.7705 -0.8398 -1.0141
  162SAPE  C31418247   5.154   6.148   8.316  0.0104 -0.0246  0.5415
  162SAPE  H14X18248   5.117   6.067   8.383 -1.3453 -0.7019 -0.9661
  162SAPE  H14Y18249   5.070   6.220   8.304  0.2250 -0.1633 -2.3670
  162SAPE  C31518250   5.276   6.213   8.378 -0.4146 -0.0209  0.2171
  162SAPE  H15X18251   5.307   6.287   8.301 -3.7817  1.9005  0.5059
  162SAPE  H15Y18252   5.360   6.141   8.385  0.0788  0.2042 -2.4167
  162SAPE  C31618253   5.241   6.284   8.511 -0.1114 -0.4735 -0.7345
  162SAPE  H16X18254   5.172   6.371   8.498  0.5297  0.6067  2.3085
  162SAPE  H16Y18255   5.338   6.306   8.560 -0.8138  1.0641  0.0489
  162SAPE  C31718256   5.160   6.195   8.609  0.1575 -0.6044  0.3445
  162SAPE  H17X18257   5.061   6.165   8.570  1.4138 -3.6659 -0.8011
  162SAPE  H17Y18258   5.145   6.259   8.698 -0.0179  0.3702 -0.3693
  162SAPE  C31818259   5.236   6.070   8.644 -0.6234 -0.4227  0.2279
  162SAPE  H18X18260   5.343   6.075   8.617 -1.1620 -0.7070 -2.2897
  162SAPE  H18Y18261   5.199   5.988   8.579  1.1635 -0.7718 -0.3971
  162SAPE  H18Z18262   5.215   6.051   8.751  0.6053  1.4225  0.8534
  163SAPE     N18263   4.230   4.063   6.364  0.1792  0.2594  0.5770
  163SAPE   HN118264   4.152   4.036   6.428  0.9218  0.7068  1.7046
  163SAPE   HN218265   4.313   4.097   6.417 -0.0459 -0.2938  1.2931
  163SAPE   HN318266   4.202   4.137   6.296  3.0092 -0.2680 -1.3206
  163SAPE   C1218267   4.277   3.944   6.284 -0.5304  0.6817 -0.5741
  163SAPE  H12A18268   4.353   3.981   6.211 -0.9907  2.4950 -0.1866
  163SAPE  H12B18269   4.188   3.902   6.232 -0.6164  0.0380  0.0803
  163SAPE   C1118270   4.346   3.840   6.384 -0.3715 -0.4777 -0.2041
  163SAPE  H11A18271   4.438   3.896   6.412 -0.2994 -0.7946  0.2078
  163SAPE  H11B18272   4.382   3.755   6.322 -0.6049 -0.6655 -0.0841
  163SAPE     P18273   4.261   3.667   6.564 -0.1378  0.0983  0.3053
  163SAPE   O1318274   4.139   3.637   6.635 -0.7507 -0.3247 -0.3668
  163SAPE   O1418275   4.304   3.572   6.460 -0.5953  0.1246 -0.1851
  163SAPE   O1218276   4.268   3.815   6.501  0.2350 -0.1847  0.0856
  163SAPE   O1118277   4.368   3.666   6.682 -0.3667 -0.0133 -0.3180
  163SAPE    C118278   4.447   3.782   6.714 -0.7967  0.7745 -0.0152
  163SAPE    HA18279   4.542   3.735   6.748 -2.3603 -2.0980  0.7129
  163SAPE    HB18280   4.458   3.855   6.631  0.0822  1.6857  0.8756
  163SAPE    C218281   4.393   3.861   6.839 -0.0788  0.1335  0.4075
  163SAPE    HS18282   4.464   3.946   6.846  0.1268  0.0725 -0.6850
  163SAPE   O2118283   4.378   3.775   6.951  0.2034 -0.5140 -0.4242
  163SAPE   C2118284   4.496   3.768   7.024 -0.1724 -0.1272  0.6760
  163SAPE   O2218285   4.594   3.835   6.998 -0.0886  0.0785  0.0094
  163SAPE   C2218286   4.476   3.673   7.142  0.8440  0.1498 -1.1223
  163SAPE   H2R18287   4.370   3.642   7.130  0.8389  0.0847 -0.9086
  163SAPE   H2S18288   4.534   3.579   7.129 -0.0948 -0.2036 -3.0990
  163SAPE    C318289   4.259   3.916   6.806  0.8415  0.4099  0.5744
  163SAPE    HX18290   4.187   3.833   6.791 -1.0909  2.1214 -0.1119
  163SAPE    HY18291   4.268   3.978   6.714  0.3621 -1.3781 -0.7347
  163SAPE   O3118292   4.203   4.002   6.914 -0.1950  0.6238 -0.6264
  163SAPE   C3118293   4.075   4.002   6.928  0.0111  1.1676 -0.2186
  163SAPE   O3218294   3.995   3.966   6.846  0.1632  0.5654 -0.2504
  163SAPE   C3218295   4.040   4.060   7.064  0.5241  0.6634 -0.2400
  163SAPE   H2X18296   4.039   4.170   7.050  0.9335  0.6296 -0.5554
  163SAPE   H2Y18297   4.105   4.031   7.150 -0.8516  2.2039  1.3974
  163SAPE   C2318298   4.479   3.736   7.283 -0.0054  0.0621 -0.2623
  163SAPE   H3R18299   4.567   3.804   7.293 -0.7659  0.7086  3.6513
  163SAPE   H3S18300   4.497   3.647   7.348  1.6551  0.1153 -0.5994
  163SAPE   C2418301   4.350   3.808   7.305 -0.1004  0.5423 -0.0844
  163SAPE   H4R18302   4.270   3.731   7.294  1.4979 -1.5382  1.9673
  163SAPE   H4S18303   4.325   3.878   7.222  0.4231  0.8814  0.0363
  163SAPE   C2518304   4.363   3.888   7.427  0.5371  0.2688 -0.5716
  163SAPE   H5R18305   4.445   3.962   7.429  0.1956  0.6406  0.9795
  163SAPE   C2618306   4.296   3.870   7.544 -0.0859 -0.0065  0.1718
  163SAPE   H6R18307   4.298   3.954   7.615 -1.1691 -1.3012  1.8089
  163SAPE   C2718308   4.197   3.758   7.567 -0.4193  0.5143  0.0258
  163SAPE   H7R18309   4.252   3.666   7.594  1.2734  0.9271 -1.8103
  163SAPE   H7S18310   4.154   3.732   7.468  0.7596  0.7816 -0.5740
  163SAPE   C2818311   4.081   3.788   7.661  0.1934 -0.4209  0.3814
  163SAPE   H8R18312   3.992   3.817   7.603  0.1797  0.7077  0.9534
  163SAPE   C2918313   4.082   3.778   7.794  0.3977 -0.2158  0.2508
  163SAPE   H9R18314   3.989   3.793   7.852  1.0374 -1.1975  1.5886
  163SAPE  C21018315   4.198   3.742   7.881  0.0106 -0.0261  0.9945
  163SAPE  H10R18316   4.225   3.832   7.940  1.3989  1.5730 -1.8863
  163SAPE  H10S18317   4.286   3.722   7.816 -0.9892 -1.9673  0.1374
  163SAPE  C21118318   4.181   3.618   7.972  0.0576 -1.1808  0.2013
  163SAPE  H11R18319   4.167   3.521   7.922  0.6225 -0.5442 -1.2419
  163SAPE  C21218320   4.160   3.629   8.104  0.0165  0.4409  0.0864
  163SAPE  H12R18321   4.144   3.542   8.169  0.0396 -0.8773 -1.6344
  163SAPE  C21318322   4.143   3.759   8.181  0.4757  0.6341  0.1842
  163SAPE  H13R18323   4.111   3.841   8.113 -0.8301  0.8101  0.9805
  163SAPE  H13S18324   4.239   3.793   8.227  0.5857  0.4703  0.0790
  163SAPE  C21418325   4.038   3.750   8.285  0.2437 -0.5778  0.1829
  163SAPE  H14R18326   3.939   3.788   8.254 -0.4518 -1.8959  0.6696
  163SAPE  C21518327   4.051   3.689   8.403  0.5417  0.8281  0.0310
  163SAPE  H15R18328   3.969   3.680   8.475  1.2665  3.1143  1.2272
  163SAPE  C21618329   4.173   3.618   8.453  0.3548 -0.4954  0.4548
  163SAPE  H16R18330   4.215   3.548   8.378 -0.6427 -0.1139 -0.4939
  163SAPE  H16S18331   4.143   3.546   8.532  0.7074 -1.5010 -0.3089
  163SAPE  C21718332   4.287   3.710   8.497  0.2282 -0.2572  0.6244
  163SAPE  H17R18333   4.314   3.778   8.414 -0.5459  0.3825  0.8835
  163SAPE  H17S18334   4.378   3.652   8.524  1.1935 -0.3062 -2.3706
  163SAPE  C21818335   4.259   3.805   8.617  0.0628  0.3469 -0.4227
  163SAPE  H18R18336   4.232   3.739   8.703  0.6636  0.8963  0.2074
  163SAPE  H18S18337   4.164   3.857   8.594 -0.0361  0.3673  0.0268
  163SAPE  C21918338   4.384   3.880   8.651  0.1663 -0.6735  0.2384
  163SAPE  H19R18339   4.423   3.920   8.555 -0.1802  1.9030  1.1014
  163SAPE  H19S18340   4.451   3.804   8.696  0.7637 -0.9906 -1.1282
  163SAPE  C22018341   4.359   4.000   8.745 -1.0344  0.4607 -0.1424
  163SAPE  H20R18342   4.328   3.967   8.847  1.2239  1.0376  0.7881
  163SAPE  H20S18343   4.293   4.074   8.695 -2.3455  0.2886  1.2573
  163SAPE  H20T18344   4.455   4.053   8.766 -1.4607  0.9939  0.5099
  163SAPE   C3318345   3.889   4.022   7.103 -0.4477  0.8530 -0.2615
  163SAPE   H3X18346   3.886   3.912   7.123 -1.7566  0.8370 -0.4964
  163SAPE   H3Y18347   3.820   4.053   7.022  0.1833  1.6381 -0.5092
  163SAPE   C3418348   3.844   4.078   7.237  0.2845  0.8216  0.2294
  163SAPE   H4X18349   3.803   4.178   7.215  1.6736  1.1147 -1.2255
  163SAPE   H4Y18350   3.939   4.105   7.287  2.0117 -0.4729 -2.1241
  163SAPE   C3518351   3.762   3.980   7.326  0.0284 -0.1849  0.3488
  163SAPE   H5X18352   3.808   3.879   7.319 -2.5377 -1.4627  0.3196
  163SAPE   H5Y18353   3.657   3.984   7.289 -0.1630  0.3545  0.9264
  163SAPE   C3618354   3.774   4.020   7.480 -0.2649  0.0596 -0.2341
  163SAPE   H6X18355   3.724   4.119   7.479  0.4941  0.4677 -2.3453
  163SAPE   H6Y18356   3.880   4.025   7.511 -0.6716 -0.9845  1.5144
  163SAPE   C3718357   3.694   3.918   7.571  0.0885 -0.2124  0.1440
  163SAPE   H7X18358   3.732   3.814   7.573 -0.4461 -0.4795 -1.8982
  163SAPE   H7Y18359   3.591   3.910   7.530  0.2443 -1.1152 -0.0836
  163SAPE   C3818360   3.680   3.958   7.716 -0.4918 -0.0405  0.1792
  163SAPE   H8X18361   3.668   4.068   7.719  0.7532  0.0825  2.1943
  163SAPE   H8Y18362   3.784   3.940   7.751  0.1701  1.2635 -1.0255
  163SAPE   C3918363   3.564   3.890   7.791  0.2325  0.6266  0.0426
  163SAPE   H9X18364   3.571   3.784   7.759  1.4783 -0.0858  2.4724
  163SAPE   H9Y18365   3.470   3.943   7.765  1.6676  3.2551 -0.1695
  163SAPE  C31018366   3.587   3.887   7.940 -0.7042  0.1750 -0.2391
  163SAPE  H10X18367   3.496   3.869   8.001 -1.1870  0.9041 -0.7289
  163SAPE  H10Y18368   3.626   3.981   7.986  1.0137 -0.5412 -0.1327
  163SAPE  C31118369   3.673   3.775   7.987  0.1496  0.3892 -0.1051
  163SAPE  H11X18370   3.782   3.768   7.966 -0.2134 -2.9438 -1.5428
  163SAPE  H11Y18371   3.632   3.680   7.947 -0.0968 -0.5694  2.2675
  163SAPE  C31218372   3.662   3.767   8.139 -0.4208 -0.0938 -0.8075
  163SAPE  H12X18373   3.558   3.783   8.175  0.5144  2.7264  0.9884
  163SAPE  H12Y18374   3.725   3.842   8.192 -0.7370 -0.0302 -0.5154
  163SAPE  C31318375   3.704   3.627   8.188 -0.0822  0.3498 -0.0923
  163SAPE  H13X18376   3.810   3.620   8.156 -0.2925 -0.1492 -0.7126
  163SAPE  H13Y18377   3.656   3.543   8.132  0.3900 -0.1603  0.2677
  163SAPE  C31418378   3.669   3.622   8.338 -0.2311 -0.2112 -0.5333
  163SAPE  H14X18379   3.559   3.633   8.347 -0.4203  0.1020 -2.5702
  163SAPE  H14Y18380   3.720   3.713   8.375  0.5154  0.3217 -2.6929
  163SAPE  C31518381   3.718   3.494   8.405 -0.2088 -0.8186  0.4681
  163SAPE  H15X18382   3.823   3.465   8.385  0.5734  1.9121  0.1419
  163SAPE  H15Y18383   3.653   3.411   8.370 -0.0647 -0.5076 -0.5478
  163SAPE  C31618384   3.706   3.501   8.556  0.2444  0.2273 -0.2781
  163SAPE  H16X18385   3.596   3.491   8.566  0.1861  0.7451 -0.3956
  163SAPE  H16Y18386   3.746   3.603   8.577 -0.7079  1.0844 -2.3611
  163SAPE  C31718387   3.781   3.381   8.620 -0.3201 -0.2009  0.0047
  163SAPE  H17X18388   3.879   3.366   8.570 -0.5757 -1.3106 -0.1924
  163SAPE  H17Y18389   3.728   3.286   8.597 -0.8805 -0.1831  1.1697
  163SAPE  C31818390   3.799   3.369   8.775 -0.1301 -0.7173  0.3647
  163SAPE  H18X18391   3.699   3.348   8.819 -0.9105 -1.2014 -1.5587
  163SAPE  H18Y18392   3.845   3.453   8.830  0.0749 -0.5190 -0.1073
  163SAPE  H18Z18393   3.864   3.279   8.786 -1.2879 -1.9808 -2.3217
  164SAPE     N18394   1.237   0.321   5.873 -0.3299  0.2235  0.1118
  164SAPE   HN118395   1.271   0.402   5.817  0.0516  0.8091  1.1589
  164SAPE   HN218396   1.242   0.351   5.972  1.0954  1.1494 -0.2079
  164SAPE   HN318397   1.295   0.237   5.850 -1.9681 -1.0183  0.2917
  164SAPE   C1218398   1.103   0.298   5.827  0.5320  1.0072  0.1054
  164SAPE  H12A18399   1.076   0.194   5.855 -0.3196  1.1483 -0.1509
  164SAPE  H12B18400   1.101   0.299   5.716 -0.7424  0.3710  0.1047
  164SAPE   C1118401   1.001   0.408   5.871 -0.0687  0.6259 -0.6892
  164SAPE  H11A18402   0.991   0.390   5.980  0.7041 -1.8149 -0.9402
  164SAPE  H11B18403   0.905   0.376   5.824  1.0864 -1.0807 -2.0392
  164SAPE     P18404   0.959   0.659   5.891  0.4259  0.1831  0.3655
  164SAPE   O1318405   1.020   0.793   5.854 -0.1954 -0.1418 -0.0286
  164SAPE   O1418406   0.821   0.647   5.837 -0.1009 -0.1607  0.0797
  164SAPE   O1218407   1.047   0.540   5.839  0.2625  0.0797  0.1660
  164SAPE   O1118408   0.963   0.633   6.048 -0.0056  0.4462  0.1027
  164SAPE    C118409   0.874   0.698   6.137  0.0888  0.0501  0.4297
  164SAPE    HA18410   0.864   0.805   6.108  3.5216  0.0414 -1.2074
  164SAPE    HB18411   0.772   0.655   6.125  0.1642  0.1125 -0.5364
  164SAPE    C218412   0.931   0.690   6.276 -0.0705 -0.0749 -0.5067
  164SAPE    HS18413   1.031   0.738   6.278  0.0861 -0.3692 -1.0163
  164SAPE   O2118414   0.935   0.553   6.317 -0.8682 -0.9555 -0.1530
  164SAPE   C2118415   1.052   0.515   6.376 -0.4554  0.2832  0.2120
  164SAPE   O2218416   1.154   0.583   6.389 -0.0963  0.5349  0.1169
  164SAPE   C2218417   1.047   0.368   6.413  0.5090 -0.5184 -0.4202
  164SAPE   H2R18418   0.987   0.320   6.332 -1.4964  2.4152 -0.8157
  164SAPE   H2S18419   1.148   0.323   6.409  1.1322  0.6261  1.4195
  164SAPE    C318420   0.838   0.772   6.368 -0.7448  0.1836  0.0602
  164SAPE    HX18421   0.736   0.732   6.356 -0.0321 -1.2316 -1.8202
  164SAPE    HY18422   0.838   0.879   6.337  2.6072  0.7747  1.6245
  164SAPE   O3118423   0.880   0.765   6.510  0.2322  0.2780 -0.1349
  164SAPE   C3118424   0.985   0.846   6.534  0.5232 -0.4094  0.0983
  164SAPE   O3218425   1.034   0.922   6.452 -0.2674 -0.2218  0.0569
  164SAPE   C3218426   1.048   0.810   6.673  0.0908  0.0722  0.3588
  164SAPE   H2X18427   1.147   0.860   6.673 -0.2232  0.7153  0.3464
  164SAPE   H2Y18428   1.069   0.702   6.662  0.7809  0.2020  0.3800
  164SAPE   C2318429   0.975   0.333   6.549 -0.1921  0.8424  0.9858
  164SAPE   H3R18430   1.002   0.404   6.630  0.9526  0.3478  1.0574
  164SAPE   H3S18431   1.007   0.233   6.585  0.1442  0.7230  0.3659
  164SAPE   C2418432   0.827   0.300   6.535 -0.1698  0.3645 -0.2660
  164SAPE   H4R18433   0.796   0.244   6.626 -1.2146  3.5033  1.4523
  164SAPE   H4S18434   0.818   0.229   6.450 -1.0045  0.2686 -0.1091
  164SAPE   C2518435   0.743   0.425   6.516  0.1504 -0.5445 -0.2268
  164SAPE   H5R18436   0.788   0.524   6.528  1.0136 -0.7926 -1.3034
  164SAPE   C2618437   0.619   0.419   6.464 -0.1243 -0.0712  0.2298
  164SAPE   H6R18438   0.557   0.509   6.453  1.3792  0.7668 -1.9827
  164SAPE   C2718439   0.545   0.289   6.424  0.0643  0.3499  0.0974
  164SAPE   H7R18440   0.578   0.203   6.486  0.6419  1.1133  0.8711
  164SAPE   H7S18441   0.585   0.273   6.321 -0.8611  1.1411 -0.4087
  164SAPE   C2818442   0.396   0.312   6.417  0.1181 -0.1461 -1.0534
  164SAPE   H8R18443   0.361   0.389   6.347 -3.4331 -1.0666 -0.4923
  164SAPE   C2918444   0.300   0.269   6.499 -0.2669 -0.3532 -0.4632
  164SAPE   H9R18445   0.197   0.303   6.484  0.3373  0.7983 -2.5347
  164SAPE  C21018446   0.332   0.168   6.611  0.2879  0.3093  1.0334
  164SAPE  H10R18447   0.412   0.101   6.574  0.3467  0.7120  0.4046
  164SAPE  H10S18448   0.242   0.103   6.610  0.9495 -0.6304  1.1627
  164SAPE  C21118449   0.353   0.228   6.747  0.0346  0.2770  0.0095
  164SAPE  H11R18450   0.271   0.295   6.776 -2.1299 -2.0392 -0.3281
  164SAPE  C21218451   0.445   0.190   6.837 -0.0939  0.8228 -0.0913
  164SAPE  H12R18452   0.435   0.246   6.931 -2.0023  0.6454 -0.1649
  164SAPE  C21318453   0.549   0.083   6.816 -0.0038 -0.4122  0.4636
  164SAPE  H13R18454   0.625   0.123   6.745 -1.2284  0.4538 -0.4066
  164SAPE  H13S18455   0.506  -0.004   6.762  1.3196  0.6010 -2.4386
  164SAPE  C21418456   0.605   0.035   6.947 -0.4608  0.4079  0.2449
  164SAPE  H14R18457   0.552  -0.054   6.982 -2.1288  0.3176 -2.2449
  164SAPE  C21518458   0.700   0.084   7.030  0.1641  0.2051 -0.1608
  164SAPE  H15R18459   0.736   0.020   7.112  0.5829 -0.9521 -1.2311
  164SAPE  C21618460   0.785   0.205   6.995 -0.4046 -0.2422 -0.1940
  164SAPE  H16R18461   0.735   0.302   7.017 -1.2822 -0.2345 -2.0054
  164SAPE  H16S18462   0.792   0.217   6.885  0.3984  1.2703 -0.0152
  164SAPE  C21718463   0.930   0.212   7.042 -0.2111 -0.5884  0.9076
  164SAPE  H17R18464   0.977   0.305   7.002 -1.0895 -0.1950  0.7696
  164SAPE  H17S18465   0.988   0.125   7.003  3.3999  1.4707  1.1850
  164SAPE  C21818466   0.937   0.202   7.190  0.0112  0.0503  0.0478
  164SAPE  H18R18467   0.894   0.105   7.221 -1.1321  0.6242  0.3385
  164SAPE  H18S18468   0.883   0.283   7.243 -3.0104 -1.4913 -0.4221
  164SAPE  C21918469   1.079   0.194   7.241 -1.0344  0.4731  0.8559
  164SAPE  H19R18470   1.138   0.285   7.219  0.1329 -0.3417  0.5382
  164SAPE  H19S18471   1.130   0.107   7.194 -2.8814  1.1638 -2.7643
  164SAPE  C22018472   1.097   0.163   7.391  0.3955 -0.8847  0.5810
  164SAPE  H20R18473   1.204   0.163   7.421  0.5363 -0.3084  0.1032
  164SAPE  H20S18474   1.046   0.068   7.419 -2.0111  0.0435 -0.3317
  164SAPE  H20T18475   1.038   0.243   7.440  1.1925  0.6283 -0.8306
  164SAPE   C3318476   0.957   0.849   6.786 -0.2713 -0.1123  0.2901
  164SAPE   H3X18477   1.003   0.805   6.877 -0.0476 -1.4093 -0.4256
  164SAPE   H3Y18478   0.853   0.810   6.784 -0.5992  0.2608  3.5805
  164SAPE   C3418479   0.940   1.000   6.809  0.7432  0.0378 -0.1425
  164SAPE   H4X18480   0.866   1.049   6.742 -1.3780 -1.4982  0.9549
  164SAPE   H4Y18481   1.035   1.056   6.793 -0.2412  0.9685 -3.4682
  164SAPE   C3518482   0.873   1.027   6.945 -0.2559  0.5065  0.3441
  164SAPE   H5X18483   0.900   0.955   7.025 -1.1648 -4.0821 -3.0483
  164SAPE   H5Y18484   0.763   1.019   6.931 -0.9099  4.8686  1.5650
  164SAPE   C3618485   0.899   1.169   6.983  0.3814  0.1163 -0.2762
  164SAPE   H6X18486   0.823   1.231   6.930  0.5049  0.5094 -0.0003
  164SAPE   H6Y18487   1.000   1.210   6.960 -0.3039  1.1630 -1.5693
  164SAPE   C3718488   0.868   1.204   7.134  0.0539  0.8404  0.2326
  164SAPE   H7X18489   0.767   1.162   7.149 -0.5977  0.9613 -3.1059
  164SAPE   H7Y18490   0.875   1.314   7.145 -0.8039  1.2862 -2.8770
  164SAPE   C3818491   0.965   1.139   7.238 -0.5538  0.6120 -0.1435
  164SAPE   H8X18492   1.053   1.205   7.251 -1.1543  0.8756  4.0119
  164SAPE   H8Y18493   0.998   1.042   7.194 -0.3946  1.5613 -2.2229
  164SAPE   C3918494   0.906   1.102   7.376  0.5529  0.6570  0.0546
  164SAPE   H9X18495   0.944   1.008   7.420 -0.4992 -1.0337 -2.4183
  164SAPE   H9Y18496   0.797   1.082   7.371  0.6356  0.1679  0.2476
  164SAPE  C31018497   0.922   1.220   7.475 -0.4548  0.7204  0.3194
  164SAPE  H10X18498   0.838   1.215   7.549  0.0365 -3.0030  0.8248
  164SAPE  H10Y18499   0.925   1.318   7.423  0.4671 -0.1207 -1.2951
  164SAPE  C31118500   1.063   1.227   7.543  0.3509  0.4352 -0.3539
  164SAPE  H11X18501   1.080   1.322   7.598  3.4218 -0.1723 -0.0844
  164SAPE  H11Y18502   1.146   1.217   7.469 -0.4284  1.8437 -1.4768
  164SAPE  C31218503   1.075   1.135   7.664  0.2039  0.3860  0.3928
  164SAPE  H12X18504   1.091   1.029   7.635  1.4555  0.9776 -1.2585
  164SAPE  H12Y18505   0.976   1.134   7.715 -0.4906 -1.6942 -0.8970
  164SAPE  C31318506   1.198   1.159   7.751  0.0105 -0.3610  0.2823
  164SAPE  H13X18507   1.213   1.265   7.781  2.2705 -0.5197 -0.0886
  164SAPE  H13Y18508   1.287   1.136   7.689  1.7298 -1.1068  2.8328
  164SAPE  C31418509   1.202   1.070   7.879  0.0589  0.8501 -0.5094
  164SAPE  H14X18510   1.180   0.969   7.837 -0.0116  0.4429  0.4783
  164SAPE  H14Y18511   1.123   1.103   7.949  0.9052  0.1662  0.8091
  164SAPE  C31518512   1.330   1.066   7.961  0.8534 -0.3457  0.2232
  164SAPE  H15X18513   1.358   1.173   7.968  2.1840 -0.5156 -1.8180
  164SAPE  H15Y18514   1.405   1.009   7.902  0.5249  0.7532 -1.3219
  164SAPE  C31618515   1.315   0.995   8.103 -0.2155  0.2391  0.0414
  164SAPE  H16X18516   1.410   1.005   8.160 -0.2727  0.2016  0.1449
  164SAPE  H16Y18517   1.295   0.886   8.090 -1.1391  0.1180  2.0390
  164SAPE  C31718518   1.210   1.055   8.198  0.1505  0.1398  0.0762
  164SAPE  H17X18519   1.208   1.000   8.295 -1.7414  0.8697  0.5015
  164SAPE  H17Y18520   1.110   1.030   8.155  0.7995 -1.1457 -0.7492
  164SAPE  C31818521   1.211   1.207   8.220  0.4900 -0.7637  0.6391
  164SAPE  H18X18522   1.290   1.232   8.294  1.2485 -0.9548 -0.0935
  164SAPE  H18Y18523   1.114   1.238   8.265  0.6055 -0.7453  0.8746
  164SAPE  H18Z18524   1.223   1.264   8.126 -2.1471 -1.6184 -0.3083
  165SAPE     N18525   6.438   4.490   6.107 -0.1918 -0.0499  0.4245
  165SAPE   HN118526   6.428   4.578   6.161 -1.7958  1.0761 -1.5055
  165SAPE   HN218527   6.424   4.402   6.161 -1.5403 -0.6143 -0.7489
  165SAPE   HN318528   6.537   4.480   6.079  0.7592 -1.3226  3.8510
  165SAPE   C1218529   6.344   4.492   5.986 -0.3626  0.8435 -0.7967
  165SAPE  H12A18530   6.367   4.394   5.940 -2.9328 -0.3975  0.3390
  165SAPE  H12B18531   6.358   4.571   5.909  0.2056 -1.5498 -3.2978
  165SAPE   C1118532   6.204   4.513   6.037 -0.4898  0.5093  0.8494
  165SAPE  H11A18533   6.139   4.485   5.951  0.8444  0.7032 -0.2693
  165SAPE  H11B18534   6.178   4.619   6.057  0.0291  0.4766  1.7513
  165SAPE     P18535   6.093   4.300   6.138  0.0276 -0.1956  0.0641
  165SAPE   O1318536   5.968   4.346   6.073 -0.3291 -0.3669  0.2514
  165SAPE   O1418537   6.161   4.192   6.064 -0.1336 -0.2673  0.1648
  165SAPE   O1218538   6.175   4.435   6.156 -0.1351  0.0315 -0.6278
  165SAPE   O1118539   6.062   4.250   6.286  0.3529  0.3631 -0.0100
  165SAPE    C118540   6.032   4.331   6.393  0.0743 -1.1432  0.3816
  165SAPE    HA18541   5.972   4.416   6.353 -0.8585 -0.7169  2.5331
  165SAPE    HB18542   5.962   4.288   6.469  1.3992 -0.3849  2.1068
  165SAPE    C218543   6.161   4.371   6.466 -0.4335 -0.1481 -0.2495
  165SAPE    HS18544   6.231   4.423   6.398  0.9013 -0.2694  0.9829
  165SAPE   O2118545   6.225   4.254   6.526  0.0363  0.0802  0.4601
  165SAPE   C2118546   6.340   4.285   6.581  0.0593  0.0280 -0.7608
  165SAPE   O2218547   6.413   4.376   6.548  0.2497  0.4292 -0.0849
  165SAPE   C2218548   6.347   4.198   6.705 -0.8854 -0.3253  0.0724
  165SAPE   H2R18549   6.249   4.191   6.756 -0.5776  2.1258  1.1551
  165SAPE   H2S18550   6.386   4.100   6.672 -1.3811 -0.1879 -0.9659
  165SAPE    C318551   6.120   4.476   6.582 -0.2788 -0.1250  0.1106
  165SAPE    HX18552   6.043   4.547   6.545 -1.1950 -0.8443  0.5649
  165SAPE    HY18553   6.215   4.527   6.608  0.6683 -1.0348 -1.4425
  165SAPE   O3118554   6.074   4.407   6.702  0.4159 -0.4556 -0.0970
  165SAPE   C3118555   5.948   4.414   6.737  0.2052  0.1051  0.4262
  165SAPE   O3218556   5.864   4.476   6.676 -0.0392  0.2405  0.4906
  165SAPE   C3218557   5.926   4.317   6.850 -0.7278  0.2362 -0.4405
  165SAPE   H2X18558   5.827   4.342   6.893 -1.0728  2.0865 -2.1254
  165SAPE   H2Y18559   6.009   4.349   6.916 -1.2314  0.7917 -0.0648
  165SAPE   C2318560   6.447   4.255   6.808  0.4906 -0.7114  0.1460
  165SAPE   H3R18561   6.550   4.272   6.769 -0.5579  0.5044 -2.3402
  165SAPE   H3S18562   6.474   4.189   6.893 -0.2190 -1.2152 -0.0140
  165SAPE   C2418563   6.405   4.395   6.868  1.0440 -0.3044  0.5748
  165SAPE   H4R18564   6.393   4.461   6.780 -0.3399 -1.4222 -0.1021
  165SAPE   H4S18565   6.479   4.435   6.941  1.4244 -0.4059  0.2433
  165SAPE   C2518566   6.275   4.403   6.950  0.6511 -0.0942 -0.5720
  165SAPE   H5R18567   6.203   4.474   6.906  0.1266 -0.6447 -0.6182
  165SAPE   C2618568   6.257   4.359   7.076 -0.6159 -0.4265  0.1616
  165SAPE   H6R18569   6.158   4.376   7.122 -0.9388 -0.0890 -0.6342
  165SAPE   C2718570   6.358   4.281   7.162 -0.0641 -0.5560  0.0269
  165SAPE   H7R18571   6.372   4.348   7.249 -0.4428 -2.3121  1.5040
  165SAPE   H7S18572   6.455   4.258   7.111  0.4430 -2.1386  1.5891
  165SAPE   C2818573   6.298   4.152   7.206  0.1411  0.2091  0.2609
  165SAPE   H8R18574   6.280   4.078   7.126 -4.4819  1.0774  0.2205
  165SAPE   C2918575   6.256   4.114   7.327 -0.2756  0.1003  0.1026
  165SAPE   H9R18576   6.204   4.018   7.343 -1.0442  0.4970  0.0334
  165SAPE  C21018577   6.248   4.183   7.460 -0.2479 -0.8108 -0.4247
  165SAPE  H10R18578   6.195   4.121   7.535  0.7079  0.8975  1.7645
  165SAPE  H10S18579   6.178   4.267   7.442 -1.5778 -1.6332  0.7109
  165SAPE  C21118580   6.384   4.226   7.513 -0.4782 -0.1109  0.8474
  165SAPE  H11R18581   6.464   4.236   7.438 -1.3936  1.5682  0.0410
  165SAPE  C21218582   6.417   4.255   7.637  0.1364 -0.8388 -0.4868
  165SAPE  H12R18583   6.520   4.288   7.654 -0.0770 -0.6849  0.5693
  165SAPE  C21318584   6.328   4.269   7.762  0.0456  0.5284 -0.5696
  165SAPE  H13R18585   6.225   4.300   7.737  0.2409  1.7013 -0.0241
  165SAPE  H13S18586   6.365   4.345   7.834 -3.2763  1.2886  0.4790
  165SAPE  C21418587   6.313   4.139   7.839  1.0125 -0.2614 -0.0771
  165SAPE  H14R18588   6.231   4.083   7.793 -0.2493  0.1886  1.5280
  165SAPE  C21518589   6.361   4.102   7.962 -0.0006  0.2522  0.2604
  165SAPE  H15R18590   6.318   4.007   7.997 -0.2718 -0.1945 -1.2324
  165SAPE  C21618591   6.456   4.178   8.054 -0.2037  0.0455 -0.3269
  165SAPE  H16R18592   6.479   4.270   7.997 -1.5840  0.7380  0.2042
  165SAPE  H16S18593   6.551   4.122   8.069 -0.6499 -0.3916  1.1397
  165SAPE  C21718594   6.385   4.228   8.181  0.0689  0.0158  0.2780
  165SAPE  H17R18595   6.287   4.272   8.153 -0.3246 -1.4830 -0.8142
  165SAPE  H17S18596   6.445   4.303   8.235 -0.6738  1.1645 -0.4567
  165SAPE  C21818597   6.356   4.108   8.273 -0.5929 -0.1939 -0.7784
  165SAPE  H18R18598   6.441   4.037   8.266 -1.5617 -1.6207  0.9150
  165SAPE  H18S18599   6.274   4.045   8.232  0.6417 -1.2393 -1.7436
  165SAPE  C21918600   6.327   4.154   8.420  0.2177 -0.0542 -0.0716
  165SAPE  H19R18601   6.235   4.216   8.412 -0.5452 -1.1549  0.0696
  165SAPE  H19S18602   6.410   4.225   8.442 -0.5769  0.8885 -0.0609
  165SAPE  C22018603   6.319   4.043   8.521  0.2164  0.1626 -0.2295
  165SAPE  H20R18604   6.228   3.980   8.512  0.1078  0.1286  0.9431
  165SAPE  H20S18605   6.322   4.088   8.623 -3.0869 -0.4109  0.2461
  165SAPE  H20T18606   6.406   3.974   8.528  0.1627  0.1299  0.1730
  165SAPE   C3318607   5.955   4.168   6.816 -0.7444  0.2659  0.4096
  165SAPE   H3X18608   6.023   4.167   6.728 -0.2554  0.1564  0.7883
  165SAPE   H3Y18609   5.856   4.135   6.776 -1.1260  2.2325 -0.3526
  165SAPE   C3418610   6.002   4.072   6.921 -0.0433  0.5605  0.4312
  165SAPE   H4X18611   6.074   4.121   6.991 -0.4936 -0.1442  1.4096
  165SAPE   H4Y18612   6.035   3.972   6.888 -0.8614  0.1216  0.9189
  165SAPE   C3518613   5.881   4.038   7.010 -0.0454 -0.9983  0.3453
  165SAPE   H5X18614   5.804   3.992   6.943 -1.5298 -0.1645  1.4161
  165SAPE   H5Y18615   5.829   4.125   7.054 -0.7461 -0.1133 -2.0866
  165SAPE   C3618616   5.930   3.953   7.134  0.2376 -0.0496  0.2730
  165SAPE   H6X18617   6.005   4.006   7.197  1.7742 -1.1003 -0.6132
  165SAPE   H6Y18618   5.981   3.871   7.080 -1.3818  0.0735 -1.5747
  165SAPE   C3718619   5.816   3.896   7.219  0.2206  0.9948 -0.6878
  165SAPE   H7X18620   5.745   3.849   7.148 -0.1085  0.4245 -0.0008
  165SAPE   H7Y18621   5.768   3.980   7.274 -1.7085 -1.6322  1.9300
  165SAPE   C3818622   5.860   3.787   7.316 -0.0879  0.0402 -0.4064
  165SAPE   H8X18623   5.925   3.709   7.272  2.5755 -0.3791  3.7672
  165SAPE   H8Y18624   5.775   3.733   7.362 -0.0641  0.7010  0.4208
  165SAPE   C3918625   5.943   3.845   7.429  0.2737 -0.0488  0.4348
  165SAPE   H9X18626   6.016   3.923   7.398  3.0209 -0.6137  4.6953
  165SAPE   H9Y18627   5.991   3.759   7.482 -0.1157  0.2562  1.2943
  165SAPE  C31018628   5.855   3.918   7.535  1.0036  0.6516 -0.1042
  165SAPE  H10X18629   5.764   3.857   7.554  1.1272  0.2104 -0.8984
  165SAPE  H10Y18630   5.817   4.008   7.482  0.7907 -0.3129 -1.6378
  165SAPE  C31118631   5.933   3.963   7.663 -0.3672 -0.5933  0.1320
  165SAPE  H11X18632   5.996   4.048   7.629 -1.1853  0.4205  1.0545
  165SAPE  H11Y18633   5.999   3.880   7.699 -0.8265 -0.7324  0.6682
  165SAPE  C31218634   5.835   4.026   7.755 -0.0038 -0.1330 -0.7502
  165SAPE  H12X18635   5.766   3.949   7.795  1.6899 -0.7820  1.0741
  165SAPE  H12Y18636   5.773   4.096   7.694  1.1098 -0.1647 -1.9422
  165SAPE  C31318637   5.898   4.089   7.879  0.1901 -0.1983  0.1042
  165SAPE  H13X18638   5.833   4.170   7.918  2.0377  0.7059  1.4149
  165SAPE  H13Y18639   5.987   4.142   7.840  2.0609 -1.8572  1.8992
  165SAPE  C31418640   5.952   3.998   7.981  0.6440  0.5419  0.2540
  165SAPE  H14X18641   6.047   4.035   8.026  1.8415 -2.5995  0.5810
  165SAPE  H14Y18642   5.980   3.903   7.931 -1.0099  0.6705 -0.9712
  165SAPE  C31518643   5.849   3.980   8.098  0.3117  0.5097  0.4281
  165SAPE  H15X18644   5.759   3.924   8.066  0.4054  1.0258 -0.7777
  165SAPE  H15Y18645   5.803   4.075   8.132 -2.2542 -0.0138 -1.3083
  165SAPE  C31618646   5.904   3.901   8.215 -0.3081  0.1629 -0.5691
  165SAPE  H16X18647   5.995   3.949   8.256 -0.3806 -1.2374  1.3619
  165SAPE  H16Y18648   5.931   3.800   8.179 -1.6630 -0.8572  1.1605
  165SAPE  C31718649   5.800   3.879   8.328 -0.1378 -0.0594  0.3616
  165SAPE  H17X18650   5.718   3.814   8.289 -0.3849 -0.3312  1.2928
  165SAPE  H17Y18651   5.752   3.973   8.363 -0.0956  0.2608 -0.4274
  165SAPE  C31818652   5.843   3.800   8.448  0.3945 -0.3637  0.8023
  165SAPE  H18X18653   5.897   3.712   8.407  1.3877  0.8919 -0.7195
  165SAPE  H18Y18654   5.762   3.773   8.519  0.2056  0.3409  0.8682
  165SAPE  H18Z18655   5.910   3.875   8.496 -0.2372  0.7122  0.0720
  166SAPE     N18656   6.554   0.423   5.858 -0.0773 -0.6045 -0.5134
  166SAPE   HN118657   6.477   0.434   5.788  0.8394 -0.9960 -1.6171
  166SAPE   HN218658   6.594   0.509   5.901  0.1821 -1.3711  0.8124
  166SAPE   HN318659   6.625   0.370   5.804 -1.3571 -0.3757 -2.5600
  166SAPE   C1218660   6.496   0.330   5.964 -0.0557 -0.1418  0.2249
  166SAPE  H12A18661   6.417   0.265   5.922  0.1384 -0.6723  0.6727
  166SAPE  H12B18662   6.450   0.390   6.046  0.6226 -0.3762  0.7887
  166SAPE   C1118663   6.603   0.232   6.021  0.3718  0.2268 -0.1362
  166SAPE  H11A18664   6.562   0.160   6.095 -0.0473 -0.8298 -1.3702
  166SAPE  H11B18665   6.669   0.295   6.084 -0.8975  0.6626  0.8132
  166SAPE     P18666   6.801   0.084   5.943 -0.1238 -0.4006 -0.1019
  166SAPE   O1318667   6.838   0.018   5.816  0.8324 -0.6718  0.0940
  166SAPE   O1418668   6.905   0.178   5.991 -0.0051 -0.5141 -0.4282
  166SAPE   O1218669   6.666   0.163   5.910  0.4582 -0.3717 -0.7988
  166SAPE   O1118670   6.759  -0.015   6.047 -0.2469 -0.4181  0.1826
  166SAPE    C118671   6.765  -0.001   6.188  0.6644 -1.0579 -0.0229
  166SAPE    HA18672   6.741   0.101   6.226  3.7384 -0.3840  0.3934
  166SAPE    HB18673   6.686  -0.065   6.231 -1.5048  0.4969 -1.4645
  166SAPE    C218674   6.901  -0.048   6.252  0.1647 -0.4992  0.5466
  166SAPE    HS18675   6.976   0.019   6.206 -1.8350  0.8774 -0.8875
  166SAPE   O2118676   6.926  -0.191   6.225  0.0611 -0.2225  0.6354
  166SAPE   C2118677   7.045  -0.218   6.254 -0.7589  0.2295 -0.2195
  166SAPE   O2218678   7.140  -0.135   6.268 -0.1164 -0.2212  0.2540
  166SAPE   C2218679   7.072  -0.370   6.262 -0.2706 -0.2317 -0.0521
  166SAPE   H2R18680   7.020  -0.420   6.178  0.0936  1.9183 -1.6594
  166SAPE   H2S18681   7.181  -0.388   6.249 -0.6239 -1.9083 -0.9067
  166SAPE    C318682   6.896  -0.016   6.407  0.1809 -0.4689  0.3238
  166SAPE    HX18683   6.854   0.086   6.418  1.4604  0.2966 -1.4232
  166SAPE    HY18684   7.001  -0.022   6.444  0.9984  2.0582 -1.3217
  166SAPE   O3118685   6.817  -0.120   6.473 -0.3570 -0.0678 -0.5598
  166SAPE   C3118686   6.709  -0.079   6.539 -0.4578 -0.5988 -0.3837
  166SAPE   O3218687   6.659   0.030   6.532 -0.5167 -0.0300  0.0815
  166SAPE   C3218688   6.655  -0.187   6.630 -0.3738  0.4962 -0.2209
  166SAPE   H2X18689   6.677  -0.284   6.583 -1.4103 -0.4122  1.0761
  166SAPE   H2Y18690   6.546  -0.170   6.650 -0.4895 -0.3482 -0.1052
  166SAPE   C2318691   7.023  -0.416   6.403 -0.2050 -0.1669  0.4398
  166SAPE   H3R18692   7.005  -0.525   6.397  3.7448 -1.0462  1.6017
  166SAPE   H3S18693   6.926  -0.370   6.431 -0.2590 -1.0649  1.8194
  166SAPE   C2418694   7.129  -0.388   6.513  0.0790 -0.2220  0.3908
  166SAPE   H4R18695   7.169  -0.284   6.512  0.6469 -0.4261 -1.2169
  166SAPE   H4S18696   7.211  -0.454   6.477  1.3094  1.0413  0.7551
  166SAPE   C2518697   7.091  -0.436   6.650  0.6536  0.2038 -0.0584
  166SAPE   H5R18698   7.029  -0.527   6.647 -0.0830  0.7155 -1.1097
  166SAPE   C2618699   7.108  -0.382   6.773  0.1270  0.7166  0.7611
  166SAPE   H6R18700   7.090  -0.441   6.864 -0.5371  0.9767  0.8072
  166SAPE   C2718701   7.168  -0.251   6.817 -0.4777 -0.4487  0.0317
  166SAPE   H7R18702   7.196  -0.192   6.728  0.2990  2.0765  1.8377
  166SAPE   H7S18703   7.266  -0.271   6.865 -1.2161 -0.1158  1.7733
  166SAPE   C2818704   7.068  -0.173   6.895 -0.3843 -1.5004 -0.6790
  166SAPE   H8R18705   7.008  -0.101   6.838  0.9028  0.2940  0.1274
  166SAPE   C2918706   7.046  -0.167   7.027 -0.4571 -0.5350  0.0814
  166SAPE   H9R18707   6.974  -0.092   7.064  0.3360 -0.2939  1.1906
  166SAPE  C21018708   7.114  -0.247   7.135 -0.6389 -0.2141  0.0730
  166SAPE  H10R18709   7.170  -0.180   7.204  1.5675 -1.9283  0.0781
  166SAPE  H10S18710   7.189  -0.311   7.084 -0.6198  0.7960 -1.2280
  166SAPE  C21118711   7.015  -0.343   7.200  0.0765 -1.5217  0.3456
  166SAPE  H11R18712   6.970  -0.413   7.128  1.0741 -1.6672 -0.1458
  166SAPE  C21218713   6.985  -0.344   7.329  0.3234 -0.3960  0.7218
  166SAPE  H12R18714   6.918  -0.423   7.364  1.1775 -0.9170  1.2106
  166SAPE  C21318715   7.034  -0.241   7.436 -0.1397  0.2001  0.0929
  166SAPE  H13R18716   6.950  -0.226   7.507  0.8104  0.6150  1.1595
  166SAPE  H13S18717   7.063  -0.149   7.383  1.8563 -0.9810 -0.9675
  166SAPE  C21418718   7.152  -0.291   7.510  0.0922  0.5857  0.6136
  166SAPE  H14R18719   7.232  -0.343   7.456  1.3253  2.0721  0.9202
  166SAPE  C21518720   7.170  -0.274   7.639 -0.0984 -0.2002  0.7000
  166SAPE  H15R18721   7.258  -0.314   7.692  0.4530  0.9230  0.6754
  166SAPE  C21618722   7.070  -0.195   7.724 -0.8393  0.0113  0.2320
  166SAPE  H16R18723   7.022  -0.109   7.673 -1.2593  0.5542  1.4804
  166SAPE  H16S18724   7.129  -0.142   7.802 -0.3730  2.4361 -1.6456
  166SAPE  C21718725   6.957  -0.284   7.775  0.0228 -0.0526  1.0486
  166SAPE  H17R18726   7.005  -0.345   7.854  0.1447 -0.7180  0.4686
  166SAPE  H17S18727   6.920  -0.354   7.697  2.0789 -0.0669  0.0207
  166SAPE  C21818728   6.843  -0.209   7.847 -0.1464  0.0017  0.4660
  166SAPE  H18R18729   6.766  -0.286   7.871  0.0821 -0.7310 -1.0378
  166SAPE  H18S18730   6.799  -0.146   7.767  1.7293 -0.5739 -1.1129
  166SAPE  C21918731   6.879  -0.125   7.966  0.4506  0.8780  0.4195
  166SAPE  H19R18732   6.799  -0.049   7.983 -1.4950 -0.5220 -1.8210
  166SAPE  H19S18733   6.972  -0.064   7.962 -0.3811  2.1398 -0.8203
  166SAPE  C22018734   6.894  -0.208   8.098  0.5431  0.4373 -0.5743
  166SAPE  H20R18735   6.969  -0.289   8.088  2.5953  2.1422  0.2981
  166SAPE  H20S18736   6.800  -0.261   8.124  1.2823 -0.7967 -0.3595
  166SAPE  H20T18737   6.915  -0.142   8.185 -0.0792  0.9792 -0.8206
  166SAPE   C3318738   6.721  -0.184   6.769 -0.0427 -0.2109 -1.0633
  166SAPE   H3X18739   6.746  -0.078   6.794 -0.0942  0.0925 -2.2340
  166SAPE   H3Y18740   6.822  -0.231   6.770  0.2744  0.4473 -0.1142
  166SAPE   C3418741   6.637  -0.252   6.878 -0.1458 -0.2173  0.4538
  166SAPE   H4X18742   6.666  -0.359   6.888  0.3348 -0.0842  0.5345
  166SAPE   H4Y18743   6.529  -0.242   6.854 -0.4878 -3.4050  0.3322
  166SAPE   C3518744   6.648  -0.170   7.011 -0.2355 -0.0004  0.6240
  166SAPE   H5X18745   6.598  -0.073   6.990  0.4592  0.0083 -1.1412
  166SAPE   H5Y18746   6.754  -0.139   7.026  0.4889 -0.5301 -2.6751
  166SAPE   C3618747   6.595  -0.252   7.126  0.7513 -0.5035  0.5377
  166SAPE   H6X18748   6.674  -0.331   7.134  2.0939  0.9167  2.0876
  166SAPE   H6Y18749   6.495  -0.293   7.099 -1.3192  0.7105  5.3164
  166SAPE   C3718750   6.586  -0.175   7.256 -0.2372  0.3110  0.9154
  166SAPE   H7X18751   6.498  -0.107   7.259 -0.5197  0.0700 -0.7942
  166SAPE   H7Y18752   6.674  -0.112   7.280  0.3201 -0.8747  2.0776
  166SAPE   C3818753   6.561  -0.284   7.369 -0.0025 -0.2452 -0.7476
  166SAPE   H8X18754   6.662  -0.330   7.380  0.2173  0.2784 -0.4892
  166SAPE   H8Y18755   6.481  -0.358   7.349  0.2451 -0.8374  0.3799
  166SAPE   C3918756   6.539  -0.212   7.502 -0.4188 -0.2293 -0.1257
  166SAPE   H9X18757   6.439  -0.167   7.484 -0.7522 -1.7647 -2.6619
  166SAPE   H9Y18758   6.611  -0.129   7.522 -0.8733  0.2955 -0.6238
  166SAPE  C31018759   6.526  -0.311   7.621  0.2118 -0.2544 -0.6509
  166SAPE  H10X18760   6.619  -0.359   7.658  0.1803 -0.0627 -0.3210
  166SAPE  H10Y18761   6.470  -0.400   7.585 -0.5756 -1.0336  2.2252
  166SAPE  C31118762   6.455  -0.246   7.745  0.2239 -0.4945  0.6797
  166SAPE  H11X18763   6.352  -0.208   7.726  1.3860  1.8696 -1.6279
  166SAPE  H11Y18764   6.505  -0.154   7.783  0.3389 -0.2243 -0.1052
  166SAPE  C31218765   6.438  -0.345   7.867 -0.8838 -0.0426  0.5763
  166SAPE  H12X18766   6.535  -0.352   7.921 -0.4528  1.9020  0.1215
  166SAPE  H12Y18767   6.425  -0.447   7.826  2.5297  0.3015 -1.8021
  166SAPE  C31318768   6.330  -0.304   7.970 -0.2508  0.5501 -0.0609
  166SAPE  H13X18769   6.230  -0.297   7.922  0.0617  0.3147 -0.7569
  166SAPE  H13Y18770   6.358  -0.209   8.021 -2.0924 -0.4071  2.9827
  166SAPE  C31418771   6.335  -0.396   8.098 -0.8195 -0.2070 -0.4163
  166SAPE  H14X18772   6.443  -0.421   8.111 -0.0377  2.5424 -1.0396
  166SAPE  H14Y18773   6.280  -0.493   8.096 -0.8172 -0.2107 -0.3156
  166SAPE  C31518774   6.293  -0.329   8.228 -0.2462  0.3623  0.6541
  166SAPE  H15X18775   6.182  -0.331   8.234 -0.3022  0.1630 -0.2605
  166SAPE  H15Y18776   6.325  -0.223   8.225  2.3470 -0.3579 -0.1430
  166SAPE  C31618777   6.351  -0.408   8.342  0.2172 -0.7460 -0.4404
  166SAPE  H16X18778   6.335  -0.344   8.431 -0.1540  0.0003 -1.0304
  166SAPE  H16Y18779   6.461  -0.420   8.337  0.6897  2.4964  0.4114
  166SAPE  C31718780   6.304  -0.559   8.371  0.0639 -0.1439  0.2081
  166SAPE  H17X18781   6.353  -0.594   8.465  1.3527  0.2877 -0.2937
  166SAPE  H17Y18782   6.340  -0.623   8.288  0.6507  0.6440 -0.1527
  166SAPE  C31818783   6.154  -0.595   8.385 -0.0102 -0.1969  0.5638
  166SAPE  H18X18784   6.116  -0.510   8.445  1.0669  1.4649 -1.0195
  166SAPE  H18Y18785   6.147  -0.698   8.426  0.6216 -0.3530  0.2981
  166SAPE  H18Z18786   6.103  -0.600   8.287 -0.6653  0.1013  0.8851
  167SAPE     N18787   5.901   6.006   6.191  0.9155  0.3974 -0.1271
  167SAPE   HN118788   5.939   6.093   6.148  0.6933  0.9840  0.8272
  167SAPE   HN218789   5.932   5.917   6.147  1.1268 -1.2565  3.0802
  167SAPE   HN318790   5.798   6.012   6.177  0.4176  2.1676  3.1956
  167SAPE   C1218791   5.930   6.003   6.340  0.2507  0.0239  0.1651
  167SAPE  H12A18792   5.883   5.913   6.386  0.7395  0.0348  0.6949
  167SAPE  H12B18793   5.888   6.094   6.387  0.8320 -0.5049  1.7612
  167SAPE   C1118794   6.086   5.997   6.358 -0.4434  0.2799 -1.2218
  167SAPE  H11A18795   6.103   6.027   6.463 -2.6385 -1.1740 -0.3834
  167SAPE  H11B18796   6.136   6.082   6.307  1.1580  1.2317  1.7264
  167SAPE     P18797   6.249   5.841   6.229 -0.3788  0.3734  0.4139
  167SAPE   O1318798   6.271   5.697   6.212  0.3701 -0.2607  0.3412
  167SAPE   O1418799   6.224   5.916   6.100  0.0668 -0.1132 -0.7705
  167SAPE   O1218800   6.136   5.868   6.332 -0.1573  1.0806 -0.3512
  167SAPE   O1118801   6.377   5.901   6.297  0.1706 -0.1447 -0.3017
  167SAPE    C118802   6.434   5.835   6.408 -0.2885  1.2106  0.5466
  167SAPE    HA18803   6.370   5.757   6.453 -1.0289  0.4574 -1.6513
  167SAPE    HB18804   6.535   5.795   6.383  0.1134  2.2560  0.4263
  167SAPE    C218805   6.473   5.937   6.519  0.3977 -0.4843 -0.1600
  167SAPE    HS18806   6.552   5.886   6.579  0.0802  1.0623  1.6491
  167SAPE   O2118807   6.357   5.970   6.605 -0.0279  0.2524  0.1956
  167SAPE   C2118808   6.313   5.889   6.695  0.6828 -0.0060  0.4019
  167SAPE   O2218809   6.355   5.779   6.724 -0.3262 -0.6077  0.5439
  167SAPE   C2218810   6.215   5.970   6.781 -0.1930  0.0270 -0.0805
  167SAPE   H2R18811   6.239   6.079   6.777  1.2217 -0.2774 -0.6867
  167SAPE   H2S18812   6.112   5.961   6.742 -1.1432  0.4154  2.1893
  167SAPE    C318813   6.530   6.072   6.458  1.0304  0.2012 -0.4046
  167SAPE    HX18814   6.443   6.117   6.406 -0.1296  0.3971  1.6138
  167SAPE    HY18815   6.604   6.040   6.381 -0.1620 -1.6178 -0.8704
  167SAPE   O3118816   6.571   6.153   6.568 -0.1411  0.6115  0.2066
  167SAPE   C3118817   6.691   6.117   6.622  0.1527 -0.2493 -0.8952
  167SAPE   O3218818   6.769   6.035   6.583  0.1480 -0.0216  0.5804
  167SAPE   C3218819   6.710   6.198   6.748 -0.5924 -0.3174 -0.7531
  167SAPE   H2X18820   6.614   6.240   6.783 -0.3302 -1.5260  1.5972
  167SAPE   H2Y18821   6.772   6.284   6.716  0.4687 -0.3475  1.0767
  167SAPE   C2318822   6.222   5.934   6.928 -0.0025 -0.2967 -0.0363
  167SAPE   H3R18823   6.330   5.925   6.951  0.4375  0.1320 -1.8065
  167SAPE   H3S18824   6.180   5.834   6.952  2.0675 -0.9414  1.2098
  167SAPE   C2418825   6.155   6.041   7.014  0.0985  0.1497 -0.0606
  167SAPE   H4R18826   6.122   5.996   7.110 -1.1878 -1.2497 -1.1110
  167SAPE   H4S18827   6.062   6.080   6.966  1.1176  0.5512 -1.7771
  167SAPE   C2518828   6.248   6.155   7.038  0.6568 -0.9417  0.6663
  167SAPE   H5R18829   6.278   6.200   6.942  0.3930  0.1728  1.0941
  167SAPE   C2618830   6.300   6.207   7.147 -0.1614 -0.8640  0.0393
  167SAPE   H6R18831   6.348   6.305   7.131 -2.3430  0.1951 -0.3989
  167SAPE   C2718832   6.271   6.161   7.284 -0.0520 -0.2049 -0.6837
  167SAPE   H7R18833   6.362   6.146   7.346 -1.4209 -0.8867  1.2671
  167SAPE   H7S18834   6.215   6.065   7.279 -1.7682  0.6686  0.6398
  167SAPE   C2818835   6.180   6.259   7.356  0.1465 -0.4226  0.1525
  167SAPE   H8R18836   6.132   6.340   7.300 -0.5417 -0.9273 -0.0056
  167SAPE   C2918837   6.126   6.258   7.482 -0.5074 -0.3753  0.3697
  167SAPE   H9R18838   6.051   6.335   7.506 -1.5078 -0.8336 -1.1424
  167SAPE  C21018839   6.147   6.146   7.579 -0.0146 -0.2100  0.0705
  167SAPE  H10R18840   6.202   6.064   7.528 -1.2612 -1.1907  0.2645
  167SAPE  H10S18841   6.053   6.096   7.611 -0.6089  0.7383 -0.1810
  167SAPE  C21118842   6.220   6.195   7.703 -0.0673 -0.2297 -0.3425
  167SAPE  H11R18843   6.255   6.299   7.700 -0.7106  0.0266  0.5792
  167SAPE  C21218844   6.250   6.115   7.806  0.9649 -0.1449 -0.8405
  167SAPE  H12R18845   6.296   6.157   7.896  0.1184 -2.9481  1.0539
  167SAPE  C21318846   6.213   5.969   7.821 -0.1493  1.0246  0.3151
  167SAPE  H13R18847   6.307   5.918   7.850  0.9097  1.2390 -2.4463
  167SAPE  H13S18848   6.197   5.917   7.724  0.6474  2.6741 -0.7547
  167SAPE  C21418849   6.100   5.936   7.914  0.2525 -0.4128  0.1210
  167SAPE  H14R18850   6.002   5.930   7.864 -0.3602  3.6644  0.4414
  167SAPE  C21518851   6.104   5.926   8.049 -0.1190  0.8179 -0.1847
  167SAPE  H15R18852   6.017   5.885   8.103  0.0623 -0.7795 -1.0336
  167SAPE  C21618853   6.228   5.945   8.133 -0.2802  0.2845  0.0863
  167SAPE  H16R18854   6.193   5.944   8.238 -1.3098 -1.1470 -0.2328
  167SAPE  H16S18855   6.261   6.049   8.114  1.5462  0.0872  1.9113
  167SAPE  C21718856   6.327   5.832   8.115  0.0182 -0.2138  0.2044
  167SAPE  H17R18857   6.368   5.840   8.012 -1.5803  2.4322 -0.3289
  167SAPE  H17S18858   6.275   5.735   8.125 -0.5064 -0.0144 -0.5345
  167SAPE  C21818859   6.451   5.841   8.209  0.0997  0.0901 -0.4669
  167SAPE  H18R18860   6.483   5.948   8.217 -1.7850  0.5530  1.7425
  167SAPE  H18S18861   6.531   5.777   8.167  0.3575 -0.6016  1.0226
  167SAPE  C21918862   6.440   5.780   8.350 -0.0615  0.3985 -0.3601
  167SAPE  H19R18863   6.363   5.700   8.348  1.1036 -0.7474 -0.6923
  167SAPE  H19S18864   6.412   5.866   8.415 -0.2934  0.2567 -0.2710
  167SAPE  C22018865   6.574   5.717   8.408  0.4766 -0.3143 -0.2704
  167SAPE  H20R18866   6.624   5.662   8.326 -0.1974  0.4114 -1.1858
  167SAPE  H20S18867   6.568   5.649   8.496  0.1907 -2.0225 -1.5790
  167SAPE  H20T18868   6.645   5.798   8.437 -0.8416  0.6234  0.4234
  167SAPE   C3318869   6.771   6.110   6.857  0.1115 -0.6851 -0.0586
  167SAPE   H3X18870   6.881   6.094   6.844  0.1155  0.0917 -1.1003
  167SAPE   H3Y18871   6.728   6.008   6.851  1.4063 -1.1872 -4.7769
  167SAPE   C3418872   6.737   6.173   6.992  0.2789 -0.5725  0.1476
  167SAPE   H4X18873   6.648   6.239   6.984 -0.0161 -1.1295 -1.6630
  167SAPE   H4Y18874   6.826   6.237   7.012 -0.0616  0.0220 -0.2028
  167SAPE   C3518875   6.719   6.084   7.109 -0.0048  0.5163  0.7947
  167SAPE   H5X18876   6.806   6.019   7.131  1.3550  2.2161  0.6430
  167SAPE   H5Y18877   6.634   6.016   7.088 -0.9916  1.8829  0.1633
  167SAPE   C3618878   6.703   6.154   7.245  0.0184 -0.5180 -0.9082
  167SAPE   H6X18879   6.619   6.227   7.236  0.7457  0.9884  2.7811
  167SAPE   H6Y18880   6.798   6.199   7.280 -0.7896 -1.5008  3.1209
  167SAPE   C3718881   6.660   6.056   7.351  0.0893 -0.0266 -0.3437
  167SAPE   H7X18882   6.750   5.995   7.377 -1.1297 -1.2014  1.3015
  167SAPE   H7Y18883   6.583   5.979   7.330  1.4842 -2.3512  2.3964
  167SAPE   C3818884   6.619   6.125   7.481 -0.2147 -0.0557  0.3464
  167SAPE   H8X18885   6.540   6.201   7.466  0.3667  0.9550  2.1194
  167SAPE   H8Y18886   6.708   6.182   7.517 -0.1612 -0.6356  1.1576
  167SAPE   C3918887   6.568   6.040   7.594  0.0717 -0.3272 -0.3492
  167SAPE   H9X18888   6.522   5.946   7.556 -2.1069  0.4914  0.1147
  167SAPE   H9Y18889   6.483   6.098   7.636 -0.2736 -0.9817 -0.1238
  167SAPE  C31018890   6.671   6.010   7.701 -0.8176  0.1230 -0.7470
  167SAPE  H10X18891   6.769   6.012   7.648 -1.4558 -0.4119 -1.9985
  167SAPE  H10Y18892   6.657   5.905   7.734 -1.4416  0.1210 -1.0140
  167SAPE  C31118893   6.663   6.100   7.822 -0.0370 -0.3506 -0.1875
  167SAPE  H11X18894   6.557   6.116   7.853  0.3222  1.0559  0.3908
  167SAPE  H11Y18895   6.720   6.193   7.801  0.3177 -0.2108  1.3022
  167SAPE  C31218896   6.730   6.035   7.939  0.2123 -0.1222  0.5171
  167SAPE  H12X18897   6.838   6.027   7.915 -0.0040 -0.0330 -0.4964
  167SAPE  H12Y18898   6.675   5.940   7.953 -1.3231  0.4693 -1.1122
  167SAPE  C31318899   6.716   6.117   8.067  0.2744  0.7345 -1.1291
  167SAPE  H13X18900   6.608   6.132   8.084 -0.0030  0.1966 -2.3296
  167SAPE  H13Y18901   6.761   6.218   8.053  0.9020  0.4790 -0.9886
  167SAPE  C31418902   6.787   6.055   8.184  0.2550 -0.0171 -0.4082
  167SAPE  H14X18903   6.891   6.075   8.151 -0.3657  1.6234 -1.4954
  167SAPE  H14Y18904   6.777   5.944   8.186  1.7245 -0.1562  0.3185
  167SAPE  C31518905   6.744   6.127   8.310 -0.3498 -0.2358 -0.5154
  167SAPE  H15X18906   6.635   6.119   8.330 -0.5225  1.9616 -0.3235
  167SAPE  H15Y18907   6.761   6.236   8.294 -0.5589 -0.0976  0.1923
  167SAPE  C31618908   6.812   6.085   8.445  0.5439 -0.7015  0.3004
  167SAPE  H16X18909   6.806   5.974   8.449  3.7516 -1.0758 -1.8686
  167SAPE  H16Y18910   6.738   6.116   8.522  1.4921  0.0013  0.9618
  167SAPE  C31718911   6.946   6.150   8.472 -0.1032 -0.6018 -0.7430
  167SAPE  H17X18912   6.935   6.195   8.573 -1.6208 -2.7013  0.0931
  167SAPE  H17Y18913   6.970   6.237   8.407  0.5057  0.1771  0.4842
  167SAPE  C31818914   7.058   6.044   8.465  0.0992 -0.8460 -0.0395
  167SAPE  H18X18915   7.057   5.960   8.537 -1.9135 -1.3154 -0.5731
  167SAPE  H18Y18916   7.162   6.083   8.469  0.5265 -2.0652  1.7617
  167SAPE  H18Z18917   7.061   6.003   8.362 -1.0282 -0.4559 -0.2369
  168SAPE     N18918   2.963   2.611   6.347 -0.2791  0.1617  0.0904
  168SAPE   HN118919   3.015   2.530   6.309 -0.8953 -0.2256  0.0630
  168SAPE   HN218920   3.024   2.692   6.321  0.6882 -0.3178  0.7682
  168SAPE   HN318921   2.940   2.611   6.449 -1.8695 -0.6121 -0.2397
  168SAPE   C1218922   2.840   2.628   6.254 -0.5628 -0.5141 -1.0755
  168SAPE  H12A18923   2.805   2.528   6.220 -1.5709 -0.1206 -1.2290
  168SAPE  H12B18924   2.890   2.673   6.165  1.7821  2.1075  1.3715
  168SAPE   C1118925   2.731   2.729   6.317 -0.7113  0.2137 -0.0335
  168SAPE  H11A18926   2.688   2.675   6.404 -0.2007 -0.1301  0.0093
  168SAPE  H11B18927   2.649   2.755   6.247 -0.1312 -1.8802 -1.6043
  168SAPE     P18928   2.717   2.990   6.386 -0.2381  0.0783  0.2351
  168SAPE   O1318929   2.816   3.084   6.438 -0.0785  0.2920  0.0594
  168SAPE   O1418930   2.643   3.035   6.260  1.1653 -0.2836 -0.9158
  168SAPE   O1218931   2.793   2.850   6.368  0.6966 -0.3837 -0.1558
  168SAPE   O1118932   2.613   2.954   6.501 -0.4182 -0.2126 -0.0116
  168SAPE    C118933   2.674   2.918   6.629  0.9278  0.6550 -0.0289
  168SAPE    HA18934   2.751   2.841   6.610  0.4485  0.1221  0.1824
  168SAPE    HB18935   2.726   3.003   6.678  1.3517  0.9323 -0.9272
  168SAPE    C218936   2.576   2.862   6.738  0.2913  0.7418 -0.4824
  168SAPE    HS18937   2.478   2.912   6.724 -0.4220 -0.5630 -0.3533
  168SAPE   O2118938   2.630   2.888   6.873  0.0418  0.1562  0.4503
  168SAPE   C2118939   2.534   2.931   6.958  0.0148 -0.4072 -1.1340
  168SAPE   O2218940   2.419   2.955   6.937  0.3295  0.2058 -0.5779
  168SAPE   C2218941   2.602   2.956   7.096  0.5281  0.0305  0.1734
  168SAPE   H2R18942   2.713   2.950   7.092  0.4770 -0.6237 -0.7290
  168SAPE   H2S18943   2.577   3.061   7.123 -1.3339  0.2478 -2.0597
  168SAPE    C318944   2.553   2.702   6.726  0.2152 -0.3507  0.0167
  168SAPE    HX18945   2.652   2.651   6.724  0.3865  0.0072 -0.9752
  168SAPE    HY18946   2.494   2.689   6.633 -2.6192 -0.4024  1.6906
  168SAPE   O3118947   2.478   2.666   6.843  0.7226  0.6541 -0.2578
  168SAPE   C3118948   2.345   2.703   6.844 -0.1162 -0.1384 -0.5702
  168SAPE   O3218949   2.287   2.745   6.747 -0.3027  0.4947 -0.1756
  168SAPE   C3218950   2.286   2.672   6.988 -0.7155 -0.1492 -0.3902
  168SAPE   H2X18951   2.285   2.768   7.044 -1.5816 -1.9665  3.0288
  168SAPE   H2Y18952   2.353   2.606   7.048 -0.1492  1.2140  0.5145
  168SAPE   C2318953   2.545   2.851   7.197 -0.5479 -0.8188  0.0396
  168SAPE   H3R18954   2.543   2.752   7.147 -1.4626 -0.0143 -1.6084
  168SAPE   H3S18955   2.441   2.883   7.220  0.2142  1.2268  0.8748
  168SAPE   C2418956   2.621   2.837   7.335  0.2466 -0.5402  0.1239
  168SAPE   H4R18957   2.630   2.937   7.382  0.5292 -0.0215 -1.0023
  168SAPE   H4S18958   2.724   2.797   7.320 -0.2406 -1.8430  0.1337
  168SAPE   C2518959   2.548   2.738   7.428  0.5056  0.1989  0.3155
  168SAPE   H5R18960   2.537   2.639   7.381  3.2587 -0.0090 -0.0599
  168SAPE   C2618961   2.487   2.753   7.548  0.1399 -0.2088  1.0617
  168SAPE   H6R18962   2.436   2.667   7.593 -2.3156  0.4309 -0.3042
  168SAPE   C2718963   2.472   2.875   7.627  0.1775  1.4155  0.0479
  168SAPE   H7R18964   2.364   2.901   7.632 -0.1515 -0.0753  2.7141
  168SAPE   H7S18965   2.527   2.959   7.579  0.8127  0.7277 -0.4505
  168SAPE   C2818966   2.530   2.841   7.764 -0.8220 -0.5289  0.1822
  168SAPE   H8R18967   2.639   2.834   7.760 -0.7831  0.5948 -1.7632
  168SAPE   C2918968   2.457   2.849   7.876 -0.8439 -0.1203 -0.1643
  168SAPE   H9R18969   2.513   2.832   7.970 -1.5040  1.6092  0.5899
  168SAPE  C21018970   2.310   2.875   7.899  0.1466  0.8125  1.0547
  168SAPE  H10R18971   2.265   2.811   7.978 -0.1063  1.5940  1.5561
  168SAPE  H10S18972   2.252   2.854   7.806 -0.1303  3.2229  0.6274
  168SAPE  C21118973   2.286   3.018   7.933 -0.0605 -0.0284 -0.6300
  168SAPE  H11R18974   2.277   3.085   7.846 -2.3830 -1.5595 -1.6590
  168SAPE  C21218975   2.269   3.076   8.055 -0.0802  0.6247 -0.1319
  168SAPE  H12R18976   2.255   3.185   8.058  3.7158  1.2278  1.4598
  168SAPE  C21318977   2.275   2.998   8.182  0.3731 -0.2879  0.2922
  168SAPE  H13R18978   2.379   2.966   8.203  0.7354  0.9302  0.4456
  168SAPE  H13S18979   2.217   2.907   8.155  0.4725  0.0552 -1.1857
  168SAPE  C21418980   2.212   3.055   8.306  0.1762  0.0540 -0.0148
  168SAPE  H14R18981   2.113   3.100   8.285 -0.1689 -2.4280 -5.1297
  168SAPE  C21518982   2.268   3.066   8.427 -0.1294  0.0491 -0.1516
  168SAPE  H15R18983   2.212   3.112   8.510 -1.0860 -2.1961  0.5320
  168SAPE  C21618984   2.411   3.029   8.458  0.0181  0.1342  0.0762
  168SAPE  H16R18985   2.474   3.119   8.472 -0.6208  1.0149 -2.3082
  168SAPE  H16S18986   2.464   2.980   8.374  1.7683 -0.7717  1.6229
  168SAPE  C21718987   2.423   2.941   8.584  0.0604  0.5028 -1.0899
  168SAPE  H17R18988   2.375   2.991   8.670  1.9913 -0.0854  0.4011
  168SAPE  H17S18989   2.532   2.921   8.595 -0.1972 -0.0642  0.6850
  168SAPE  C21818990   2.358   2.804   8.564 -0.5286  0.2364  0.0242
  168SAPE  H18R18991   2.398   2.764   8.468  0.6923 -1.2870  1.1350
  168SAPE  H18S18992   2.248   2.822   8.553 -0.8793 -1.2455  0.8897
  168SAPE  C21918993   2.404   2.713   8.675  0.4735 -0.2516  0.5491
  168SAPE  H19R18994   2.386   2.759   8.774  0.0344 -2.2216  1.4254
  168SAPE  H19S18995   2.515   2.706   8.670  0.5297  0.1513  1.1205
  168SAPE  C22018996   2.329   2.579   8.664 -0.0999 -0.7909  0.4497
  168SAPE  H20R18997   2.344   2.519   8.756 -2.2395  0.8602  1.9850
  168SAPE  H20S18998   2.357   2.523   8.572  0.1901  0.6520 -0.3713
  168SAPE  H20T18999   2.220   2.592   8.652  0.0411  0.3970  0.3286
  168SAPE   C3319000   2.143   2.609   6.996  0.2463 -0.0131 -0.3916
  168SAPE   H3X19001   2.140   2.515   6.938 -1.5365 -0.2133 -0.0334
  168SAPE   H3Y19002   2.070   2.680   6.951 -2.2143 -0.5416  2.4587
  168SAPE   C3419003   2.103   2.587   7.146  0.0770  0.1220  0.5534
  168SAPE   H4X19004   1.992   2.581   7.148  0.0666  0.1750  0.2416
  168SAPE   H4Y19005   2.137   2.675   7.204 -3.0265  1.9505 -0.1747
  168SAPE   C3519006   2.157   2.460   7.209  0.3614 -0.1567 -0.5345
  168SAPE   H5X19007   2.268   2.471   7.213  0.3384  1.0037 -2.1076
  168SAPE   H5Y19008   2.138   2.381   7.133  2.2185 -0.1948 -1.0021
  168SAPE   C3619009   2.103   2.427   7.353  0.2958 -0.1930 -0.0509
  168SAPE   H6X19010   1.994   2.405   7.354  0.7277 -2.8517  2.2456
  168SAPE   H6Y19011   2.122   2.516   7.416  1.8882  3.2347 -4.7948
  168SAPE   C3719012   2.166   2.305   7.419  0.2833  0.1170 -0.5734
  168SAPE   H7X19013   2.274   2.329   7.412  0.6254 -1.2622 -0.3943
  168SAPE   H7Y19014   2.140   2.211   7.366 -0.6471  0.3995 -0.6329
  168SAPE   C3819015   2.128   2.304   7.563 -0.6367  0.1111 -0.5039
  168SAPE   H8X19016   2.112   2.198   7.588 -1.3583  0.1661 -0.7233
  168SAPE   H8Y19017   2.029   2.352   7.573 -1.2562 -0.4653 -3.0308
  168SAPE   C3919018   2.222   2.373   7.665  0.3815  0.6445  0.6223
  168SAPE   H9X19019   2.224   2.479   7.631 -0.6929  0.2707 -0.6803
  168SAPE   H9Y19020   2.327   2.337   7.665  0.3991  0.5817 -1.6575
  168SAPE  C31019021   2.172   2.365   7.804  0.1668  0.3828 -0.2763
  168SAPE  H10X19022   2.198   2.261   7.835  1.2335  1.4250  2.7347
  168SAPE  H10Y19023   2.061   2.366   7.803  0.0733 -0.8785  1.7190
  168SAPE  C31119024   2.233   2.457   7.906  0.3333 -0.3438 -0.0844
  168SAPE  H11X19025   2.208   2.561   7.877  0.4472  0.1614  1.5167
  168SAPE  H11Y19026   2.344   2.449   7.908  0.2921 -1.1215  2.1815
  168SAPE  C31219027   2.180   2.426   8.052  0.3177 -0.5298 -0.1742
  168SAPE  H12X19028   2.221   2.323   8.065 -0.2749 -0.8577 -0.7974
  168SAPE  H12Y19029   2.069   2.412   8.052  0.3718 -1.1251  1.1450
  168SAPE  C31319030   2.234   2.522   8.155  0.8119  0.2655  0.2431
  168SAPE  H13X19031   2.219   2.629   8.130  1.2985  0.0846 -0.8588
  168SAPE  H13Y19032   2.344   2.514   8.170  0.7007 -2.5775 -0.0185
  168SAPE  C31419033   2.166   2.498   8.295 -0.0530 -0.1187  0.5518
  168SAPE  H14X19034   2.057   2.488   8.274 -0.0556 -0.8094  0.8657
  168SAPE  H14Y19035   2.185   2.584   8.363  0.0819 -1.2677  2.0375
  168SAPE  C31519036   2.215   2.364   8.371 -0.6257  0.4299 -0.0207
  168SAPE  H15X19037   2.323   2.374   8.395 -0.4782  0.2995 -0.6063
  168SAPE  H15Y19038   2.219   2.285   8.293  0.6461  0.9755 -0.5314
  168SAPE  C31619039   2.123   2.326   8.484  0.5283  0.8709  0.1915
  168SAPE  H16X19040   2.021   2.301   8.446 -0.0676 -3.1640  3.6964
  168SAPE  H16Y19041   2.118   2.408   8.559  2.3039  1.2500 -0.0683
  168SAPE  C31719042   2.150   2.185   8.552  0.3798  0.2461  0.3106
  168SAPE  H17X19043   2.133   2.105   8.477  2.9841 -0.4105  0.3380
  168SAPE  H17Y19044   2.071   2.165   8.627 -0.1165 -0.0218 -0.2729
  168SAPE  C31819045   2.292   2.179   8.619 -0.2092 -0.4416 -1.0310
  168SAPE  H18X19046   2.308   2.078   8.661  3.1195  0.7010  0.7408
  168SAPE  H18Y19047   2.306   2.246   8.706  0.3498 -1.6337 -0.1817
  168SAPE  H18Z19048   2.368   2.198   8.541  0.1676 -2.1069 -1.0938
  169SAPE     N19049   0.985   4.328   6.116  0.1971  0.3651  0.0218
  169SAPE   HN119050   0.992   4.296   6.018 -0.0290  2.2814 -0.6607
  169SAPE   HN219051   0.902   4.280   6.157 -1.8409  1.5527 -2.4197
  169SAPE   HN319052   0.951   4.426   6.106  0.3381  0.2126 -2.5467
  169SAPE   C1219053   1.099   4.317   6.213  0.1125 -0.0861 -0.1023
  169SAPE  H12A19054   1.055   4.320   6.315 -0.6514  2.7717 -0.4330
  169SAPE  H12B19055   1.170   4.402   6.202  1.6703 -1.3506 -0.0884
  169SAPE   C1119056   1.181   4.186   6.198 -0.0006 -0.3814  0.0885
  169SAPE  H11A19057   1.264   4.188   6.273  2.1541  0.4110 -2.1614
  169SAPE  H11B19058   1.226   4.186   6.097 -0.2704 -3.5739 -0.1293
  169SAPE     P19059   1.157   3.932   6.251 -0.0681  0.0633  0.0497
  169SAPE   O1319060   1.050   3.831   6.272 -0.3124 -0.5497  0.0199
  169SAPE   O1419061   1.268   3.908   6.152  0.4886  0.0946 -0.5756
  169SAPE   O1219062   1.097   4.076   6.218  0.1174 -0.5622 -0.2904
  169SAPE   O1119063   1.223   3.975   6.385 -0.2602 -0.4126 -0.0207
  169SAPE    C119064   1.124   3.999   6.492 -1.0603  0.0858 -0.7000
  169SAPE    HA19065   1.147   4.088   6.555 -3.2306 -0.0101  0.3109
  169SAPE    HB19066   1.025   4.026   6.450 -0.5257  0.6419 -1.6125
  169SAPE    C219067   1.110   3.877   6.593  0.2700  0.1783  0.3869
  169SAPE    HS19068   1.013   3.825   6.573 -0.9451  2.9221 -1.4608
  169SAPE   O2119069   1.101   3.942   6.720  0.4067  0.0029 -0.3272
  169SAPE   C2119070   0.999   4.017   6.743  0.5043  0.7029  0.2407
  169SAPE   O2219071   0.900   4.039   6.670 -0.6109  0.2532  0.0931
  169SAPE   C2219072   1.024   4.096   6.873  0.8562  0.4059 -0.0617
  169SAPE   H2R19073   1.111   4.162   6.851  1.0440 -0.0562 -0.7268
  169SAPE   H2S19074   0.933   4.158   6.883  1.7775  1.6912  0.5702
  169SAPE    C319075   1.236   3.789   6.591  0.5460 -0.0868  0.7568
  169SAPE    HX19076   1.321   3.861   6.593  0.7452 -0.3080  0.4783
  169SAPE    HY19077   1.242   3.741   6.490  1.8791 -0.4268  0.9692
  169SAPE   O3119078   1.254   3.696   6.695 -0.0985 -0.0330 -0.3030
  169SAPE   C3119079   1.151   3.610   6.718  0.1946 -0.0569  0.2421
  169SAPE   O3219080   1.061   3.598   6.640  0.2369 -0.1194  0.0778
  169SAPE   C3219081   1.163   3.535   6.852 -0.6552  0.3628 -1.4766
  169SAPE   H2X19082   1.264   3.488   6.846 -0.6362  0.4465 -1.7820
  169SAPE   H2Y19083   1.093   3.450   6.868  1.5360 -1.3464 -0.1836
  169SAPE   C2319084   1.045   4.011   7.002 -0.2046  0.9698  0.2022
  169SAPE   H3R19085   1.134   3.948   6.981 -0.4704  0.1445  1.4634
  169SAPE   H3S19086   0.956   3.945   6.999  0.5492 -0.0463 -1.3216
  169SAPE   C2419087   1.067   4.096   7.127 -0.0171 -0.4441 -0.6749
  169SAPE   H4R19088   1.142   4.171   7.094  0.4281 -0.5833  0.0010
  169SAPE   H4S19089   1.123   4.048   7.210 -0.4052  2.8608  1.6687
  169SAPE   C2519090   0.949   4.176   7.176 -0.0819 -0.0564  0.5144
  169SAPE   H5R19091   0.902   4.238   7.098 -0.2716 -0.9342 -0.0784
  169SAPE   C2619092   0.898   4.189   7.300 -0.0835 -0.6492  0.4265
  169SAPE   H6R19093   0.803   4.242   7.317 -0.6574 -1.5521  0.1253
  169SAPE   C2719094   0.950   4.112   7.421 -0.0806 -0.4404  0.4546
  169SAPE   H7R19095   0.989   4.012   7.394  1.3646  0.3925 -0.7116
  169SAPE   H7S19096   0.867   4.104   7.494 -0.3101  1.8407  0.5250
  169SAPE   C2819097   1.054   4.206   7.485  0.1307 -0.5800 -0.1094
  169SAPE   H8R19098   1.149   4.219   7.431  0.2293 -3.7496 -0.8898
  169SAPE   C2919099   1.037   4.253   7.610 -0.1745 -0.2838  0.8273
  169SAPE   H9R19100   1.125   4.308   7.646  2.1673 -2.7179 -0.7891
  169SAPE  C21019101   0.926   4.236   7.708  0.0611 -0.7735 -0.7387
  169SAPE  H10R19102   0.950   4.160   7.785 -0.1170 -0.3261 -0.2346
  169SAPE  H10S19103   0.832   4.208   7.657 -1.3175 -0.5061  1.5272
  169SAPE  C21119104   0.901   4.369   7.789  0.1325  0.6252  0.1746
  169SAPE  H11R19105   0.901   4.453   7.718  1.9408 -1.2757 -2.2529
  169SAPE  C21219106   0.902   4.394   7.924 -0.2376 -0.3939  0.3047
  169SAPE  H12R19107   0.887   4.498   7.955 -2.2561 -0.4475 -0.3341
  169SAPE  C21319108   0.931   4.288   8.027  0.2715  0.5916 -0.4041
  169SAPE  H13R19109   1.035   4.295   8.065 -0.9818  0.5548  3.5562
  169SAPE  H13S19110   0.902   4.186   7.995  0.6144 -0.3357  1.9779
  169SAPE  C21419111   0.840   4.322   8.146  0.8604  0.2987 -0.1698
  169SAPE  H14R19112   0.732   4.308   8.129  1.2689 -3.1845 -0.7235
  169SAPE  C21519113   0.879   4.367   8.263  0.1964 -0.1309  0.1967
  169SAPE  H15R19114   0.805   4.400   8.337 -0.2192 -0.2713 -0.1506
  169SAPE  C21619115   1.024   4.399   8.305  1.1782  0.5641  0.0818
  169SAPE  H16R19116   1.040   4.505   8.334  2.0147  0.5298 -0.2443
  169SAPE  H16S19117   1.094   4.387   8.220 -0.4856  1.6635 -1.5130
  169SAPE  C21719118   1.076   4.311   8.419  0.4495 -0.7616 -0.5185
  169SAPE  H17R19119   1.025   4.333   8.515 -1.8130  2.5690 -2.3033
  169SAPE  H17S19120   1.185   4.325   8.434  0.0034  1.8381  0.8443
  169SAPE  C21819121   1.049   4.159   8.399 -0.5932  1.3584  0.8110
  169SAPE  H18R19122   1.062   4.120   8.296 -0.3933 -0.0869  1.3541
  169SAPE  H18S19123   0.945   4.142   8.436 -0.7300  0.4005  0.0272
  169SAPE  C21919124   1.133   4.076   8.486 -0.0607 -0.4501 -0.0260
  169SAPE  H19R19125   1.081   3.978   8.488 -0.0038 -0.5997 -2.5347
  169SAPE  H19S19126   1.138   4.129   8.584 -1.2448  1.0172 -0.7161
  169SAPE  C22019127   1.275   4.035   8.438  0.1179 -0.7245 -0.0643
  169SAPE  H20R19128   1.260   3.984   8.340 -0.1048 -0.5698 -0.1115
  169SAPE  H20S19129   1.316   3.956   8.504  0.7593 -0.1873  0.1917
  169SAPE  H20T19130   1.349   4.116   8.419  0.1707 -0.1420  2.3603
  169SAPE   C3319131   1.157   3.642   6.967  0.2225  0.7989  0.4392
  169SAPE   H3X19132   1.063   3.703   6.969 -1.8489 -2.1115 -1.1989
  169SAPE   H3Y19133   1.242   3.712   6.957 -0.0645  1.8375  3.8667
  169SAPE   C3419134   1.187   3.589   7.109  0.3142  0.3795  1.2589
  169SAPE   H4X19135   1.292   3.562   7.132  1.0778  0.0421 -2.0851
  169SAPE   H4Y19136   1.121   3.502   7.130  0.8033 -0.1872  0.4950
  169SAPE   C3519137   1.150   3.698   7.211 -0.0266 -0.7148  0.8693
  169SAPE   H5X19138   1.044   3.728   7.197 -0.3371 -1.8459  0.7468
  169SAPE   H5Y19139   1.216   3.787   7.202 -0.7067 -0.2559  0.3399
  169SAPE   C3619140   1.141   3.646   7.359 -0.8359 -0.5467  0.4273
  169SAPE   H6X19141   1.182   3.734   7.412  0.1493  0.3437 -1.6806
  169SAPE   H6Y19142   1.207   3.560   7.385 -0.1128 -0.5822 -1.3360
  169SAPE   C3719143   1.004   3.613   7.413 -0.6153 -0.5633 -0.4617
  169SAPE   H7X19144   0.958   3.527   7.360  0.7996 -2.5113  1.3073
  169SAPE   H7Y19145   0.939   3.703   7.414 -1.3864 -1.0897 -1.4279
  169SAPE   C3819146   1.021   3.578   7.563 -0.5787  0.5997 -0.2156
  169SAPE   H8X19147   1.124   3.539   7.578 -2.0523 -3.3757  0.8127
  169SAPE   H8Y19148   0.947   3.503   7.596  0.7093 -1.0219 -0.8541
  169SAPE   C3919149   0.988   3.697   7.655 -0.2590  0.0322  0.1078
  169SAPE   H9X19150   0.878   3.709   7.661 -0.5135 -2.1639  0.9495
  169SAPE   H9Y19151   1.034   3.791   7.618  1.8903 -0.0052  2.4116
  169SAPE  C31019152   1.040   3.702   7.802  0.2878  0.4996  0.5457
  169SAPE  H10X19153   1.145   3.665   7.797  0.0991 -0.0375  0.5552
  169SAPE  H10Y19154   0.993   3.615   7.853 -0.9486  1.0476  0.3775
  169SAPE  C31119155   1.019   3.834   7.869 -0.3865  0.0404  0.7317
  169SAPE  H11X19156   0.960   3.895   7.798  1.1690  1.7202  0.7887
  169SAPE  H11Y19157   1.114   3.891   7.884 -1.5635  2.6210 -0.8969
  169SAPE  C31219158   0.936   3.818   7.997 -0.7729  0.8716 -0.7754
  169SAPE  H12X19159   0.849   3.751   7.982 -0.4134  0.1040  0.4439
  169SAPE  H12Y19160   0.901   3.920   8.026 -1.2071  0.5382 -0.0999
  169SAPE  C31319161   1.018   3.758   8.112 -0.5737  0.0784  0.9367
  169SAPE  H13X19162   1.115   3.811   8.110 -0.5013 -0.0483 -0.9731
  169SAPE  H13Y19163   1.039   3.653   8.082  2.0668  0.5439  0.9222
  169SAPE  C31419164   0.975   3.769   8.256  1.0056 -0.0151 -0.3560
  169SAPE  H14X19165   0.912   3.860   8.266 -3.2781 -2.8751  2.4393
  169SAPE  H14Y19166   1.064   3.774   8.323 -0.4560 -1.6404  1.9051
  169SAPE  C31519167   0.896   3.641   8.300 -0.3321 -0.1153  0.6998
  169SAPE  H15X19168   0.967   3.557   8.285 -0.1317  0.1864 -0.0807
  169SAPE  H15Y19169   0.808   3.626   8.234 -1.0690 -0.5781  1.7638
  169SAPE  C31619170   0.870   3.637   8.459 -0.2219 -0.2589  1.1816
  169SAPE  H16X19171   0.788   3.710   8.479  0.4154  1.1751 -1.1338
  169SAPE  H16Y19172   0.970   3.662   8.499 -0.3933 -0.9665  2.0873
  169SAPE  C31719173   0.826   3.500   8.502  0.7271 -0.1307 -0.4416
  169SAPE  H17X19174   0.901   3.424   8.472 -1.1176 -1.6141 -1.5301
  169SAPE  H17Y19175   0.734   3.475   8.445  1.1334  0.9347 -1.6329
  169SAPE  C31819176   0.796   3.496   8.657  0.9233  0.5413  0.1415
  169SAPE  H18X19177   0.723   3.579   8.669  0.0215 -0.1187 -0.6244
  169SAPE  H18Y19178   0.880   3.532   8.720  1.0007  0.3268  0.1612
  169SAPE  H18Z19179   0.756   3.396   8.685  1.3153 -0.2955 -2.0497
  170SAPE     N19180   1.955   0.627   6.435 -0.0826  0.5403  0.5296
  170SAPE   HN119181   1.979   0.532   6.402 -0.7826  1.0775 -1.6833
  170SAPE   HN219182   2.040   0.656   6.487  0.8033 -1.5421  0.3486
  170SAPE   HN319183   1.869   0.624   6.494 -0.1433  2.1373  0.5644
  170SAPE   C1219184   1.941   0.695   6.303  0.6812  0.9303 -0.6215
  170SAPE  H12A19185   1.918   0.802   6.315  0.6544  0.9238 -0.6143
  170SAPE  H12B19186   1.844   0.654   6.267  1.2270  1.1714 -2.4890
  170SAPE   C1119187   2.070   0.671   6.206  0.1858  0.0273 -0.2739
  170SAPE  H11A19188   2.045   0.712   6.106  1.7668  0.3569 -0.5490
  170SAPE  H11B19189   2.089   0.563   6.190  1.1698 -0.1417  1.7376
  170SAPE     P19190   2.229   0.879   6.218 -0.3557  0.1409  0.1354
  170SAPE   O1319191   2.327   0.866   6.107  0.0997  0.2671  0.5546
  170SAPE   O1419192   2.110   0.952   6.185  0.1824  0.1591 -0.1555
  170SAPE   O1219193   2.189   0.734   6.255  0.7585  0.7569 -0.0014
  170SAPE   O1119194   2.305   0.935   6.347 -1.0099  0.0208  0.1962
  170SAPE    C119195   2.426   0.868   6.390 -0.5865  0.1908 -0.1184
  170SAPE    HA19196   2.492   0.832   6.309 -2.4859  0.8516 -2.0778
  170SAPE    HB19197   2.488   0.950   6.430  0.2401  0.9899 -2.8043
  170SAPE    C219198   2.394   0.783   6.520  0.0683 -0.2031  0.2553
  170SAPE    HS19199   2.328   0.698   6.492 -0.8006  0.5791 -0.1198
  170SAPE   O2119200   2.329   0.868   6.613 -0.0173 -0.1144  0.0469
  170SAPE   C2119201   2.202   0.860   6.625  0.0546 -0.1414  0.1137
  170SAPE   O2219202   2.131   0.779   6.573  0.6501 -0.4627 -0.0756
  170SAPE   C2219203   2.165   0.972   6.718  0.7809 -0.3183  0.1208
  170SAPE   H2R19204   2.192   1.063   6.660 -1.2976 -0.4680 -1.2215
  170SAPE   H2S19205   2.054   0.970   6.731  0.5033  3.0072 -0.8705
  170SAPE    C319206   2.522   0.736   6.586 -0.3787 -0.1018  0.8952
  170SAPE    HX19207   2.594   0.821   6.585 -0.5797  0.0963 -0.7992
  170SAPE    HY19208   2.565   0.662   6.516  0.4647 -0.5359  1.8538
  170SAPE   O3119209   2.510   0.697   6.723  0.2064  0.1766  0.4063
  170SAPE   C3119210   2.628   0.648   6.775  0.6479  0.4092 -0.2675
  170SAPE   O3219211   2.731   0.642   6.715  0.2515  0.1859  0.1621
  170SAPE   C3219212   2.594   0.605   6.926 -0.4500  0.1030 -0.2635
  170SAPE   H2X19213   2.485   0.582   6.924 -0.0085 -2.2131 -1.6593
  170SAPE   H2Y19214   2.608   0.699   6.983 -1.1783  0.9399 -1.4229
  170SAPE   C2319215   2.230   0.967   6.854 -0.1412  0.0132  0.0468
  170SAPE   H3R19216   2.337   0.935   6.847  0.2250  1.3274 -0.6485
  170SAPE   H3S19217   2.184   0.889   6.919 -1.0884  0.5738  0.0526
  170SAPE   C2419218   2.225   1.101   6.942  0.4448  0.3438 -0.7457
  170SAPE   H4R19219   2.303   1.169   6.902  0.8457  1.9184  2.4740
  170SAPE   H4S19220   2.246   1.076   7.048 -2.6837 -2.5090 -0.6406
  170SAPE   C2519221   2.093   1.166   6.936 -0.2420 -0.2792  0.6218
  170SAPE   H5R19222   2.092   1.259   6.877  1.0722 -0.0042  0.9828
  170SAPE   C2619223   1.989   1.135   7.008  0.1861 -0.3897 -0.6918
  170SAPE   H6R19224   1.898   1.196   7.007  1.6039  2.0866  2.1568
  170SAPE   C2719225   1.971   1.021   7.101  0.1099  0.1523 -0.2887
  170SAPE   H7R19226   1.953   1.055   7.205 -0.3481 -0.2831 -0.2206
  170SAPE   H7S19227   2.063   0.960   7.117 -1.1124 -1.8547 -0.5329
  170SAPE   C2819228   1.859   0.938   7.041  0.1030 -0.2812  0.5074
  170SAPE   H8R19229   1.801   0.987   6.961 -0.6256  2.0410  2.3180
  170SAPE   C2919230   1.819   0.814   7.083  0.7825 -0.4103 -0.4339
  170SAPE   H9R19231   1.743   0.764   7.022  1.4199 -2.4769  0.3619
  170SAPE  C21019232   1.880   0.737   7.192  0.0421 -0.7305  0.2313
  170SAPE  H10R19233   1.967   0.784   7.242 -0.2300  0.5921 -0.5111
  170SAPE  H10S19234   1.902   0.638   7.146 -1.0633 -0.1295 -1.6952
  170SAPE  C21119235   1.768   0.699   7.285 -0.6981 -1.0738  0.8495
  170SAPE  H11R19236   1.666   0.714   7.245 -0.3912 -0.3488  0.3068
  170SAPE  C21219237   1.785   0.630   7.395 -0.0799 -0.0125  0.4074
  170SAPE  H12R19238   1.704   0.602   7.464  0.9899 -3.5110  0.4272
  170SAPE  C21319239   1.921   0.583   7.449 -0.3507 -0.0547  0.3515
  170SAPE  H13R19240   1.959   0.667   7.510 -0.0982 -0.6653  1.0391
  170SAPE  H13S19241   1.987   0.575   7.360 -0.7538  4.0885 -0.5333
  170SAPE  C21419242   1.918   0.462   7.543 -0.9233 -0.3660 -0.6544
  170SAPE  H14R19243   1.856   0.375   7.517 -1.2931 -0.4797  0.5276
  170SAPE  C21519244   1.983   0.451   7.661 -0.0214 -0.2780  0.3964
  170SAPE  H15R19245   1.968   0.357   7.715  0.6546 -1.7077 -1.7867
  170SAPE  C21619246   2.068   0.559   7.728 -0.4325  0.2702  0.2309
  170SAPE  H16R19247   2.057   0.659   7.680 -0.3963 -0.9215 -2.4498
  170SAPE  H16S19248   2.174   0.528   7.738 -0.3490 -0.8172 -3.0078
  170SAPE  C21719249   2.021   0.570   7.882  0.3902  0.2611  0.7086
  170SAPE  H17R19250   2.032   0.469   7.927  0.2699  1.0437  2.5858
  170SAPE  H17S19251   1.916   0.607   7.878  1.1527  2.5124 -1.5274
  170SAPE  C21819252   2.106   0.676   7.949  0.2595 -0.8032  0.2691
  170SAPE  H18R19253   2.109   0.766   7.885  4.1622 -0.9088  0.0940
  170SAPE  H18S19254   2.208   0.633   7.945  1.4394  1.8055  0.3710
  170SAPE  C21919255   2.053   0.726   8.091 -0.0350 -0.5580 -0.5882
  170SAPE  H19R19256   1.968   0.796   8.079 -0.1778 -0.7031 -0.4132
  170SAPE  H19S19257   2.141   0.780   8.132 -0.9284  0.2707  0.2867
  170SAPE  C22019258   2.015   0.610   8.190  0.4923 -0.0285 -0.2283
  170SAPE  H20R19259   1.920   0.558   8.165  0.7490 -1.0816  0.9162
  170SAPE  H20S19260   2.009   0.640   8.297 -1.9456  1.8820 -0.7966
  170SAPE  H20T19261   2.095   0.534   8.198  0.2700 -0.5625 -2.5820
  170SAPE   C3319262   2.666   0.483   6.982 -0.2975 -0.0493 -0.2101
  170SAPE   H3X19263   2.773   0.510   6.966  0.1004 -1.6235 -0.4085
  170SAPE   H3Y19264   2.652   0.389   6.925 -0.8516  0.3663 -0.7731
  170SAPE   C3419265   2.633   0.459   7.128 -0.1108 -0.1588  0.1725
  170SAPE   H4X19266   2.530   0.495   7.148  0.3246  1.0682  0.2815
  170SAPE   H4Y19267   2.695   0.525   7.192 -1.4857  0.6032  0.7521
  170SAPE   C3519268   2.673   0.311   7.174 -0.5516 -0.1238  0.2367
  170SAPE   H5X19269   2.778   0.283   7.151 -0.9741  1.3120 -4.3112
  170SAPE   H5Y19270   2.606   0.235   7.130  1.0248 -2.8830  2.2899
  170SAPE   C3619271   2.643   0.290   7.321 -0.8268 -0.0232  0.2509
  170SAPE   H6X19272   2.645   0.180   7.337 -0.7889 -0.0838 -0.1841
  170SAPE   H6Y19273   2.538   0.324   7.333 -0.4297  1.1191  0.5606
  170SAPE   C3719274   2.731   0.360   7.419  0.4612 -0.3496 -0.3382
  170SAPE   H7X19275   2.720   0.470   7.411 -1.7111 -0.5428 -0.6458
  170SAPE   H7Y19276   2.833   0.340   7.380  0.1593  2.4606 -2.9696
  170SAPE   C3819277   2.719   0.311   7.564  0.8773 -0.2304 -0.3734
  170SAPE   H8X19278   2.715   0.201   7.554  1.0279 -0.2130 -0.6352
  170SAPE   H8Y19279   2.615   0.338   7.591  1.3894  1.8838 -0.3185
  170SAPE   C3919280   2.819   0.374   7.660 -0.4382  0.2336  0.4608
  170SAPE   H9X19281   2.809   0.484   7.647 -0.3359  0.1118 -0.7990
  170SAPE   H9Y19282   2.921   0.345   7.626 -1.1398 -1.4106 -0.3611
  170SAPE  C31019283   2.808   0.332   7.806  0.4733 -0.1321  0.4770
  170SAPE  H10X19284   2.789   0.223   7.812  0.1185 -0.1462 -0.6506
  170SAPE  H10Y19285   2.712   0.369   7.849  0.1946 -1.4205  1.0178
  170SAPE  C31119286   2.934   0.362   7.892 -0.3173 -0.0057 -0.0924
  170SAPE  H11X19287   2.957   0.470   7.880  0.9720 -0.3517 -0.9093
  170SAPE  H11Y19288   3.022   0.297   7.876 -0.9551 -0.3563 -2.8189
  170SAPE  C31219289   2.884   0.353   8.038 -0.0476  0.5008 -0.5701
  170SAPE  H12X19290   2.822   0.441   8.064  1.0262  1.0810  0.1348
  170SAPE  H12Y19291   2.976   0.360   8.101 -0.9639  1.7850  0.6789
  170SAPE  C31319292   2.801   0.230   8.087  0.0803 -0.0839 -0.3144
  170SAPE  H13X19293   2.711   0.224   8.023 -0.7142 -0.8751  0.8412
  170SAPE  H13Y19294   2.779   0.242   8.195  0.0144 -1.6348 -0.1302
  170SAPE  C31419295   2.876   0.097   8.068  0.1293 -0.0939  0.0312
  170SAPE  H14X19296   2.977   0.116   8.113 -1.3715  1.0422  3.2629
  170SAPE  H14Y19297   2.888   0.067   7.962 -2.6663  0.8845 -0.6422
  170SAPE  C31519298   2.798  -0.027   8.122  0.0900  0.7626  0.0011
  170SAPE  H15X19299   2.707  -0.054   8.065 -0.9193 -2.3838  2.8408
  170SAPE  H15Y19300   2.744   0.005   8.214 -0.9687 -0.6732 -0.0930
  170SAPE  C31619301   2.883  -0.144   8.157 -0.7778  0.9866 -0.8309
  170SAPE  H16X19302   2.971  -0.116   8.219 -1.0733 -0.5576  0.3553
  170SAPE  H16Y19303   2.931  -0.175   8.062  2.8873  1.6587  0.6190
  170SAPE  C31719304   2.805  -0.262   8.223 -0.5867  0.2715  0.5221
  170SAPE  H17X19305   2.887  -0.330   8.258 -0.5526  0.6954  1.2753
  170SAPE  H17Y19306   2.740  -0.313   8.149 -2.9042  4.9501 -1.0516
  170SAPE  C31819307   2.729  -0.218   8.342  0.1238  0.4367 -0.1890
  170SAPE  H18X19308   2.660  -0.131   8.332 -1.9600 -0.8765  1.7981
  170SAPE  H18Y19309   2.805  -0.190   8.419 -0.8473  0.4588  0.7809
  170SAPE  H18Z19310   2.666  -0.298   8.386 -1.4231  2.2928  1.1060
  171SAPE     N19311   3.397   1.630   6.332 -0.3118 -0.2288  0.3370
  171SAPE   HN119312   3.312   1.623   6.273  0.5015  1.7652 -1.2381
  171SAPE   HN219313   3.437   1.726   6.333 -0.8175  0.0348 -1.2065
  171SAPE   HN319314   3.463   1.566   6.283  0.0499  0.0866  0.4069
  171SAPE   C1219315   3.378   1.566   6.470  0.2164  0.4494  0.0319
  171SAPE  H12A19316   3.289   1.622   6.505  0.5792 -0.4503  2.5231
  171SAPE  H12B19317   3.461   1.571   6.544 -0.8043  1.0839  1.1691
  171SAPE   C1119318   3.339   1.413   6.449 -0.1397 -0.5741 -0.9392
  171SAPE  H11A19319   3.325   1.381   6.554 -0.7024  0.4351 -0.6892
  171SAPE  H11B19320   3.427   1.359   6.408 -0.3101 -1.0233 -0.7168
  171SAPE     P19321   3.177   1.247   6.327  0.2228 -0.1024  0.0949
  171SAPE   O1319322   3.104   1.245   6.201 -0.2206 -0.2541 -0.1682
  171SAPE   O1419323   3.294   1.150   6.334 -0.0331 -0.3443  0.1850
  171SAPE   O1219324   3.227   1.389   6.365 -0.3606 -0.0198 -0.2255
  171SAPE   O1119325   3.061   1.220   6.437 -0.4521  0.1230 -0.0373
  171SAPE    C119326   2.961   1.313   6.462  0.2777  0.4317  0.1733
  171SAPE    HA19327   2.950   1.386   6.378  2.0109 -1.0912 -1.4899
  171SAPE    HB19328   2.863   1.261   6.466  0.5914 -0.2844 -0.9441
  171SAPE    C219329   2.981   1.388   6.597  0.6830 -0.5247  0.9822
  171SAPE    HS19330   3.085   1.426   6.602  0.2596  0.6790  1.0603
  171SAPE   O2119331   2.957   1.297   6.704 -0.2380 -0.3156  0.0973
  171SAPE   C2119332   3.060   1.221   6.735 -0.2466 -0.1152 -0.4349
  171SAPE   O2219333   3.168   1.221   6.689 -0.2127 -0.0515 -0.3109
  171SAPE   C2219334   3.016   1.145   6.862  0.0107  0.0666 -0.5676
  171SAPE   H2R19335   2.910   1.163   6.887  0.4055 -0.0054  1.2672
  171SAPE   H2S19336   3.014   1.041   6.823  0.7229  0.5903 -2.1145
  171SAPE    C319337   2.879   1.497   6.613 -0.1356  0.2415 -0.5460
  171SAPE    HX19338   2.777   1.457   6.592 -0.0040 -0.3591 -0.0836
  171SAPE    HY19339   2.898   1.577   6.538  4.2432 -0.0966 -0.0450
  171SAPE   O3119340   2.893   1.561   6.742  0.3184 -0.1990  0.6468
  171SAPE   C3119341   2.799   1.559   6.835 -0.7740  0.5102 -0.0739
  171SAPE   O3219342   2.701   1.491   6.830 -0.1425 -0.0902 -0.1977
  171SAPE   C3219343   2.843   1.650   6.947 -0.8489  0.5455  0.7059
  171SAPE   H2X19344   2.864   1.752   6.909  3.4315 -1.0783 -2.1319
  171SAPE   H2Y19345   2.944   1.613   6.978 -1.3894 -1.2131  0.4700
  171SAPE   C2319346   3.118   1.160   6.975  0.3253  0.7224 -0.6768
  171SAPE   H3R19347   3.218   1.119   6.948  0.6145 -0.3827  1.8190
  171SAPE   H3S19348   3.085   1.087   7.051 -3.8464  1.4601 -1.5769
  171SAPE   C2419349   3.118   1.303   7.036 -0.3792  0.4889 -0.2413
  171SAPE   H4R19350   3.146   1.383   6.965 -0.2824  1.0868  0.4567
  171SAPE   H4S19351   3.193   1.301   7.118 -1.5738  0.1545  0.8876
  171SAPE   C2519352   2.983   1.344   7.086  0.1060  0.4469 -0.7236
  171SAPE   H5R19353   2.909   1.365   7.007 -1.1310 -1.0327 -0.0173
  171SAPE   C2619354   2.943   1.346   7.221  0.1558 -0.1063  0.5563
  171SAPE   H6R19355   2.843   1.386   7.243 -0.5989  0.0510 -2.6454
  171SAPE   C2719356   3.018   1.307   7.349  0.3320  0.3004 -0.3664
  171SAPE   H7R19357   3.109   1.246   7.329  0.9949  0.5280  1.6992
  171SAPE   H7S19358   2.963   1.254   7.429  0.9715  2.4707  1.6149
  171SAPE   C2819359   3.065   1.436   7.414 -0.2916 -0.3011  0.0118
  171SAPE   H8R19360   3.092   1.520   7.349  3.9167 -0.8506  0.7452
  171SAPE   C2919361   3.074   1.459   7.545  0.5275  0.5931  0.2741
  171SAPE   H9R19362   3.105   1.560   7.575  0.1707  0.7595  0.0841
  171SAPE  C21019363   3.043   1.361   7.657 -0.5612 -0.5604  0.8666
  171SAPE  H10R19364   3.117   1.279   7.653 -0.2296 -0.2056 -1.5299
  171SAPE  H10S19365   2.947   1.310   7.635 -0.0956 -1.3333  0.6141
  171SAPE  C21119366   3.049   1.433   7.787  0.3065  0.8977  0.5276
  171SAPE  H11R19367   2.969   1.509   7.786 -0.5492  0.0229 -0.3860
  171SAPE  C21219368   3.149   1.433   7.880  0.1100  0.2049  1.2468
  171SAPE  H12R19369   3.132   1.484   7.976  1.2562  0.7083  1.1963
  171SAPE  C21319370   3.271   1.348   7.868 -0.8844 -0.5858 -0.2595
  171SAPE  H13R19371   3.361   1.408   7.893  0.7336 -1.6517 -3.0597
  171SAPE  H13S19372   3.285   1.309   7.764 -0.2723  0.3466 -0.5370
  171SAPE  C21419373   3.246   1.233   7.963 -0.1294  0.2056  0.8017
  171SAPE  H14R19374   3.140   1.211   7.981 -1.2626  2.2485 -2.4941
  171SAPE  C21519375   3.337   1.141   8.000  0.4302  0.3068 -0.5355
  171SAPE  H15R19376   3.300   1.061   8.065  0.0159  3.3047  3.2917
  171SAPE  C21619377   3.486   1.141   7.964 -0.3859  0.8258 -0.7846
  171SAPE  H16R19378   3.516   1.240   7.926 -0.2770  0.6378 -1.1904
  171SAPE  H16S19379   3.517   1.061   7.893 -0.2730 -0.5813  0.7613
  171SAPE  C21719380   3.564   1.110   8.096 -0.3798  0.8452 -0.4750
  171SAPE  H17R19381   3.668   1.130   8.062 -0.4323 -0.0495 -1.1777
  171SAPE  H17S19382   3.543   1.006   8.127 -0.1444  1.3436  1.5578
  171SAPE  C21819383   3.528   1.206   8.214 -0.2535  0.4607  0.3467
  171SAPE  H18R19384   3.426   1.185   8.251 -1.4317  2.0858 -1.7390
  171SAPE  H18S19385   3.516   1.308   8.171 -0.7961 -0.1655 -1.0280
  171SAPE  C21919386   3.618   1.203   8.340 -0.4668  0.2916 -0.2298
  171SAPE  H19R19387   3.629   1.101   8.383  1.1554  0.3611 -0.4277
  171SAPE  H19S19388   3.566   1.252   8.426 -2.3337 -0.7648 -0.6963
  171SAPE  C22019389   3.751   1.266   8.321  0.0791  0.7123  0.5688
  171SAPE  H20R19390   3.756   1.374   8.296 -2.5902  0.8749  0.3752
  171SAPE  H20S19391   3.793   1.222   8.228 -0.5513  0.6596  0.3039
  171SAPE  H20T19392   3.822   1.241   8.403  0.1278  1.6707  0.8289
  171SAPE   C3319393   2.753   1.641   7.065 -0.1607 -0.6086 -0.2265
  171SAPE   H3X19394   2.746   1.533   7.090 -0.0156 -0.0462  2.5894
  171SAPE   H3Y19395   2.654   1.683   7.037 -0.0743 -0.1058  0.1969
  171SAPE   C3419396   2.808   1.701   7.193 -0.5618  0.1680  0.5909
  171SAPE   H4X19397   2.906   1.650   7.203 -1.0919 -1.3400 -1.2578
  171SAPE   H4Y19398   2.739   1.669   7.274 -0.2765 -1.7788  0.1075
  171SAPE   C3519399   2.822   1.853   7.197  0.1364  0.1001  0.3568
  171SAPE   H5X19400   2.720   1.896   7.191 -0.2660 -0.7975  0.5222
  171SAPE   H5Y19401   2.866   1.871   7.097 -0.1576 -0.0287  0.2028
  171SAPE   C3619402   2.907   1.910   7.317  0.0180  0.2527 -0.2257
  171SAPE   H6X19403   2.913   2.021   7.306 -0.8590  0.4508  1.0998
  171SAPE   H6Y19404   3.016   1.890   7.318  0.5387  2.6243  2.0333
  171SAPE   C3719405   2.847   1.876   7.453  0.4710  0.2390 -0.0224
  171SAPE   H7X19406   2.854   1.765   7.462  0.0863  0.2035 -0.1670
  171SAPE   H7Y19407   2.737   1.882   7.461  0.0827 -1.7361 -2.6302
  171SAPE   C3819408   2.910   1.952   7.571  1.4005 -0.2662  0.5289
  171SAPE   H8X19409   2.907   2.063   7.561 -1.5401 -0.4387 -2.4516
  171SAPE   H8Y19410   3.015   1.916   7.577  2.2066  2.0455  1.2332
  171SAPE   C3919411   2.840   1.913   7.705  0.0110  0.2349 -0.6025
  171SAPE   H9X19412   2.851   1.803   7.708 -0.3951  0.1441  3.4561
  171SAPE   H9Y19413   2.733   1.945   7.701 -0.3344 -0.9632 -1.2468
  171SAPE  C31019414   2.899   1.973   7.829  0.2761  0.5582  0.0926
  171SAPE  H10X19415   2.878   2.081   7.812 -0.5754  0.2643 -0.7801
  171SAPE  H10Y19416   3.009   1.961   7.836  0.2985  0.3502 -0.5082
  171SAPE  C31119417   2.846   1.914   7.960  0.0393 -0.0624  0.3471
  171SAPE  H11X19418   2.738   1.941   7.953 -0.3684 -1.8379 -1.1764
  171SAPE  H11Y19419   2.892   1.975   8.040  4.6709  0.1228 -2.1240
  171SAPE  C31219420   2.878   1.768   7.981 -0.1226 -0.4821  0.5691
  171SAPE  H12X19421   2.983   1.739   7.957  0.3981  1.8053 -0.2095
  171SAPE  H12Y19422   2.807   1.715   7.915 -0.0658  1.5677 -1.2578
  171SAPE  C31319423   2.851   1.729   8.123  0.0347  0.0657 -1.1173
  171SAPE  H13X19424   2.747   1.764   8.143  0.1458 -0.6551  0.9612
  171SAPE  H13Y19425   2.906   1.791   8.196  0.9599 -0.2237 -1.5484
  171SAPE  C31419426   2.880   1.582   8.154 -0.0082 -0.3406 -0.3381
  171SAPE  H14X19427   2.989   1.563   8.143  0.0742 -0.1398  0.1031
  171SAPE  H14Y19428   2.824   1.516   8.084  1.7868 -0.5585 -1.6404
  171SAPE  C31519429   2.832   1.546   8.294  0.0540 -0.9809 -0.3451
  171SAPE  H15X19430   2.891   1.594   8.375  0.8258 -1.0038 -0.8839
  171SAPE  H15Y19431   2.836   1.436   8.300 -2.7120 -1.6098 -5.1085
  171SAPE  C31619432   2.691   1.579   8.311  0.2178  0.5276 -0.0056
  171SAPE  H16X19433   2.626   1.556   8.224  0.3776  0.4989 -0.1171
  171SAPE  H16Y19434   2.676   1.685   8.339  2.1705  0.8247  0.0670
  171SAPE  C31719435   2.636   1.502   8.434  0.4899 -0.2150  0.0464
  171SAPE  H17X19436   2.682   1.542   8.527 -1.8070  1.8870  0.3774
  171SAPE  H17Y19437   2.660   1.397   8.407 -1.6945 -0.5735 -0.7058
  171SAPE  C31819438   2.487   1.522   8.454  0.2125  0.7005  0.1027
  171SAPE  H18X19439   2.466   1.628   8.483  0.2293  0.7835 -0.1825
  171SAPE  H18Y19440   2.445   1.457   8.533 -3.5812  0.0601 -2.1844
  171SAPE  H18Z19441   2.432   1.487   8.364  0.3508 -1.1280  0.6929
  172SAPE     N19442   2.975   0.512   6.387  0.6531  0.6597 -0.0424
  172SAPE   HN119443   2.967   0.613   6.407 -1.9085  0.2562  1.3573
  172SAPE   HN219444   2.890   0.471   6.430  0.0854  1.8112 -0.0267
  172SAPE   HN319445   3.061   0.468   6.427 -0.3030 -0.8944  0.3712
  172SAPE   C1219446   2.989   0.485   6.238 -0.2395 -0.7979  0.6542
  172SAPE  H12A19447   3.044   0.569   6.193 -0.8171  0.1294  1.6192
  172SAPE  H12B19448   2.885   0.483   6.198 -0.0401 -2.5351  0.1592
  172SAPE   C1119449   3.047   0.347   6.209  0.0192  0.5535  0.5889
  172SAPE  H11A19450   3.153   0.350   6.240 -0.1719 -0.2092  1.3224
  172SAPE  H11B19451   3.061   0.326   6.101  1.2538 -1.0268  1.0359
  172SAPE     P19452   2.840   0.188   6.230  0.5923  0.4663  0.1946
  172SAPE   O1319453   2.821   0.202   6.085  0.0821  0.6780  0.1066
  172SAPE   O1419454   2.818   0.057   6.292  0.2081  0.2274  0.3258
  172SAPE   O1219455   2.979   0.241   6.274  0.4693  0.5418  0.4215
  172SAPE   O1119456   2.749   0.295   6.298 -0.4984  0.1443  0.4361
  172SAPE    C119457   2.608   0.270   6.323 -0.8332 -0.1105  0.2093
  172SAPE    HA19458   2.554   0.338   6.254  3.1212  0.7261 -2.4247
  172SAPE    HB19459   2.570   0.168   6.303 -2.2907  0.4324  0.0616
  172SAPE    C219460   2.568   0.307   6.472  0.2883 -0.0744 -0.1873
  172SAPE    HS19461   2.578   0.418   6.480  0.8171  0.0470 -2.0459
  172SAPE   O2119462   2.649   0.232   6.556  0.4447  0.5660 -0.5997
  172SAPE   C2119463   2.769   0.286   6.591  1.1098  0.5344  0.6874
  172SAPE   O2219464   2.804   0.395   6.559 -0.2399  0.0369 -0.5096
  172SAPE   C2219465   2.856   0.156   6.636 -0.4439 -0.1325  0.3640
  172SAPE   H2R19466   2.814   0.060   6.600 -0.6446  0.0157  0.1963
  172SAPE   H2S19467   2.955   0.170   6.588 -1.5157  0.7506 -1.7272
  172SAPE    C319468   2.419   0.264   6.504  0.9424  0.1993 -0.2693
  172SAPE    HX19469   2.404   0.156   6.484  1.0071  0.3322 -1.0657
  172SAPE    HY19470   2.376   0.324   6.420  2.5795 -0.6740 -1.8023
  172SAPE   O3119471   2.373   0.314   6.634 -0.2734  0.4098 -0.1936
  172SAPE   C3119472   2.271   0.397   6.637  0.6123 -0.8882  0.0435
  172SAPE   O3219473   2.224   0.452   6.538  0.4639  0.8433  0.1577
  172SAPE   C3219474   2.224   0.421   6.784  0.2584  0.4372 -0.3900
  172SAPE   H2X19475   2.311   0.386   6.843  1.4719 -0.0110 -2.3359
  172SAPE   H2Y19476   2.129   0.364   6.785 -0.4332  1.5546  0.2416
  172SAPE   C2319477   2.882   0.153   6.789 -0.2849  0.1534  0.7406
  172SAPE   H3R19478   2.809   0.091   6.846 -0.0675 -0.0190  0.8304
  172SAPE   H3S19479   2.888   0.257   6.827 -0.4449  0.1495  0.7785
  172SAPE   C2419480   3.024   0.099   6.826  0.6785  0.0053 -0.4613
  172SAPE   H4R19481   3.061   0.154   6.915  1.5765 -1.9467  0.4313
  172SAPE   H4S19482   3.098   0.131   6.750  0.7513 -1.6571 -1.1442
  172SAPE   C2519483   3.027  -0.052   6.846  0.0190  0.2654  0.5755
  172SAPE   H5R19484   3.005  -0.107   6.754 -0.7059 -0.1893  1.0127
  172SAPE   C2619485   3.047  -0.116   6.961 -0.4241 -0.3421 -0.2884
  172SAPE   H6R19486   3.018  -0.222   6.961 -1.5349 -0.0591 -1.7719
  172SAPE   C2719487   3.082  -0.069   7.097 -0.4440 -0.8470  0.4539
  172SAPE   H7R19488   3.147   0.021   7.094 -3.8475  1.8158  1.4348
  172SAPE   H7S19489   3.140  -0.153   7.141  0.3577 -2.4149 -3.2164
  172SAPE   C2819490   2.970  -0.022   7.185 -0.0674 -0.2943 -0.2782
  172SAPE   H8R19491   2.872  -0.010   7.136 -1.4135 -3.0785  1.4775
  172SAPE   C2919492   2.969   0.017   7.313  0.6807 -0.4715  0.4736
  172SAPE   H9R19493   2.871   0.039   7.357 -0.2054  0.9436 -2.0298
  172SAPE  C21019494   3.085   0.021   7.406 -0.0887  0.3285  0.2827
  172SAPE  H10R19495   3.181   0.034   7.351  0.9372 -1.0275  1.6471
  172SAPE  H10S19496   3.112  -0.077   7.452 -1.3766 -0.2046 -0.0780
  172SAPE  C21119497   3.074   0.128   7.516 -0.4840 -0.3625 -0.2842
  172SAPE  H11R19498   3.027   0.221   7.479  0.0989 -0.8872 -2.4660
  172SAPE  C21219499   3.117   0.120   7.650  0.4449  0.1651  0.7724
  172SAPE  H12R19500   3.095   0.210   7.709  1.4710  0.7343  0.3052
  172SAPE  C21319501   3.176  -0.001   7.722 -1.5190 -0.5620  0.0888
  172SAPE  H13R19502   3.232  -0.056   7.644  3.1387  1.6534  1.4988
  172SAPE  H13S19503   3.090  -0.060   7.761 -1.8617 -0.2475 -0.1765
  172SAPE  C21419504   3.278   0.049   7.821  0.1319  0.1459 -0.0945
  172SAPE  H14R19505   3.346   0.127   7.783  1.1769 -1.5638 -1.9213
  172SAPE  C21519506   3.290   0.008   7.950  0.4478  0.0950 -0.2801
  172SAPE  H15R19507   3.374   0.058   8.000  1.6243  0.1921 -2.2547
  172SAPE  C21619508   3.204  -0.096   8.019 -0.0797  0.0786 -0.1579
  172SAPE  H16R19509   3.113  -0.120   7.959 -0.7419 -0.2103  0.9276
  172SAPE  H16S19510   3.169  -0.044   8.111  0.6678 -2.0167  1.3808
  172SAPE  C21719511   3.273  -0.225   8.059 -0.2630  0.5562 -0.4448
  172SAPE  H17R19512   3.364  -0.212   8.122  0.2702  1.8812 -1.4557
  172SAPE  H17S19513   3.305  -0.275   7.965 -1.2601 -2.5068  0.7188
  172SAPE  C21819514   3.184  -0.322   8.141  0.1424 -0.8050  0.5910
  172SAPE  H18R19515   3.104  -0.361   8.075 -0.3525  2.9410 -1.3094
  172SAPE  H18S19516   3.138  -0.270   8.228  1.3747 -1.2314  1.5377
  172SAPE  C21919517   3.247  -0.446   8.207  0.0019  0.1412  0.2672
  172SAPE  H19R19518   3.309  -0.503   8.134  0.8893  0.8355  0.4544
  172SAPE  H19S19519   3.164  -0.517   8.227  0.3310 -0.0595  0.9253
  172SAPE  C22019520   3.328  -0.418   8.343 -0.0884  0.2582 -0.6029
  172SAPE  H20R19521   3.412  -0.345   8.333  2.0166 -1.2302  3.7678
  172SAPE  H20S19522   3.383  -0.511   8.366 -0.5498  0.2579  0.5752
  172SAPE  H20T19523   3.264  -0.397   8.431  0.3936 -0.3960 -0.0906
  172SAPE   C3319524   2.187   0.562   6.825  0.0172  0.1590  0.5533
  172SAPE   H3X19525   2.112   0.604   6.755  2.0733  1.0349 -1.2361
  172SAPE   H3Y19526   2.280   0.618   6.799  1.3070 -1.5926  1.1679
  172SAPE   C3419527   2.128   0.573   6.969 -0.4006  0.2031  0.3084
  172SAPE   H4X19528   2.056   0.491   6.992 -0.0440  0.6745  3.5534
  172SAPE   H4Y19529   2.092   0.678   6.973  1.7271  1.0517 -1.1563
  172SAPE   C3519530   2.221   0.569   7.094  0.3362  0.2731 -0.2892
  172SAPE   H5X19531   2.314   0.508   7.087 -0.3883 -1.1491  1.4915
  172SAPE   H5Y19532   2.164   0.545   7.187 -1.1541  0.4089 -1.1348
  172SAPE   C3619533   2.285   0.712   7.117 -0.5517 -0.4690 -0.5506
  172SAPE   H6X19534   2.202   0.786   7.118 -3.0793 -3.1202  1.0170
  172SAPE   H6Y19535   2.361   0.741   7.041 -1.0905 -1.0232 -1.3172
  172SAPE   C3719536   2.348   0.717   7.252  0.3911 -0.5116  0.3864
  172SAPE   H7X19537   2.444   0.662   7.264  0.0520 -1.6990 -1.7987
  172SAPE   H7Y19538   2.269   0.687   7.324 -0.5313  0.1450 -0.3289
  172SAPE   C3819539   2.384   0.858   7.300  0.6564 -0.0493 -0.7564
  172SAPE   H8X19540   2.293   0.906   7.342 -0.4294 -1.0715 -1.8444
  172SAPE   H8Y19541   2.419   0.909   7.207  1.5116 -0.3709 -0.6210
  172SAPE   C3919542   2.495   0.848   7.402 -0.6648  0.7021 -0.0158
  172SAPE   H9X19543   2.533   0.948   7.433  2.5710 -0.3734 -0.2004
  172SAPE   H9Y19544   2.584   0.795   7.363 -0.2171  2.1121 -0.9617
  172SAPE  C31019545   2.462   0.782   7.542  0.7623  0.0830  0.0420
  172SAPE  H10X19546   2.377   0.711   7.533 -0.1984  1.1744  0.2986
  172SAPE  H10Y19547   2.433   0.863   7.613 -1.1166 -0.6476  0.1618
  172SAPE  C31119548   2.593   0.717   7.601  0.2429 -0.1291 -0.6314
  172SAPE  H11X19549   2.670   0.797   7.608 -0.7850  0.9566 -1.3385
  172SAPE  H11Y19550   2.646   0.650   7.530  2.1683  0.8095 -0.1324
  172SAPE  C31219551   2.568   0.657   7.747 -0.2334 -0.0026  0.0882
  172SAPE  H12X19552   2.640   0.576   7.772  1.5218  0.4586 -3.0128
  172SAPE  H12Y19553   2.472   0.601   7.748  0.6808 -1.6442  0.9909
  172SAPE  C31319554   2.560   0.762   7.851 -0.3698  0.4173 -0.5336
  172SAPE  H13X19555   2.482   0.837   7.824  1.0384  2.6265  1.1794
  172SAPE  H13Y19556   2.652   0.820   7.871 -1.1457  1.1202  1.2402
  172SAPE  C31419557   2.511   0.700   7.990 -0.1157 -0.2509 -0.3295
  172SAPE  H14X19558   2.454   0.606   7.974  1.5639 -1.3822  0.0141
  172SAPE  H14Y19559   2.442   0.775   8.032 -0.4144  0.9970 -2.8720
  172SAPE  C31519560   2.626   0.657   8.087 -0.0998  0.0127 -0.1074
  172SAPE  H15X19561   2.716   0.721   8.096  0.5936 -1.0069  0.4897
  172SAPE  H15Y19562   2.662   0.557   8.055  0.5980 -0.2384  1.3619
  172SAPE  C31619563   2.565   0.642   8.230 -0.3014  0.1571 -0.0269
  172SAPE  H16X19564   2.470   0.586   8.220  0.7869 -1.8922  0.5679
  172SAPE  H16Y19565   2.544   0.745   8.264 -0.9034 -0.5103  1.7455
  172SAPE  C31719566   2.664   0.568   8.328  0.1841  0.1790 -0.0352
  172SAPE  H17X19567   2.768   0.553   8.291  0.1026  1.1702 -0.7004
  172SAPE  H17Y19568   2.612   0.471   8.344 -0.4116  0.2545 -1.4072
  172SAPE  C31819569   2.681   0.652   8.463  0.4177 -0.2255  1.0398
  172SAPE  H18X19570   2.602   0.627   8.536  0.4593 -2.3010  0.4460
  172SAPE  H18Y19571   2.681   0.762   8.453 -0.2143 -0.2306  0.9872
  172SAPE  H18Z19572   2.774   0.617   8.513 -0.6174 -0.4175  2.9172
  173SOPE     N19573   2.377   4.237  10.920 -0.4004 -0.1216  0.6768
  173SOPE   HN119574   2.392   4.329  10.875 -1.1118  0.4767  1.6276
  173SOPE   HN219575   2.444   4.172  10.873 -0.2644  1.3054 -1.2053
  173SOPE   HN319576   2.280   4.209  10.898  0.2397 -1.3396 -0.8027
  173SOPE   C1219577   2.411   4.257  11.064 -0.3614 -0.0246  0.1238
  173SOPE  H12A19578   2.468   4.171  11.105  0.0345  0.5582  0.8291
  173SOPE  H12B19579   2.317   4.270  11.121 -0.1365 -0.1011  0.5218
  173SOPE   C1119580   2.504   4.388  11.080  0.0788 -0.7670  0.0501
  173SOPE  H11A19581   2.594   4.362  11.021  0.0727 -0.2418 -0.1946
  173SOPE  H11B19582   2.527   4.392  11.189  0.1595  0.8891 -0.0116
  173SOPE     P19583   2.473   4.600  10.927  0.1443  0.6149  0.2670
  173SOPE   O1319584   2.612   4.637  10.922 -0.2780  0.1267 -0.0665
  173SOPE   O1419585   2.372   4.712  10.931  0.1293  0.7616 -0.1784
  173SOPE   O1219586   2.439   4.509  11.046  0.0675  0.5731  0.5041
  173SOPE   O1119587   2.443   4.496  10.819 -0.3667 -0.0687 -0.9963
  173SOPE    C119588   2.518   4.479  10.698 -0.9723  0.3672  0.1446
  173SOPE    HA19589   2.470   4.391  10.649  1.4241 -1.4740  0.8646
  173SOPE    HB19590   2.626   4.454  10.706 -0.6143  1.5914 -0.7249
  173SOPE    C219591   2.507   4.592  10.598  0.6949 -0.7459  0.3515
  173SOPE    HS19592   2.537   4.686  10.649 -2.5861  0.4689  0.3025
  173SOPE   O2119593   2.374   4.594  10.551  0.0876 -0.3319  0.2816
  173SOPE   C2119594   2.300   4.708  10.545 -0.3803 -0.6527 -0.6320
  173SOPE   O2219595   2.344   4.823  10.569  0.7290  0.5713 -0.4376
  173SOPE   C2219596   2.166   4.678  10.491  0.1898 -0.2307  0.7341
  173SOPE   H2R19597   2.082   4.666  10.563 -1.5198 -4.1307 -1.5770
  173SOPE   H2S19598   2.172   4.579  10.441 -0.2495  0.7481 -1.3520
  173SOPE    C319599   2.607   4.583  10.479  0.3377 -0.7792  0.3408
  173SOPE    HX19600   2.613   4.478  10.444 -0.2527 -0.4038 -0.9312
  173SOPE    HY19601   2.711   4.601  10.514  0.7827 -2.7380  0.1379
  173SOPE   O3119602   2.568   4.662  10.363  0.0436 -0.3769 -0.0433
  173SOPE   C3119603   2.653   4.743  10.299  0.6011  0.0633 -0.1576
  173SOPE   O3219604   2.772   4.753  10.325 -0.5917  0.2451 -0.1042
  173SOPE   C3219605   2.585   4.820  10.180 -0.0738 -0.0033  0.1606
  173SOPE   H2X19606   2.559   4.920  10.221 -0.6769  0.5675 -1.5601
  173SOPE   H2Y19607   2.493   4.763  10.155  0.8744 -2.5777  2.0612
  173SOPE   C2319608   2.128   4.774  10.371 -0.3611  0.3761 -0.1608
  173SOPE   H3R19609   2.205   4.774  10.291 -1.5346 -0.2073 -1.3258
  173SOPE   H3S19610   2.123   4.874  10.419  0.4165 -0.2746  1.3592
  173SOPE   C2419611   2.001   4.727  10.299 -0.5532 -0.7179 -0.8549
  173SOPE   H4R19612   2.003   4.621  10.266  0.5136 -1.2768  0.8869
  173SOPE   H4S19613   1.915   4.727  10.368 -1.5059 -1.1271 -2.0153
  173SOPE   C2519614   1.976   4.816  10.176  0.5599  0.0616 -0.7258
  173SOPE   H5R19615   1.865   4.810  10.171  0.6489 -1.5049 -1.2458
  173SOPE   H5S19616   1.987   4.923  10.204 -1.2889  0.2025 -0.3661
  173SOPE   C2619617   2.045   4.786  10.049 -0.3184  0.7403 -0.9204
  173SOPE   H6R19618   2.154   4.784  10.073 -0.2108 -0.9490 -1.3981
  173SOPE   H6S19619   2.023   4.680  10.023  0.0596  0.1594  0.9421
  173SOPE   C2719620   2.025   4.879   9.930 -0.0481  0.4968  0.1770
  173SOPE   H7R19621   1.919   4.908   9.918  0.0535  0.0677 -2.4956
  173SOPE   H7S19622   2.075   4.973   9.963 -1.6980  0.9228  1.5669
  173SOPE   C2819623   2.093   4.802   9.816 -0.3079 -0.0829  0.2453
  173SOPE   H8R19624   2.127   4.879   9.744 -1.0163  0.1866  0.1894
  173SOPE   H8S19625   2.191   4.765   9.852 -1.2444 -2.2121  0.7504
  173SOPE   C2919626   2.024   4.679   9.753 -0.4345  0.1394  0.7560
  173SOPE   H9119627   2.043   4.579   9.795 -0.0466  0.1109  0.5160
  173SOPE  C21019628   1.947   4.688   9.641  0.1698  0.0923  0.6748
  173SOPE  H10119629   1.906   4.596   9.596 -1.0268  0.8014  0.2743
  173SOPE  C21119630   1.915   4.812   9.566  0.5516  0.5627 -0.1623
  173SOPE  H11R19631   1.913   4.899   9.634  2.5908  0.5297 -0.0173
  173SOPE  H11S19632   1.814   4.808   9.519  0.4272 -1.8888  0.1741
  173SOPE  C21219633   2.010   4.841   9.443  0.0210  0.0542 -0.0851
  173SOPE  H12R19634   2.117   4.846   9.472  0.2085 -2.2886 -0.1954
  173SOPE  H12S19635   1.961   4.934   9.406  0.2202  0.8171  1.4858
  173SOPE  C21319636   2.000   4.735   9.329 -0.5305 -0.0061  0.0417
  173SOPE  H13R19637   1.893   4.740   9.301 -0.6104 -0.5105  0.2501
  173SOPE  H13S19638   2.031   4.633   9.360  1.9287  1.0394  1.3535
  173SOPE  C21419639   2.102   4.775   9.216  0.5208  0.0920  0.2809
  173SOPE  H14R19640   2.204   4.780   9.259  0.7488  0.7268 -0.3056
  173SOPE  H14S19641   2.064   4.874   9.182  0.1822  0.4326  1.6261
  173SOPE  C21519642   2.104   4.676   9.097 -0.0706  0.1426 -0.0418
  173SOPE  H15R19643   2.009   4.692   9.042 -0.0438 -2.0788 -0.8210
  173SOPE  H15S19644   2.121   4.570   9.127  0.2931 -0.0720 -0.9706
  173SOPE  C21619645   2.212   4.710   8.992  0.4165 -0.9333  0.0648
  173SOPE  H16R19646   2.210   4.818   8.967  1.7326 -1.0179 -0.5281
  173SOPE  H16S19647   2.186   4.651   8.902 -0.4927 -1.1742  0.4760
  173SOPE  C21719648   2.350   4.660   9.033  0.3248 -0.4909 -0.1288
  173SOPE  H17R19649   2.341   4.553   9.064 -0.4781  0.1175  1.8612
  173SOPE  H17S19650   2.376   4.714   9.126  0.0368  0.8669 -0.8119
  173SOPE  C21819651   2.472   4.675   8.942 -0.9749  0.5376 -0.5804
  173SOPE  H18R19652   2.570   4.664   8.993 -0.7725 -1.2356 -1.2754
  173SOPE  H18S19653   2.466   4.782   8.912 -0.7134  1.2321  1.6486
  173SOPE  H18T19654   2.473   4.622   8.844  1.6600  0.9191 -0.8467
  173SOPE   C3319655   2.677   4.820  10.058 -0.9966  0.4032  0.3804
  173SOPE   H3X19656   2.691   4.714  10.026 -2.6683  0.1445  0.4031
  173SOPE   H3Y19657   2.778   4.859  10.085 -1.1327  0.4511  0.8230
  173SOPE   C3419658   2.619   4.897   9.944  0.0822  0.0731  0.6095
  173SOPE   H4X19659   2.706   4.937   9.889  0.7995 -1.0039  0.9194
  173SOPE   H4Y19660   2.553   4.983   9.970  2.1785  2.4498 -1.5260
  173SOPE   C3519661   2.544   4.799   9.847  0.0202 -0.1201 -0.0054
  173SOPE   H5X19662   2.438   4.805   9.878 -0.6155 -2.8227 -1.3905
  173SOPE   H5Y19663   2.581   4.697   9.869  2.3451  1.1909  2.8784
  173SOPE   C3619664   2.558   4.831   9.693  0.0642  0.1955  0.0776
  173SOPE   H6X19665   2.665   4.822   9.666 -0.1777 -0.9232 -0.5586
  173SOPE   H6Y19666   2.540   4.939   9.672  1.5226  0.1047 -1.8328
  173SOPE   C3719667   2.476   4.750   9.590  0.3474  0.0901 -0.4885
  173SOPE   H7X19668   2.368   4.766   9.614  1.1750  1.7506  2.6161
  173SOPE   H7Y19669   2.511   4.645   9.599 -2.8963 -0.9966  1.1113
  173SOPE   C3819670   2.496   4.806   9.448  0.4686 -0.1065 -0.8726
  173SOPE   H8X19671   2.480   4.914   9.431 -1.8318 -0.5828 -2.2312
  173SOPE   H8Y19672   2.420   4.767   9.376 -1.2643 -0.8293  1.2033
  173SOPE   C3919673   2.632   4.782   9.390 -0.0678  0.1847  0.1504
  173SOPE   H9X19674   2.653   4.673   9.378 -0.1072  0.2824 -0.8807
  173SOPE   H9Y19675   2.716   4.825   9.448  2.8963 -0.8302 -3.0335
  173SOPE  C31019676   2.658   4.853   9.257 -0.0735 -1.1043  0.3258
  173SOPE  H10X19677   2.632   4.959   9.277  1.3479 -1.2384  3.2649
  173SOPE  H10Y19678   2.587   4.810   9.182 -3.3833  0.2955  2.4369
  173SOPE  C31119679   2.801   4.847   9.207  0.5948  0.2145 -0.8413
  173SOPE  H11X19680   2.838   4.742   9.208  0.1381  0.0323  1.2828
  173SOPE  H11Y19681   2.877   4.897   9.271 -0.4961  1.6050 -0.5829
  173SOPE  C31219682   2.804   4.902   9.064 -0.6496  0.1558  0.0779
  173SOPE  H12X19683   2.726   4.980   9.050  0.0598  0.8640  0.0064
  173SOPE  H12Y19684   2.768   4.818   9.002  2.4608 -1.1047 -0.2159
  173SOPE  C31319685   2.942   4.946   9.028 -0.2239  0.3339  0.0328
  173SOPE  H13X19686   3.007   4.876   9.085  0.2408  2.2054  1.9744
  173SOPE  H13Y19687   2.976   5.046   9.064 -0.2100 -0.1756  1.5327
  173SOPE  C31419688   2.971   4.921   8.879 -0.4219 -0.0054  0.0625
  173SOPE  H14X19689   2.947   4.820   8.839 -0.1650  0.1559 -0.5094
  173SOPE  H14Y19690   3.081   4.920   8.864 -0.4554  2.7466 -0.9849
  173SOPE  C31519691   2.914   5.039   8.804 -0.2791 -0.6276  0.3290
  173SOPE  H15X19692   2.952   5.137   8.841  1.1267 -1.7946  2.1279
  173SOPE  H15Y19693   2.803   5.036   8.807 -0.2608 -1.7304  0.1950
  173SOPE  C31619694   2.947   5.036   8.653 -0.1542  0.5985  0.2806
  173SOPE  H16X19695   2.924   4.932   8.619 -0.8954  0.7840  0.1808
  173SOPE  H16Y19696   3.055   5.056   8.638  0.0192  0.0385  0.7463
  173SOPE  C31719697   2.860   5.135   8.574 -0.4493  0.2320  0.3695
  173SOPE  H17X19698   2.907   5.235   8.578  0.4194 -0.1312 -0.3886
  173SOPE  H17Y19699   2.757   5.140   8.617  0.2508 -0.9697  2.3235
  173SOPE  C31819700   2.857   5.090   8.425  0.7929 -0.2709 -0.6233
  173SOPE  H18X19701   2.845   4.980   8.416  1.3691 -0.2328 -2.0124
  173SOPE  H18Y19702   2.947   5.109   8.364  0.1296 -1.1386 -1.9090
  173SOPE  H18Z19703   2.778   5.150   8.374  1.9645  1.6792 -0.2549
  174SOPE     N19704   0.733   4.692  10.867 -0.3860 -0.5806 -0.0876
  174SOPE   HN119705   0.633   4.668  10.857 -0.2493 -0.7180 -1.2971
  174SOPE   HN219706   0.790   4.614  10.830  0.7347  0.7957 -1.4152
  174SOPE   HN319707   0.762   4.720  10.963 -2.4258  0.3190  0.3023
  174SOPE   C1219708   0.756   4.807  10.772 -0.4126 -0.1584  0.2606
  174SOPE  H12A19709   0.807   4.893  10.820 -0.9151  0.6475 -0.6291
  174SOPE  H12B19710   0.657   4.833  10.730 -1.3937 -2.9143  0.6060
  174SOPE   C1119711   0.856   4.760  10.659 -0.0278 -0.1617  0.2671
  174SOPE  H11A19712   0.858   4.827  10.571  3.5380  1.1601  1.1940
  174SOPE  H11B19713   0.834   4.655  10.628  1.6449 -1.1204  2.0911
  174SOPE     P19714   1.089   4.640  10.753  0.2871 -0.2050  0.0911
  174SOPE   O1319715   1.007   4.530  10.808  0.3116 -0.1879  0.0282
  174SOPE   O1419716   1.191   4.693  10.845  0.0982 -0.2933 -0.6478
  174SOPE   O1219717   0.989   4.756  10.715  0.6352  0.2986 -0.3048
  174SOPE   O1119718   1.161   4.585  10.623  0.1678  0.3186 -0.4611
  174SOPE    C119719   1.199   4.673  10.521 -0.2220 -0.7004  0.0892
  174SOPE    HA19720   1.310   4.684  10.529 -0.1172 -1.1549 -0.6973
  174SOPE    HB19721   1.160   4.777  10.523  2.3677  0.4777 -2.7180
  174SOPE    C219722   1.176   4.607  10.381 -0.2876  0.2168 -0.1285
  174SOPE    HS19723   1.234   4.666  10.307 -0.4271  0.3068 -0.1679
  174SOPE   O2119724   1.032   4.624  10.359 -0.1615  0.0957  0.1413
  174SOPE   C2119725   0.991   4.697  10.257 -0.5455  0.1900 -0.2915
  174SOPE   O2219726   1.068   4.743  10.174  0.2997  0.7495  0.0776
  174SOPE   C2219727   0.837   4.703  10.257  0.0134 -0.0028  0.3950
  174SOPE   H2R19728   0.803   4.787  10.321 -0.5122  0.7611 -0.8513
  174SOPE   H2S19729   0.796   4.610  10.302  1.2698 -0.5373  0.4875
  174SOPE    C319730   1.220   4.455  10.376 -0.4552 -0.0148 -0.8524
  174SOPE    HX19731   1.158   4.403  10.452  0.1650  2.2973  1.3813
  174SOPE    HY19732   1.325   4.449  10.412 -0.3721  3.6946 -0.0102
  174SOPE   O3119733   1.226   4.401  10.236 -0.6669  0.3613 -0.1510
  174SOPE   C3119734   1.116   4.355  10.181 -0.7414 -0.3697  0.1881
  174SOPE   O3219735   1.004   4.357  10.229 -0.0103 -0.1888  0.1778
  174SOPE   C3219736   1.155   4.299  10.039  0.4024 -0.3721  0.4603
  174SOPE   H2X19737   1.061   4.296   9.979 -0.5809  0.0780  1.9127
  174SOPE   H2Y19738   1.179   4.192  10.052  0.6435 -0.8692 -3.0906
  174SOPE   C2319739   0.780   4.707  10.117 -0.0105  0.2644  0.2287
  174SOPE   H3R19740   0.685   4.651  10.107 -1.0617  1.8749  0.9539
  174SOPE   H3S19741   0.855   4.656  10.053  0.0564  1.5297 -0.7386
  174SOPE   C2419742   0.753   4.851  10.075 -0.0244  0.9387  0.4497
  174SOPE   H4R19743   0.698   4.900  10.159 -1.4689 -2.1431  1.4471
  174SOPE   H4S19744   0.848   4.901  10.048  0.9352 -0.7430  0.5397
  174SOPE   C2519745   0.657   4.851   9.955 -0.3401 -0.8264  0.7664
  174SOPE   H5R19746   0.562   4.802   9.985 -1.2461  1.4064  1.8046
  174SOPE   H5S19747   0.631   4.958   9.944  1.9147 -0.4404 -2.3293
  174SOPE   C2619748   0.701   4.796   9.822  0.4172  0.1570  0.6787
  174SOPE   H6R19749   0.798   4.830   9.779 -0.0077  0.7459  0.1764
  174SOPE   H6S19750   0.700   4.685   9.828 -0.4336  0.1900  1.3156
  174SOPE   C2719751   0.588   4.827   9.718 -0.6360 -0.4705 -0.0506
  174SOPE   H7R19752   0.486   4.820   9.761 -0.2070  0.3156  1.1280
  174SOPE   H7S19753   0.586   4.936   9.700  0.0408 -0.3740  0.4262
  174SOPE   C2819754   0.599   4.743   9.581  0.1064 -0.0269 -0.4430
  174SOPE   H8R19755   0.706   4.742   9.551  0.5288  0.4542  0.9621
  174SOPE   H8S19756   0.567   4.637   9.594 -2.1743  0.8960  2.6897
  174SOPE   C2919757   0.502   4.799   9.475 -0.5920 -0.6086 -1.1211
  174SOPE   H9119758   0.400   4.824   9.505 -1.1041 -0.9160 -2.5099
  174SOPE  C21019759   0.525   4.844   9.352  1.0044  0.8715  0.0679
  174SOPE  H10119760   0.447   4.893   9.292 -1.3679 -2.5927 -0.0202
  174SOPE  C21119761   0.656   4.840   9.282 -0.4738  0.1752 -0.0984
  174SOPE  H11R19762   0.744   4.855   9.347 -0.5409  0.5071 -0.0840
  174SOPE  H11S19763   0.670   4.924   9.210  1.0200 -1.9835 -2.5612
  174SOPE  C21219764   0.662   4.702   9.208 -0.1034  0.2073  0.4379
  174SOPE  H12R19765   0.563   4.677   9.163  0.2245 -0.4778  0.0832
  174SOPE  H12S19766   0.683   4.623   9.284  0.8978 -1.1457 -1.1878
  174SOPE  C21319767   0.781   4.696   9.109 -0.2308 -0.0297 -0.3420
  174SOPE  H13R19768   0.867   4.696   9.179  0.0348 -1.5963 -0.6245
  174SOPE  H13S19769   0.791   4.786   9.044 -2.8469  0.1852 -0.5473
  174SOPE  C21419770   0.766   4.565   9.030 -0.3989 -0.9983  0.0871
  174SOPE  H14R19771   0.748   4.480   9.100 -1.2438 -1.0035 -0.1223
  174SOPE  H14S19772   0.866   4.536   8.991  0.2986  0.7189  0.5380
  174SOPE  C21519773   0.665   4.575   8.918 -0.6484 -0.5073  0.2111
  174SOPE  H15R19774   0.699   4.634   8.831  0.8214 -1.6313 -0.0227
  174SOPE  H15S19775   0.566   4.604   8.959 -0.8866 -2.3904  1.0665
  174SOPE  C21619776   0.643   4.432   8.861 -0.4069  0.0359  0.4745
  174SOPE  H16R19777   0.570   4.439   8.777  0.2772  1.0896 -0.0618
  174SOPE  H16S19778   0.603   4.363   8.938  1.2059 -2.2221 -0.5959
  174SOPE  C21719779   0.776   4.364   8.807 -0.0904  0.7154  0.8168
  174SOPE  H17R19780   0.833   4.325   8.894 -0.0128  0.2287  0.5516
  174SOPE  H17S19781   0.827   4.440   8.744 -0.8116 -0.3210 -1.1259
  174SOPE  C21819782   0.753   4.252   8.708  0.6091 -0.5907 -0.5767
  174SOPE  H18R19783   0.735   4.284   8.603 -2.1154  0.7839  0.2242
  174SOPE  H18S19784   0.669   4.191   8.748 -0.3947  0.7041 -0.6581
  174SOPE  H18T19785   0.840   4.183   8.701  0.2161 -1.5751  2.6473
  174SOPE   C3319786   1.259   4.378   9.963  0.1479 -0.1077  0.3793
  174SOPE   H3X19787   1.280   4.314   9.874 -3.1369 -1.2561  0.2969
  174SOPE   H3Y19788   1.347   4.398  10.027  1.2655  0.0473 -1.1407
  174SOPE   C3419789   1.209   4.513   9.907 -0.1806 -0.3528 -0.0851
  174SOPE   H4X19790   1.289   4.562   9.848 -2.1553  2.2714 -0.7804
  174SOPE   H4Y19791   1.173   4.578   9.989 -4.1011 -1.2593 -0.8303
  174SOPE   C3519792   1.098   4.514   9.799 -0.6533 -0.3482  0.1277
  174SOPE   H5X19793   1.010   4.477   9.855 -0.6431  1.4393  1.3866
  174SOPE   H5Y19794   1.123   4.444   9.716 -3.3736  0.4495 -1.5251
  174SOPE   C3619795   1.072   4.661   9.756  0.3435  0.0008 -0.7052
  174SOPE   H6X19796   1.169   4.711   9.732  2.4574 -2.5292  1.8413
  174SOPE   H6Y19797   1.027   4.706   9.846  1.9265 -1.5069  0.9263
  174SOPE   C3719798   0.985   4.669   9.634 -0.3549  0.0636 -0.1044
  174SOPE   H7X19799   0.968   4.773   9.599  0.8709  0.0404 -0.8192
  174SOPE   H7Y19800   0.887   4.624   9.662 -1.5144  1.9885 -0.8287
  174SOPE   C3819801   1.030   4.595   9.508  0.4803  0.4956  0.3271
  174SOPE   H8X19802   0.950   4.622   9.435 -0.5794  1.3688  1.7535
  174SOPE   H8Y19803   1.022   4.485   9.524  0.5662  0.2814 -0.9352
  174SOPE   C3919804   1.175   4.629   9.462 -0.1827  0.1312  0.3163
  174SOPE   H9X19805   1.255   4.600   9.534  0.9640  0.1545 -0.9218
  174SOPE   H9Y19806   1.177   4.736   9.433  3.7528 -0.1066 -0.8780
  174SOPE  C31019807   1.219   4.545   9.333 -0.1329  0.0812  0.2431
  174SOPE  H10X19808   1.227   4.435   9.351 -2.2644 -0.1708 -0.0250
  174SOPE  H10Y19809   1.324   4.576   9.315 -0.8904  1.5988 -2.0189
  174SOPE  C31119810   1.128   4.551   9.216  0.3271  0.8988 -0.4022
  174SOPE  H11X19811   1.105   4.657   9.190 -0.7854  1.0730  1.1248
  174SOPE  H11Y19812   1.025   4.515   9.240  0.0188  2.4774  0.8118
  174SOPE  C31219813   1.182   4.481   9.091  0.2356 -0.1032 -0.1387
  174SOPE  H12X19814   1.274   4.532   9.054 -0.0131  0.4276 -0.0448
  174SOPE  H12Y19815   1.105   4.497   9.013  1.5622 -1.7466 -1.8585
  174SOPE  C31319816   1.210   4.337   9.107  0.4201 -0.0076  0.0108
  174SOPE  H13X19817   1.127   4.289   9.164  1.1385  0.5908  1.5997
  174SOPE  H13Y19818   1.278   4.317   9.192 -0.1823  0.1848  0.5454
  174SOPE  C31419819   1.253   4.253   8.985 -0.3021 -0.4835  0.5322
  174SOPE  H14X19820   1.352   4.299   8.964  0.9046 -2.9403  0.4392
  174SOPE  H14Y19821   1.192   4.261   8.892  1.7806 -3.0168 -1.2191
  174SOPE  C31519822   1.273   4.097   9.020  0.4795 -0.7315  0.0198
  174SOPE  H15X19823   1.348   4.077   9.100 -0.6239  1.6792  1.7672
  174SOPE  H15Y19824   1.325   4.065   8.927  1.1344 -0.0864  0.1587
  174SOPE  C31619825   1.149   4.009   9.056 -0.8449 -0.4567  0.0278
  174SOPE  H16X19826   1.064   4.045   8.994  0.1990  0.5177 -0.8739
  174SOPE  H16Y19827   1.126   4.036   9.161  0.3106  1.5789 -0.1992
  174SOPE  C31719828   1.176   3.857   9.044 -0.0432  0.3665  0.1117
  174SOPE  H17X19829   1.088   3.802   9.082  1.2898 -1.3438  0.8239
  174SOPE  H17Y19830   1.259   3.824   9.109 -0.0323 -1.7869 -0.9197
  174SOPE  C31819831   1.205   3.803   8.898 -0.4602 -0.6272 -0.1368
  174SOPE  H18X19832   1.305   3.840   8.867 -1.6064  2.6719 -0.2681
  174SOPE  H18Y19833   1.133   3.840   8.822 -0.5302 -1.5069 -0.5135
  174SOPE  H18Z19834   1.203   3.692   8.910 -1.1678 -0.4848  1.4078
  175SOPE     N19835   4.119   5.770  10.290  0.1989  0.3351  0.2395
  175SOPE   HN119836   4.188   5.761  10.213  0.6879 -0.0316  0.7115
  175SOPE   HN219837   4.173   5.745  10.376  3.4225 -0.8338 -1.9372
  175SOPE   HN319838   4.047   5.696  10.283  2.0682 -1.4650 -1.3839
  175SOPE   C1219839   4.047   5.903  10.285  0.0970  0.0857  0.6274
  175SOPE  H12A19840   3.977   5.891  10.370 -0.4584 -0.4352  0.1076
  175SOPE  H12B19841   3.989   5.909  10.191  1.0135  2.3869  0.1553
  175SOPE   C1119842   4.127   6.036  10.299  0.6430 -0.2922  0.4428
  175SOPE  H11A19843   4.052   6.116  10.318  1.0733  0.4481 -0.8621
  175SOPE  H11B19844   4.173   6.065  10.202 -0.8953  1.8464  0.2826
  175SOPE     P19845   4.370   6.066  10.387  0.2166  0.1208 -0.0416
  175SOPE   O1319846   4.434   5.970  10.291  0.3888 -0.1459 -0.5080
  175SOPE   O1419847   4.430   6.090  10.517  0.0180 -1.0138 -0.4719
  175SOPE   O1219848   4.220   6.034  10.408  0.1526 -0.7161 -0.2948
  175SOPE   O1119849   4.372   6.214  10.326 -0.9910  0.4770 -0.2509
  175SOPE    C119850   4.469   6.250  10.222  0.0689 -0.0300 -0.7762
  175SOPE    HA19851   4.548   6.172  10.216  1.2508  1.1648 -1.2620
  175SOPE    HB19852   4.514   6.346  10.257  0.7987 -1.1468  1.5584
  175SOPE    C219853   4.404   6.250  10.087 -0.0225 -0.2810 -0.0983
  175SOPE    HS19854   4.368   6.145  10.074  1.0219 -0.9012  1.6987
  175SOPE   O2119855   4.497   6.284   9.987  0.4649  0.5885  0.3650
  175SOPE   C2119856   4.596   6.202   9.963  0.0501  0.1596  1.0525
  175SOPE   O2219857   4.605   6.085   9.998 -0.2565 -0.8604 -0.3445
  175SOPE   C2219858   4.696   6.286   9.878 -0.5225  0.0774 -0.2902
  175SOPE   H2R19859   4.792   6.268   9.930 -1.0948 -0.0167  0.7839
  175SOPE   H2S19860   4.662   6.392   9.875  0.2455  0.3190 -0.6515
  175SOPE    C319861   4.282   6.344  10.090 -0.5146 -0.1027  0.4254
  175SOPE    HX19862   4.313   6.427  10.156  4.0462 -1.1590 -0.0281
  175SOPE    HY19863   4.196   6.294  10.139 -0.6312 -0.6024 -0.2637
  175SOPE   O3119864   4.255   6.384   9.952  0.0724 -0.6823 -0.6958
  175SOPE   C3119865   4.183   6.300   9.879  0.0054  0.6882 -0.2971
  175SOPE   O3219866   4.139   6.191   9.920 -0.3598 -0.0184  0.5031
  175SOPE   C3219867   4.162   6.355   9.734 -0.1570  0.6659 -0.4950
  175SOPE   H2X19868   4.240   6.325   9.660 -0.0323  1.5583 -0.7359
  175SOPE   H2Y19869   4.165   6.466   9.738  0.5461  0.6442 -0.2832
  175SOPE   C2319870   4.696   6.221   9.737  0.5719 -0.1889  0.0355
  175SOPE   H3R19871   4.684   6.111   9.727  2.2909 -0.2129 -3.9830
  175SOPE   H3S19872   4.795   6.242   9.691 -0.2576  0.3943 -1.5510
  175SOPE   C2419873   4.594   6.278   9.646  0.2704 -0.4994  0.1136
  175SOPE   H4R19874   4.495   6.275   9.694 -0.7312  0.7585 -1.7265
  175SOPE   H4S19875   4.612   6.382   9.612  2.0596 -1.2556 -1.4866
  175SOPE   C2519876   4.595   6.203   9.507 -0.7354 -0.2215 -0.0999
  175SOPE   H5R19877   4.693   6.215   9.455 -1.0715 -0.3953 -0.7939
  175SOPE   H5S19878   4.593   6.095   9.533  1.1837 -0.0649  0.9214
  175SOPE   C2619879   4.476   6.237   9.420  0.0431 -0.2994  0.1054
  175SOPE   H6R19880   4.388   6.194   9.472 -0.2321 -0.0662 -0.1670
  175SOPE   H6S19881   4.459   6.346   9.406 -2.8189 -0.6697  0.2658
  175SOPE   C2719882   4.484   6.169   9.278  0.0928  0.2797  0.0402
  175SOPE   H7R19883   4.572   6.211   9.225  0.7443  0.7886  1.4650
  175SOPE   H7S19884   4.503   6.059   9.282  3.0502  0.6206 -1.8204
  175SOPE   C2819885   4.355   6.167   9.199 -0.1234  0.1870 -0.1459
  175SOPE   H8R19886   4.367   6.091   9.119 -1.0670  0.2670 -0.3709
  175SOPE   H8S19887   4.274   6.133   9.266  1.9031 -1.0064  1.8365
  175SOPE   C2919888   4.330   6.309   9.150  0.4523 -0.6655  0.5252
  175SOPE   H9119889   4.408   6.383   9.174  0.6077 -0.1615 -1.3523
  175SOPE  C21019890   4.224   6.352   9.084 -0.1772 -0.1382  0.3696
  175SOPE  H10119891   4.213   6.456   9.050 -1.8322 -0.1889  0.6784
  175SOPE  C21119892   4.106   6.261   9.064 -0.1027 -0.4383 -0.6280
  175SOPE  H11R19893   4.016   6.327   9.065  1.1995  1.4379 -0.6021
  175SOPE  H11S19894   4.092   6.208   9.160 -1.3603  1.0236  0.0570
  175SOPE  C21219895   4.096   6.170   8.943 -0.1573  0.4345 -0.0699
  175SOPE  H12R19896   4.195   6.119   8.941 -0.4013 -0.0244 -0.7256
  175SOPE  H12S19897   4.080   6.236   8.854 -1.0038  0.5746  0.1820
  175SOPE  C21319898   3.980   6.071   8.953  0.3765 -0.0033 -0.1728
  175SOPE  H13R19899   3.889   6.110   8.902  0.2871 -2.3412 -1.9713
  175SOPE  H13S19900   3.955   6.052   9.060  0.8934  1.5690  0.2523
  175SOPE  C21419901   4.008   5.927   8.891  0.0808 -0.4919 -0.5575
  175SOPE  H14R19902   3.988   5.848   8.966  0.3451  0.8350  0.9748
  175SOPE  H14S19903   4.113   5.931   8.853 -0.0023  1.6775 -0.6920
  175SOPE  C21519904   3.923   5.907   8.761  0.1056 -0.3352 -0.2859
  175SOPE  H15R19905   3.971   5.975   8.686  1.0516  0.7927  1.2639
  175SOPE  H15S19906   3.819   5.943   8.771 -1.1528 -3.6887 -0.0512
  175SOPE  C21619907   3.932   5.762   8.708 -0.6078  0.0453  0.1175
  175SOPE  H16R19908   3.877   5.757   8.612 -1.1013  0.1224  0.3909
  175SOPE  H16S19909   3.883   5.692   8.779  1.0379  0.8602  2.1740
  175SOPE  C21719910   4.063   5.704   8.675 -0.0342 -0.0922  0.1224
  175SOPE  H17R19911   4.107   5.665   8.769 -1.1850 -0.8509  0.3688
  175SOPE  H17S19912   4.129   5.782   8.630  2.3091 -1.3661  1.1667
  175SOPE  C21819913   4.054   5.572   8.601  0.4430 -0.3754  0.2208
  175SOPE  H18R19914   3.999   5.492   8.655  0.2378 -1.9974 -2.2524
  175SOPE  H18S19915   4.155   5.527   8.597  2.0999  2.8659  1.4113
  175SOPE  H18T19916   4.009   5.581   8.500  1.7880 -0.3152 -0.4024
  175SOPE   C3319917   4.023   6.315   9.682  0.1119 -0.8059 -0.7045
  175SOPE   H3X19918   3.940   6.357   9.742  1.5289 -0.1484  0.8642
  175SOPE   H3Y19919   4.012   6.204   9.677  0.2623 -0.7768 -2.8531
  175SOPE   C3419920   4.010   6.360   9.531 -0.3200  0.0043 -0.3759
  175SOPE   H4X19921   4.085   6.306   9.469 -0.4691 -0.9221  0.2290
  175SOPE   H4Y19922   4.041   6.467   9.527 -0.5432  0.1516  1.2352
  175SOPE   C3519923   3.874   6.348   9.472 -0.8897  0.0505  0.2111
  175SOPE   H5X19924   3.804   6.417   9.525 -0.0961 -0.3923  1.9041
  175SOPE   H5Y19925   3.849   6.242   9.491  1.5716 -0.6743 -0.2707
  175SOPE   C3619926   3.882   6.378   9.314 -0.5885 -0.6083 -0.8489
  175SOPE   H6X19927   3.950   6.307   9.262 -1.8764 -1.9224 -0.8166
  175SOPE   H6Y19928   3.924   6.481   9.313 -0.1773 -0.6506  2.6094
  175SOPE   C3719929   3.750   6.368   9.239 -0.8267  0.3022 -0.1369
  175SOPE   H7X19930   3.686   6.454   9.268  0.1743  1.4269 -1.1742
  175SOPE   H7Y19931   3.692   6.277   9.268 -1.6019  1.1229  0.9681
  175SOPE   C3819932   3.758   6.366   9.085 -0.5794  0.2320  0.2417
  175SOPE   H8X19933   3.812   6.276   9.048 -2.8641 -1.3809  0.6761
  175SOPE   H8Y19934   3.812   6.459   9.057 -1.7691  2.2257  3.8235
  175SOPE   C3919935   3.613   6.377   9.021 -0.8249 -0.1158  0.1967
  175SOPE   H9X19936   3.552   6.453   9.074  0.7103  0.5907  1.0055
  175SOPE   H9Y19937   3.551   6.285   9.030 -0.2882 -0.5650 -0.6029
  175SOPE  C31019938   3.615   6.422   8.878 -0.3364  0.4288  0.7273
  175SOPE  H10X19939   3.682   6.509   8.864  1.9905 -1.6204 -2.2896
  175SOPE  H10Y19940   3.514   6.446   8.839  0.1007  3.2735  1.1133
  175SOPE  C31119941   3.686   6.313   8.792  0.3866  0.2193 -0.1006
  175SOPE  H11X19942   3.636   6.217   8.815 -1.5195  0.3265 -3.2827
  175SOPE  H11Y19943   3.791   6.302   8.829 -0.4956 -1.5164  2.1332
  175SOPE  C31219944   3.687   6.342   8.641 -0.2616 -0.3456 -0.2204
  175SOPE  H12X19945   3.718   6.447   8.623  0.0673 -0.1869  1.1431
  175SOPE  H12Y19946   3.584   6.333   8.600 -0.0510 -2.6055 -0.3708
  175SOPE  C31319947   3.778   6.253   8.554  0.1552 -0.8083 -0.7853
  175SOPE  H13X19948   3.874   6.225   8.601 -0.2854 -2.3664 -0.7517
  175SOPE  H13Y19949   3.795   6.300   8.454  1.4202  1.1974  0.3027
  175SOPE  C31419950   3.707   6.126   8.511 -0.1644  0.1127  0.1567
  175SOPE  H14X19951   3.613   6.159   8.462  0.9655  5.3183  0.9318
  175SOPE  H14Y19952   3.670   6.062   8.595  0.4344 -3.0605 -1.8154
  175SOPE  C31519953   3.806   6.045   8.422  0.1614 -0.2064  0.3124
  175SOPE  H15X19954   3.910   6.039   8.461 -0.3779 -1.3164  1.6260
  175SOPE  H15Y19955   3.814   6.095   8.323 -0.3083 -1.8189 -0.5604
  175SOPE  C31619956   3.753   5.905   8.385  0.2582 -0.0955 -0.8290
  175SOPE  H16X19957   3.664   5.915   8.319 -1.4640 -0.5164  1.2924
  175SOPE  H16Y19958   3.715   5.862   8.480  2.1578 -1.8223 -0.7933
  175SOPE  C31719959   3.865   5.813   8.333 -0.5033  0.7582  0.5738
  175SOPE  H17X19960   3.955   5.836   8.393  0.2623 -3.0380  1.1660
  175SOPE  H17Y19961   3.885   5.840   8.227  0.4604  0.6069  0.7081
  175SOPE  C31819962   3.817   5.668   8.332  0.2710  0.1104 -0.2139
  175SOPE  H18X19963   3.896   5.596   8.299  0.5869  1.2370 -2.0737
  175SOPE  H18Y19964   3.727   5.653   8.269 -2.3144  1.6033  2.8957
  175SOPE  H18Z19965   3.773   5.646   8.431  0.1944 -0.6156 -0.3991
  176SOPE     N19966   4.138   5.093  11.006  0.0418 -0.7714  0.0326
  176SOPE   HN119967   4.147   5.007  11.064 -2.5924 -1.0060  0.2124
  176SOPE   HN219968   4.192   5.172  11.048 -0.7526  0.8344 -1.8611
  176SOPE   HN319969   4.037   5.114  11.016 -0.1495 -0.8825 -1.5054
  176SOPE   C1219970   4.176   5.045  10.875 -0.6768 -0.3459  0.2533
  176SOPE  H12A19971   4.192   5.129  10.804  3.4506 -1.3477 -0.2443
  176SOPE  H12B19972   4.096   4.978  10.837 -0.5929 -0.6523  0.6101
  176SOPE   C1119973   4.291   4.942  10.883  0.6517  0.9986 -0.4350
  176SOPE  H11A19974   4.368   4.974  10.956 -0.0915  0.9065  0.4049
  176SOPE  H11B19975   4.333   4.920  10.782  1.2699 -1.6385  0.3242
  176SOPE     P19976   4.326   4.694  10.938 -0.1193 -0.2629 -0.2949
  176SOPE   O1319977   4.250   4.592  11.007 -0.0557 -0.1490 -0.1607
  176SOPE   O1419978   4.462   4.721  10.999 -0.0042  0.2638  0.1033
  176SOPE   O1219979   4.233   4.821  10.933  0.0980  0.1414 -0.0904
  176SOPE   O1119980   4.345   4.648  10.789  0.2443 -0.1177 -0.2060
  176SOPE    C119981   4.229   4.641  10.699  0.0558  0.0317 -0.2134
  176SOPE    HA19982   4.259   4.685  10.602  0.9571 -0.9583 -0.4083
  176SOPE    HB19983   4.138   4.691  10.739 -0.2981 -3.0839  3.5403
  176SOPE    C219984   4.191   4.497  10.663 -0.2764  0.2282 -0.1545
  176SOPE    HS19985   4.168   4.442  10.756  3.7348 -2.1515 -0.3387
  176SOPE   O2119986   4.298   4.432  10.606 -0.0602 -0.6620  0.3808
  176SOPE   C2119987   4.294   4.296  10.608  0.1989 -0.8324 -0.0518
  176SOPE   O2219988   4.215   4.225  10.666  0.5280  0.2928 -0.1389
  176SOPE   C2219989   4.402   4.234  10.519  0.0736 -0.4711  0.7258
  176SOPE   H2R19990   4.393   4.124  10.518 -2.3265 -0.3293  0.0365
  176SOPE   H2S19991   4.500   4.260  10.564 -0.0514  0.6588  0.3988
  176SOPE    C319992   4.072   4.500  10.566  0.2792  0.0199 -0.8856
  176SOPE    HX19993   4.089   4.559  10.473  0.4159  2.4401  0.6001
  176SOPE    HY19994   3.985   4.549  10.616 -0.5160 -3.2674  1.2391
  176SOPE   O3119995   4.030   4.368  10.523  0.2462  0.1165 -0.8970
  176SOPE   C3119996   3.926   4.308  10.580  0.2924  0.5868  0.3889
  176SOPE   O3219997   3.863   4.344  10.677  0.3360 -0.0681  0.0305
  176SOPE   C3219998   3.898   4.180  10.496  0.6196 -0.2968  0.0804
  176SOPE   H2X19999   3.996   4.131  10.481  0.6585  0.3815 -2.2462
  176SOPE   H2Y20000   3.860   4.228  10.403  0.5830  0.6477  0.5727
  176SOPE   C2320001   4.390   4.282  10.373 -0.5853  0.2087  0.2219
  176SOPE   H3R20002   4.481   4.265  10.312 -0.3444 -2.5128  1.2222
  176SOPE   H3S20003   4.397   4.393  10.371  4.3302  0.1169  1.0803
  176SOPE   C2420004   4.268   4.222  10.302  0.4300  0.1456  0.2077
  176SOPE   H4R20005   4.288   4.113  10.303 -2.2924 -0.4245  0.3762
  176SOPE   H4S20006   4.176   4.240  10.362  1.1803  0.6327  1.2317
  176SOPE   C2520007   4.255   4.247  10.153  0.3206 -0.7007 -0.0274
  176SOPE   H5R20008   4.217   4.351  10.139 -0.3685 -0.9666 -0.1868
  176SOPE   H5S20009   4.360   4.235  10.119  1.2276  2.2175  1.3636
  176SOPE   C2620010   4.158   4.158  10.086  0.4939 -0.1147  0.0965
  176SOPE   H6R20011   4.183   4.051  10.102 -1.4657 -0.4829  1.0388
  176SOPE   H6S20012   4.057   4.158  10.134 -0.1673 -0.1039 -1.2520
  176SOPE   C2720013   4.139   4.208   9.941 -0.5024  0.3517  0.1287
  176SOPE   H7R20014   4.111   4.315   9.935  1.9048  1.0018 -0.7678
  176SOPE   H7S20015   4.227   4.202   9.874  0.0307 -0.7844  0.8817
  176SOPE   C2820016   4.026   4.132   9.870  0.5452  0.2644 -0.6020
  176SOPE   H8R20017   4.070   4.038   9.831  0.1872  0.1246 -0.6636
  176SOPE   H8S20018   3.952   4.099   9.946  1.8981  2.3969  1.8344
  176SOPE   C2920019   3.955   4.195   9.760  0.4987 -0.1750  0.3707
  176SOPE   H9120020   3.877   4.269   9.781  1.8326  2.1589 -2.1448
  176SOPE  C21020021   3.990   4.168   9.631  0.4122 -0.8148 -0.0192
  176SOPE  H10120022   3.940   4.240   9.565  0.3984 -0.6251  0.1984
  176SOPE  C21120023   4.098   4.084   9.574  0.0033 -0.0231  0.4103
  176SOPE  H11R20024   4.142   4.020   9.653  1.0616 -0.7176 -0.6991
  176SOPE  H11S20025   4.165   4.149   9.514  0.6335 -2.1100 -1.2781
  176SOPE  C21220026   4.051   3.981   9.469  0.2203 -0.4541 -0.5153
  176SOPE  H12R20027   3.956   3.932   9.498  0.6920 -1.1831 -0.1640
  176SOPE  H12S20028   4.133   3.907   9.459  1.2837  0.9687 -3.0723
  176SOPE  C21320029   4.032   4.042   9.335 -0.7750  0.6029  0.5160
  176SOPE  H13R20030   4.130   4.088   9.310 -0.1250 -1.9436 -2.2727
  176SOPE  H13S20031   3.958   4.125   9.336 -1.6962 -0.1874  0.0659
  176SOPE  C21420032   4.015   3.942   9.227 -0.5496 -0.0055 -0.1609
  176SOPE  H14R20033   4.074   3.848   9.234  0.9825  1.0319  1.7755
  176SOPE  H14S20034   4.041   3.998   9.134 -0.9950 -0.1273 -0.3630
  176SOPE  C21520035   3.864   3.899   9.217  0.0195  0.0552  0.7090
  176SOPE  H15R20036   3.793   3.983   9.231  1.7054  1.5392  0.6706
  176SOPE  H15S20037   3.847   3.821   9.294  2.8914 -2.0133 -0.5497
  176SOPE  C21620038   3.841   3.831   9.076 -0.1260  0.0266 -0.5483
  176SOPE  H16R20039   3.740   3.784   9.078  1.3767 -3.5560  1.4870
  176SOPE  H16S20040   3.910   3.746   9.057  1.2786  1.2693 -1.1213
  176SOPE  C21720041   3.854   3.926   8.958  0.3843 -0.1500 -0.0497
  176SOPE  H17R20042   3.964   3.936   8.948  0.3251 -0.9080 -1.7912
  176SOPE  H17S20043   3.805   4.020   8.992 -0.0526 -0.4232  0.0911
  176SOPE  C21820044   3.785   3.867   8.835 -0.4392  0.1321 -0.1953
  176SOPE  H18R20045   3.678   3.848   8.853 -0.8683  2.1258 -0.3473
  176SOPE  H18S20046   3.832   3.769   8.813  0.3128  0.3974  0.1547
  176SOPE  H18T20047   3.797   3.940   8.752  1.1937 -0.7552 -0.7852
  176SOPE   C3320048   3.796   4.082  10.549 -0.1957  0.3539 -0.5616
  176SOPE   H3X20049   3.696   4.128  10.557 -0.1795  0.7321 -2.1568
  176SOPE   H3Y20050   3.830   4.048  10.649 -0.8045 -2.2103 -1.1588
  176SOPE   C3420051   3.787   3.954  10.460 -0.4949 -0.1146 -0.4455
  176SOPE   H4X20052   3.730   3.877  10.516 -1.4671  0.3570 -0.7618
  176SOPE   H4Y20053   3.891   3.917  10.457 -0.5425 -0.3874  0.7753
  176SOPE   C3520054   3.723   3.967  10.322  0.2377  0.2182 -0.0357
  176SOPE   H5X20055   3.795   4.030  10.265  2.2227 -1.8545  0.0241
  176SOPE   H5Y20056   3.629   4.025  10.333  1.0956  1.4146  1.3656
  176SOPE   C3620057   3.692   3.829  10.254  0.2106  1.7709 -0.1961
  176SOPE   H6X20058   3.608   3.779  10.307 -0.9723  1.3991 -2.2658
  176SOPE   H6Y20059   3.779   3.761  10.256 -0.5750  0.7237 -0.5914
  176SOPE   C3720060   3.651   3.843  10.109  0.2072 -0.4049  0.6777
  176SOPE   H7X20061   3.577   3.925  10.093  3.1975  2.3437 -0.0473
  176SOPE   H7Y20062   3.609   3.749  10.068  1.9307 -0.9380  0.0873
  176SOPE   C3820063   3.773   3.879  10.013  0.7779 -0.4189  0.4964
  176SOPE   H8X20064   3.859   3.820  10.052  0.5831 -0.7000  0.5008
  176SOPE   H8Y20065   3.795   3.987  10.027 -0.4040 -0.1360  0.2834
  176SOPE   C3920066   3.744   3.856   9.865 -0.2911  0.2489 -0.4859
  176SOPE   H9X20067   3.720   3.748   9.856 -1.6411  0.4892  0.0565
  176SOPE   H9Y20068   3.832   3.878   9.801  0.8637 -2.2678  0.1343
  176SOPE  C31020069   3.622   3.942   9.819 -0.1429 -0.6417 -0.5227
  176SOPE  H10X20070   3.617   4.039   9.872 -0.0657 -0.4548 -0.8573
  176SOPE  H10Y20071   3.524   3.892   9.834  0.1726 -1.3177 -0.6738
  176SOPE  C31120072   3.628   3.977   9.672  0.2540 -0.5023  0.0956
  176SOPE  H11X20073   3.729   4.018   9.651  0.2393 -0.5075  0.0138
  176SOPE  H11Y20074   3.567   4.067   9.653 -0.5815 -0.6498  1.8250
  176SOPE  C31220075   3.596   3.860   9.584  0.2594  0.2442 -0.4261
  176SOPE  H12X20076   3.662   3.771   9.592 -0.2451 -0.0727  0.2623
  176SOPE  H12Y20077   3.613   3.902   9.482 -0.2185  3.0669  0.5525
  176SOPE  C31320078   3.452   3.811   9.593  0.0163 -0.7832 -0.3693
  176SOPE  H13X20079   3.405   3.908   9.617  3.0263  0.3804  1.3861
  176SOPE  H13Y20080   3.444   3.751   9.686  0.7932  1.4188  1.1974
  176SOPE  C31420081   3.393   3.724   9.478 -0.9250  0.5507 -0.2910
  176SOPE  H14X20082   3.299   3.679   9.516 -1.3029  2.4523  1.1895
  176SOPE  H14Y20083   3.459   3.639   9.450  0.0571  0.9195  0.7903
  176SOPE  C31520084   3.369   3.803   9.344  0.6276 -0.6571 -0.5108
  176SOPE  H15X20085   3.431   3.895   9.342  0.6721 -0.6928 -0.8116
  176SOPE  H15Y20086   3.259   3.820   9.339  0.4294 -1.7261 -0.1800
  176SOPE  C31620087   3.400   3.713   9.222 -0.5962  0.4467  0.6157
  176SOPE  H16X20088   3.505   3.676   9.220 -0.4426  0.9173 -0.3429
  176SOPE  H16Y20089   3.382   3.771   9.130 -1.4662  1.6467  1.5075
  176SOPE  C31720090   3.312   3.587   9.221  0.2192  0.3281 -0.7753
  176SOPE  H17X20091   3.204   3.609   9.236  0.0105  0.4590 -2.2613
  176SOPE  H17Y20092   3.345   3.514   9.297  0.9649  0.4766 -0.9514
  176SOPE  C31820093   3.323   3.504   9.089 -0.1032  0.1948  0.2588
  176SOPE  H18X20094   3.430   3.496   9.060  0.5880  0.5709  2.4995
  176SOPE  H18Y20095   3.270   3.554   9.005  2.1572 -0.2686 -1.5390
  176SOPE  H18Z20096   3.287   3.401   9.111  0.7355 -0.7967 -2.6076
  177SOPE     N20097   2.945   2.972  10.898 -0.3997 -0.6793 -0.0343
  177SOPE   HN120098   2.913   2.994  10.802  0.3290  0.7368  0.0215
  177SOPE   HN220099   3.039   3.016  10.908  0.0767 -1.4532 -0.9557
  177SOPE   HN320100   2.964   2.871  10.889  0.5095 -0.5051 -0.1737
  177SOPE   C1220101   2.845   3.005  10.999  0.4671 -0.4773  0.1021
  177SOPE  H12A20102   2.847   3.114  11.017  4.0220 -0.2088 -1.0835
  177SOPE  H12B20103   2.873   2.955  11.094  1.6277  1.6492  0.9383
  177SOPE   C1120104   2.712   2.942  10.948  0.6359  0.2731  0.3534
  177SOPE  H11A20105   2.677   2.998  10.859  1.6215  0.5799  0.1412
  177SOPE  H11B20106   2.638   2.964  11.028  1.6955  1.0503  1.1558
  177SOPE     P20107   2.668   2.685  10.992  0.0292  0.2295 -0.1452
  177SOPE   O1320108   2.575   2.728  11.103  0.4602 -0.3675  0.0935
  177SOPE   O1420109   2.758   2.580  11.033 -0.3068  0.2557 -0.1087
  177SOPE   O1220110   2.732   2.807  10.917 -0.5018  0.4538  0.8143
  177SOPE   O1120111   2.574   2.629  10.879  0.2779 -0.1153  0.8263
  177SOPE    C120112   2.596   2.511  10.796  0.9996  0.4095 -0.0308
  177SOPE    HA20113   2.499   2.471  10.759  1.0191 -0.5695  0.9392
  177SOPE    HB20114   2.629   2.422  10.854 -1.6427 -1.4082 -1.1053
  177SOPE    C220115   2.690   2.539  10.674  0.1278 -0.2737  0.8089
  177SOPE    HS20116   2.789   2.561  10.719 -1.0800 -1.5227  4.3648
  177SOPE   O2120117   2.622   2.637  10.588  0.4467 -0.3975  0.1817
  177SOPE   C2120118   2.709   2.709  10.519 -0.8374 -0.3001  0.6084
  177SOPE   O2220119   2.832   2.701  10.534 -0.4534  0.1741  0.3423
  177SOPE   C2220120   2.644   2.796  10.413 -0.1182  0.0222 -1.1562
  177SOPE   H2R20121   2.719   2.863  10.365  0.7819  0.0913  0.2668
  177SOPE   H2S20122   2.582   2.865  10.474  0.1337 -0.9845  0.2993
  177SOPE    C320123   2.724   2.414  10.595  0.0380 -0.1236  0.0354
  177SOPE    HX20124   2.762   2.336  10.665 -0.1536  0.1736  0.4742
  177SOPE    HY20125   2.802   2.438  10.521  1.2201 -1.1339  0.9120
  177SOPE   O3120126   2.597   2.370  10.528  0.5841 -0.2422 -0.3833
  177SOPE   C3120127   2.605   2.345  10.397  0.0923 -0.0789  0.3472
  177SOPE   O3220128   2.707   2.323  10.335 -0.6917 -0.3822 -0.0540
  177SOPE   C3220129   2.466   2.366  10.337  0.1660  0.1867  0.2575
  177SOPE   H2X20130   2.441   2.470  10.367  2.7492  1.0211 -0.2205
  177SOPE   H2Y20131   2.397   2.292  10.382  1.5054 -0.7706  0.8073
  177SOPE   C2320132   2.564   2.722  10.309  0.0352  0.5697 -0.1479
  177SOPE   H3R20133   2.468   2.682  10.349  0.1481  0.7981  0.3639
  177SOPE   H3S20134   2.624   2.632  10.283  0.9388  0.9096  0.6919
  177SOPE   C2420135   2.536   2.801  10.182 -0.5499 -0.1986  0.4942
  177SOPE   H4R20136   2.466   2.880  10.215  0.9312  1.4834 -0.2336
  177SOPE   H4S20137   2.627   2.856  10.151  0.4628 -0.7608  2.3524
  177SOPE   C2520138   2.479   2.726  10.066 -0.1067  0.8962 -0.4448
  177SOPE   H5R20139   2.544   2.638  10.046 -0.8265  0.5934 -1.4826
  177SOPE   H5S20140   2.376   2.686  10.073  0.1710 -0.3098 -2.4753
  177SOPE   C2620141   2.492   2.809   9.936  0.2023  0.4058  0.7165
  177SOPE   H6R20142   2.591   2.824   9.888 -1.5752  1.1533 -3.0925
  177SOPE   H6S20143   2.443   2.742   9.862 -0.5168 -0.5529  2.0242
  177SOPE   C2720144   2.426   2.950   9.936 -0.1197  0.2928  0.4028
  177SOPE   H7R20145   2.320   2.935   9.966 -0.2771  0.2929 -0.1413
  177SOPE   H7S20146   2.488   3.011  10.005 -0.2458 -0.1293  0.8870
  177SOPE   C2820147   2.424   3.003   9.795  0.5993 -0.8662 -0.0750
  177SOPE   H8R20148   2.404   3.112   9.801 -0.0366 -0.9321 -0.8634
  177SOPE   H8S20149   2.530   3.007   9.760  1.0729 -1.5978  1.2153
  177SOPE   C2920150   2.324   2.935   9.709  0.2251  0.5057  0.4950
  177SOPE   H9120151   2.246   2.879   9.762  2.0337 -4.3298 -1.3560
  177SOPE  C21020152   2.337   2.914   9.576 -0.4613 -0.7052 -0.2309
  177SOPE  H10120153   2.252   2.859   9.533 -0.7385 -2.3159  2.1466
  177SOPE  C21120154   2.445   2.968   9.486  0.2948 -0.7256  0.9054
  177SOPE  H11R20155   2.463   2.917   9.389 -0.1451  4.2583 -2.1672
  177SOPE  H11S20156   2.544   2.981   9.534  0.0667  2.5218  0.7409
  177SOPE  C21220157   2.405   3.107   9.437  0.8774 -0.1740  0.4387
  177SOPE  H12R20158   2.434   3.179   9.516 -2.8570  1.8520  0.1866
  177SOPE  H12S20159   2.298   3.132   9.421  0.7550 -0.9963 -0.1161
  177SOPE  C21320160   2.484   3.142   9.301  0.0288  0.3901  0.2563
  177SOPE  H13R20161   2.579   3.085   9.309 -0.6082 -0.5624  1.5475
  177SOPE  H13S20162   2.513   3.249   9.295  1.5640  0.0752  1.3568
  177SOPE  C21420163   2.406   3.089   9.182 -0.0682 -0.0555  0.9944
  177SOPE  H14R20164   2.306   3.136   9.174  0.4176  1.1233  1.6148
  177SOPE  H14S20165   2.398   2.980   9.204 -1.4910  0.0755  1.1637
  177SOPE  C21520166   2.480   3.114   9.054 -0.3099  0.0476 -0.2533
  177SOPE  H15R20167   2.422   3.073   8.969  1.5530  1.9099 -2.5362
  177SOPE  H15S20168   2.572   3.054   9.067 -0.4468 -0.8367 -2.9180
  177SOPE  C21620169   2.514   3.262   9.025 -0.1655 -0.6335  0.2371
  177SOPE  H16R20170   2.620   3.279   9.053 -0.4333  0.1557  0.8168
  177SOPE  H16S20171   2.460   3.327   9.097 -0.6607  2.1492 -2.4444
  177SOPE  C21720172   2.486   3.310   8.878 -0.0692  0.1924 -0.1088
  177SOPE  H17R20173   2.509   3.418   8.881 -3.3597  0.9651  0.9632
  177SOPE  H17S20174   2.376   3.299   8.867 -0.4769  0.5765  2.8054
  177SOPE  C21820175   2.570   3.254   8.759 -0.0504 -0.2542  0.0994
  177SOPE  H18R20176   2.679   3.262   8.780 -0.1374  0.0723  0.4303
  177SOPE  H18S20177   2.544   3.291   8.658 -2.7048 -1.4938  0.2305
  177SOPE  H18T20178   2.550   3.145   8.748 -1.7348  0.2557 -2.8008
  177SOPE   C3320179   2.469   2.365  10.180 -0.2239  0.1367  0.1317
  177SOPE   H3X20180   2.520   2.272  10.145  1.1639  0.7051  0.5964
  177SOPE   H3Y20181   2.538   2.442  10.140 -0.9766  0.2649 -1.0046
  177SOPE   C3420182   2.324   2.367  10.115 -0.0914  0.1440 -0.4274
  177SOPE   H4X20183   2.298   2.475  10.115  0.1876  0.2904  2.5645
  177SOPE   H4Y20184   2.252   2.315  10.181  0.0168  0.1579 -0.2967
  177SOPE   C3520185   2.319   2.305   9.978 -0.4123  0.1573 -0.4048
  177SOPE   H5X20186   2.213   2.299   9.944 -0.3414  1.4916 -0.9273
  177SOPE   H5Y20187   2.350   2.198   9.977  2.1719  0.8447 -0.3409
  177SOPE   C3620188   2.404   2.382   9.874 -0.0017 -0.4288 -0.8350
  177SOPE   H6X20189   2.489   2.312   9.859 -2.3064 -3.3391 -1.1726
  177SOPE   H6Y20190   2.449   2.479   9.905  0.2554  0.2387 -3.1283
  177SOPE   C3720191   2.331   2.420   9.749  0.8803  0.3192 -0.2829
  177SOPE   H7X20192   2.256   2.498   9.774 -0.3034 -0.7216 -0.4955
  177SOPE   H7Y20193   2.268   2.339   9.708 -0.6408  1.3816 -0.1408
  177SOPE   C3820194   2.439   2.474   9.650  0.3760  0.6463 -0.2040
  177SOPE   H8X20195   2.507   2.390   9.623  1.5773  1.2989  0.7017
  177SOPE   H8Y20196   2.503   2.551   9.698  1.7712 -0.9593  0.6529
  177SOPE   C3920197   2.372   2.518   9.524  0.7466 -0.1884 -0.4612
  177SOPE   H9X20198   2.321   2.612   9.553  1.8642 -0.1077  1.4116
  177SOPE   H9Y20199   2.289   2.451   9.494  2.1410 -1.6681 -1.1540
  177SOPE  C31020200   2.459   2.546   9.402 -0.0256  0.5669 -0.1369
  177SOPE  H10X20201   2.556   2.498   9.425 -1.2360 -1.5281  0.8465
  177SOPE  H10Y20202   2.485   2.654   9.393 -0.0251  0.5716 -0.0822
  177SOPE  C31120203   2.394   2.502   9.269 -0.3236 -0.4676 -1.7568
  177SOPE  H11X20204   2.284   2.504   9.284  0.0430 -1.7481  2.5855
  177SOPE  H11Y20205   2.431   2.400   9.247  0.8512 -0.6351  0.7164
  177SOPE  C31220206   2.414   2.596   9.146 -0.4974 -0.8403 -0.5024
  177SOPE  H12X20207   2.356   2.688   9.165  0.6441 -0.3856  1.0190
  177SOPE  H12Y20208   2.364   2.543   9.062 -0.4410  1.6355 -2.2114
  177SOPE  C31320209   2.557   2.628   9.112  0.0473 -0.1873 -0.0257
  177SOPE  H13X20210   2.618   2.546   9.155 -1.5668 -1.6498 -0.4215
  177SOPE  H13Y20211   2.577   2.721   9.170  2.0395 -0.6878  0.1463
  177SOPE  C31420212   2.590   2.648   8.965 -0.1592 -0.1773 -0.4423
  177SOPE  H14X20213   2.552   2.749   8.938 -1.5099 -0.0898  1.5709
  177SOPE  H14Y20214   2.535   2.571   8.907 -1.2856  1.0945 -1.1363
  177SOPE  C31520215   2.740   2.670   8.929  0.1337  0.3402 -0.9775
  177SOPE  H15X20216   2.793   2.572   8.936 -0.5373  0.0766  1.3838
  177SOPE  H15Y20217   2.771   2.743   9.006 -1.8139 -0.2609  0.4668
  177SOPE  C31620218   2.765   2.718   8.784 -0.0443  0.0610 -0.9279
  177SOPE  H16X20219   2.699   2.803   8.757 -2.8623 -0.9489  2.0421
  177SOPE  H16Y20220   2.730   2.642   8.711 -2.5162  0.0364  0.1552
  177SOPE  C31720221   2.919   2.754   8.775  0.0869 -0.3564 -0.4516
  177SOPE  H17X20222   2.964   2.656   8.804 -1.8171 -0.6695  1.7974
  177SOPE  H17Y20223   2.954   2.820   8.858 -0.5434 -0.4625 -0.0911
  177SOPE  C31820224   2.966   2.797   8.644  0.3346 -0.7437 -0.2416
  177SOPE  H18X20225   3.076   2.810   8.652  0.0831  1.3269  0.3892
  177SOPE  H18Y20226   2.918   2.893   8.616  1.4028  0.1275  0.8445
  177SOPE  H18Z20227   2.952   2.731   8.555  0.2019 -0.2133 -0.6175
  178SOPE     N20228   0.168   1.677  10.862 -1.0387 -0.0911 -0.4304
  178SOPE   HN120229   0.107   1.670  10.778 -0.2389  0.1311 -1.0388
  178SOPE   HN220230   0.162   1.577  10.892  0.3155  0.4759  2.0151
  178SOPE   HN320231   0.126   1.729  10.942 -1.0201 -1.4213  0.4800
  178SOPE   C1220232   0.297   1.735  10.828  0.0439  0.2682  0.7720
  178SOPE  H12A20233   0.279   1.841  10.800 -2.6886 -0.0647  0.9886
  178SOPE  H12B20234   0.329   1.685  10.733 -1.4045 -2.0231  1.4162
  178SOPE   C1120235   0.394   1.738  10.949  0.3850  0.9193  0.1594
  178SOPE  H11A20236   0.364   1.807  11.030 -0.0067  0.0216  0.7945
  178SOPE  H11B20237   0.489   1.791  10.927  2.1930 -1.4136  1.7712
  178SOPE     P20238   0.488   1.484  10.943 -0.2752 -0.3152 -0.3139
  178SOPE   O1320239   0.404   1.365  10.933  0.4714  0.4194 -0.5141
  178SOPE   O1420240   0.618   1.462  11.020  0.3482  0.0539 -0.1055
  178SOPE   O1220241   0.416   1.611  11.000  0.3194  0.0441 -0.2170
  178SOPE   O1120242   0.520   1.516  10.796  0.2356 -0.2787 -0.1528
  178SOPE    C120243   0.639   1.585  10.748 -0.3038  0.2811 -0.3104
  178SOPE    HA20244   0.729   1.525  10.775 -0.4586  0.7621  1.3595
  178SOPE    HB20245   0.660   1.680  10.803  0.8101 -0.5841  0.8236
  178SOPE    C220246   0.632   1.613  10.596 -0.5146 -0.1504  0.5410
  178SOPE    HS20247   0.732   1.647  10.564 -1.3351  2.8140  0.8168
  178SOPE   O2120248   0.545   1.723  10.574  0.1369 -0.4044 -0.4803
  178SOPE   C2120249   0.588   1.798  10.472  0.6118  0.0955 -0.1193
  178SOPE   O2220250   0.686   1.786  10.405 -0.0348  0.0122  0.2910
  178SOPE   C2220251   0.484   1.915  10.454  0.6729 -0.2715  0.0786
  178SOPE   H2R20252   0.473   1.959  10.556  0.5872  4.3347 -1.6508
  178SOPE   H2S20253   0.386   1.867  10.435  1.1325 -0.8702 -0.8006
  178SOPE    C320254   0.585   1.494  10.515 -0.2219 -0.5924  0.1906
  178SOPE    HX20255   0.481   1.491  10.554 -0.4124  1.6486 -0.0659
  178SOPE    HY20256   0.640   1.400  10.540 -2.8418 -2.1537  0.4711
  178SOPE   O3120257   0.588   1.511  10.372  0.0408  0.1564  0.0651
  178SOPE   C3120258   0.713   1.503  10.314 -0.0629  0.3453 -0.1717
  178SOPE   O3220259   0.814   1.481  10.376 -0.2733 -0.3012  0.5551
  178SOPE   C3220260   0.705   1.538  10.167 -0.1265 -0.5063 -0.3774
  178SOPE   H2X20261   0.805   1.578  10.139  0.0644  0.0121  0.9564
  178SOPE   H2Y20262   0.631   1.621  10.161  1.3925  1.2269  2.6095
  178SOPE   C2320263   0.521   2.032  10.355 -0.2713  0.0441  0.0266
  178SOPE   H3R20264   0.621   2.070  10.384  0.0989  0.2297 -1.4060
  178SOPE   H3S20265   0.444   2.111  10.368 -0.7141 -0.1435 -1.3365
  178SOPE   C2420266   0.515   1.971  10.213  0.0082  0.3370 -0.6496
  178SOPE   H4R20267   0.600   1.899  10.209  1.5138  1.9467  0.7225
  178SOPE   H4S20268   0.419   1.914  10.218 -0.1813  0.7568  1.6038
  178SOPE   C2520269   0.522   2.058  10.092 -0.1226  0.4873 -0.4166
  178SOPE   H5R20270   0.517   1.998   9.998  0.8637  1.2835 -0.9985
  178SOPE   H5S20271   0.428   2.118  10.082 -0.3728  0.2432  0.4394
  178SOPE   C2620272   0.635   2.161  10.091  0.0973  1.1495  0.4175
  178SOPE   H6R20273   0.620   2.227  10.003  1.6040 -0.0174 -0.7593
  178SOPE   H6S20274   0.671   2.217  10.180  0.7494  0.9903  0.2588
  178SOPE   C2720275   0.770   2.090  10.056  0.0648  0.3252 -0.0566
  178SOPE   H7R20276   0.859   2.152  10.078  0.0250 -0.3715  2.4109
  178SOPE   H7S20277   0.771   2.003  10.126 -2.6425  0.3483  0.1284
  178SOPE   C2820278   0.791   2.031   9.917  0.2494 -0.6511 -0.6327
  178SOPE   H8R20279   0.877   1.961   9.922  0.2206 -0.6220  2.0610
  178SOPE   H8S20280   0.706   1.962   9.899  1.5801 -2.4777 -0.1592
  178SOPE   C2920281   0.804   2.134   9.815 -0.4679  0.1149  0.7182
  178SOPE   H9120282   0.888   2.204   9.829  1.1717 -0.1159 -5.1507
  178SOPE  C21020283   0.727   2.156   9.705 -0.1725 -0.2278  0.9440
  178SOPE  H10120284   0.746   2.245   9.642 -1.4878  0.7384  1.8574
  178SOPE  C21120285   0.611   2.072   9.663 -0.5849  0.5683 -0.5594
  178SOPE  H11R20286   0.512   2.116   9.686 -1.2309  0.0923 -2.3104
  178SOPE  H11S20287   0.616   1.972   9.712 -1.9425  1.2437  1.0597
  178SOPE  C21220288   0.606   2.045   9.510  0.1686 -0.3282  0.0987
  178SOPE  H12R20289   0.524   1.973   9.491  0.1154 -0.4403  0.7517
  178SOPE  H12S20290   0.703   2.000   9.480  0.1959  0.6377 -1.3966
  178SOPE  C21320291   0.583   2.162   9.407  0.6057  0.3192 -0.0672
  178SOPE  H13R20292   0.674   2.226   9.402 -0.2878  1.5691 -1.6001
  178SOPE  H13S20293   0.506   2.233   9.444  0.5654  1.6604 -2.4950
  178SOPE  C21420294   0.547   2.124   9.262  0.2299  0.4763  0.7203
  178SOPE  H14R20295   0.523   2.223   9.219 -1.8427  0.6214  2.0799
  178SOPE  H14S20296   0.450   2.070   9.258  0.4021  0.1758  0.5946
  178SOPE  C21520297   0.669   2.061   9.196  0.7129  0.4135 -0.4966
  178SOPE  H15R20298   0.632   2.001   9.111 -3.2843  2.7682 -0.6569
  178SOPE  H15S20299   0.726   1.993   9.263  0.2269 -0.6068 -1.1051
  178SOPE  C21620300   0.773   2.167   9.152  0.2579 -0.3395 -0.0417
  178SOPE  H16R20301   0.816   2.216   9.242  0.2180  0.5993 -0.5131
  178SOPE  H16S20302   0.717   2.248   9.100  0.3789 -0.8977 -1.0799
  178SOPE  C21720303   0.888   2.114   9.068  0.0132 -0.0429 -0.6542
  178SOPE  H17R20304   0.865   2.068   8.969 -0.7607  0.6224 -0.7998
  178SOPE  H17S20305   0.952   2.038   9.118  1.1360  0.7682 -0.8416
  178SOPE  C21820306   0.984   2.222   9.035 -0.1114 -0.2521 -0.3732
  178SOPE  H18R20307   1.005   2.280   9.127 -1.4664 -0.5407  0.1397
  178SOPE  H18S20308   0.920   2.291   8.975  0.8063 -0.8549 -2.1269
  178SOPE  H18T20309   1.080   2.197   8.985  1.4959  3.6859  0.3450
  178SOPE   C3320310   0.643   1.424  10.081  0.6227  0.3452 -0.3851
  178SOPE   H3X20311   0.533   1.421  10.094  0.8358 -1.0247  1.4918
  178SOPE   H3Y20312   0.690   1.327  10.110 -2.5688 -1.1071  0.4592
  178SOPE   C3420313   0.679   1.443   9.932  0.4023  0.0877 -0.1190
  178SOPE   H4X20314   0.789   1.452   9.922  0.3274  0.9662 -0.2164
  178SOPE   H4Y20315   0.642   1.543   9.903  1.1001  0.8380  1.4837
  178SOPE   C3520316   0.628   1.333   9.835 -0.1796 -0.0802  0.1860
  178SOPE   H5X20317   0.518   1.314   9.844 -0.2613 -0.1091 -0.7934
  178SOPE   H5Y20318   0.690   1.241   9.830  1.6282  1.1598 -2.7356
  178SOPE   C3620319   0.638   1.396   9.694 -0.7285  0.6355  0.5057
  178SOPE   H6X20320   0.746   1.416   9.674 -0.5474  0.1129  0.9519
  178SOPE   H6Y20321   0.569   1.482   9.675 -0.7418  0.6302  0.5318
  178SOPE   C3720322   0.599   1.286   9.593  0.0632 -0.1090 -0.6797
  178SOPE   H7X20323   0.493   1.257   9.607  0.5098 -0.2754  3.6663
  178SOPE   H7Y20324   0.656   1.192   9.607 -0.7917 -0.5159  0.1525
  178SOPE   C3820325   0.614   1.343   9.448 -0.0400 -0.2806 -0.2411
  178SOPE   H8X20326   0.696   1.415   9.431 -0.6826  0.1073 -1.8507
  178SOPE   H8Y20327   0.517   1.394   9.428  0.7068  1.7292  0.9680
  178SOPE   C3920328   0.622   1.235   9.337  1.3723  0.0555 -0.7957
  178SOPE   H9X20329   0.554   1.154   9.371  1.4231  1.8875  4.6098
  178SOPE   H9Y20330   0.721   1.185   9.330  1.8496  0.9029 -0.2193
  178SOPE  C31020331   0.600   1.288   9.195 -0.0788 -0.1245  0.0557
  178SOPE  H10X20332   0.681   1.358   9.164 -0.8781  1.4834  1.4369
  178SOPE  H10Y20333   0.503   1.342   9.198 -0.1794 -0.1435 -1.7238
  178SOPE  C31120334   0.592   1.168   9.107 -0.6036  0.2652  0.3525
  178SOPE  H11X20335   0.524   1.084   9.133 -0.7509  0.1639 -0.3219
  178SOPE  H11Y20336   0.688   1.113   9.116 -0.8004  0.2533  3.4564
  178SOPE  C31220337   0.553   1.191   8.961  0.1847  1.0907 -0.7154
  178SOPE  H12X20338   0.639   1.240   8.911  1.9223 -0.8966  0.1982
  178SOPE  H12Y20339   0.465   1.258   8.951 -1.0782 -0.6210 -1.7758
  178SOPE  C31320340   0.513   1.060   8.887  0.0102  0.3545  0.2090
  178SOPE  H13X20341   0.412   1.041   8.929  0.3284  1.7679  1.7307
  178SOPE  H13Y20342   0.583   0.984   8.926  1.4408  1.7773  0.5245
  178SOPE  C31420343   0.526   1.072   8.738 -0.4600  0.5628  0.1549
  178SOPE  H14X20344   0.632   1.070   8.706 -0.1112  0.5946  1.2764
  178SOPE  H14Y20345   0.490   1.173   8.709  2.6693  1.6065 -0.4453
  178SOPE  C31520346   0.459   0.960   8.658  0.1069  0.1739  1.3658
  178SOPE  H15X20347   0.494   0.856   8.675  0.1109 -0.2356 -0.8811
  178SOPE  H15Y20348   0.484   0.978   8.552 -2.1577 -1.3255  0.4790
  178SOPE  C31620349   0.306   0.962   8.679 -0.5515 -0.8447  0.2364
  178SOPE  H16X20350   0.266   1.057   8.638  0.3525 -0.1393  0.9635
  178SOPE  H16Y20351   0.289   0.965   8.789 -2.1328  2.2849  0.0222
  178SOPE  C31720352   0.233   0.845   8.613  0.1397 -0.1622  0.5282
  178SOPE  H17X20353   0.266   0.755   8.670  0.4596 -1.3979 -1.4898
  178SOPE  H17Y20354   0.267   0.843   8.508  0.2648  2.3828  0.4596
  178SOPE  C31820355   0.082   0.870   8.625 -0.4994 -0.2025  0.1225
  178SOPE  H18X20356   0.031   0.787   8.572  1.6596  0.1104 -2.7051
  178SOPE  H18Y20357   0.054   0.966   8.577 -0.6053  0.6459  1.8094
  178SOPE  H18Z20358   0.060   0.872   8.734 -2.1910 -1.0749 -0.1737
  179SOPE     N20359   0.117   2.233   6.244  0.3610 -0.3737  0.0723
  179SOPE   HN120360   0.059   2.280   6.316  1.8039 -0.3817  1.2752
  179SOPE   HN220361   0.201   2.291   6.224  0.0338  0.2031  0.3495
  179SOPE   HN320362   0.058   2.223   6.159 -1.5495 -1.2543  1.4357
  179SOPE   C1220363   0.150   2.092   6.268  0.3034  0.4893 -0.3673
  179SOPE  H12A20364   0.215   2.061   6.183 -0.0471 -3.3915  0.5689
  179SOPE  H12B20365   0.055   2.041   6.296  0.2345  1.3637  1.0959
  179SOPE   C1120366   0.244   2.088   6.396 -0.3407  0.0389  0.4902
  179SOPE  H11A20367   0.181   2.087   6.488  0.6685  1.5542  1.2504
  179SOPE  H11B20368   0.308   2.179   6.401  1.2872 -0.9650 -0.9783
  179SOPE     P20369   0.473   1.957   6.353  0.1934  0.1072 -0.2339
  179SOPE   O1320370   0.464   1.904   6.212  0.6527  0.0126  0.0451
  179SOPE   O1420371   0.543   1.866   6.446 -0.0440 -0.4879 -0.0600
  179SOPE   O1220372   0.321   1.970   6.399 -0.2764 -0.0436 -0.5299
  179SOPE   O1120373   0.542   2.100   6.344  0.4100  0.2732 -0.1026
  179SOPE    C120374   0.673   2.120   6.401 -0.6427  0.1901 -0.3611
  179SOPE    HA20375   0.749   2.149   6.325  1.7175 -0.7013  1.5591
  179SOPE    HB20376   0.711   2.029   6.451 -0.2255  1.2684  1.3562
  179SOPE    C220377   0.683   2.230   6.507 -0.2442  0.1302 -0.6593
  179SOPE    HS20378   0.780   2.234   6.562  1.4744  0.9908 -3.5541
  179SOPE   O2120379   0.578   2.218   6.603  0.2593 -1.3680  0.1739
  179SOPE   C2120380   0.600   2.148   6.717 -0.3211 -0.6527  0.3051
  179SOPE   O2220381   0.709   2.122   6.760  0.6462 -0.2797  0.2094
  179SOPE   C2220382   0.460   2.100   6.766 -0.3619  0.5144  0.0879
  179SOPE   H2R20383   0.418   2.041   6.681  1.0814 -1.5766  0.7340
  179SOPE   H2S20384   0.396   2.189   6.784  2.4860  2.5449  0.8262
  179SOPE    C320385   0.678   2.364   6.438 -0.4582  0.3667  0.3972
  179SOPE    HX20386   0.588   2.369   6.373  1.2428  3.6739 -2.0812
  179SOPE    HY20387   0.771   2.383   6.380 -0.9152 -3.4813 -1.9343
  179SOPE   O3120388   0.668   2.472   6.528 -0.4742  0.1061  0.5167
  179SOPE   C3120389   0.758   2.475   6.629  1.0596 -0.5352 -0.2483
  179SOPE   O3220390   0.873   2.428   6.625  0.5398 -0.4564 -0.3764
  179SOPE   C3220391   0.694   2.556   6.742 -0.1065  0.7970 -0.5390
  179SOPE   H2X20392   0.678   2.476   6.817 -0.6781  2.0283  0.7062
  179SOPE   H2Y20393   0.595   2.595   6.709  0.0242  1.0844 -0.5962
  179SOPE   C2320394   0.469   2.003   6.892  0.1024  0.1935  0.0839
  179SOPE   H3R20395   0.527   1.910   6.875  1.3329  0.9997 -0.2512
  179SOPE   H3S20396   0.364   1.968   6.906  0.6049 -1.1961  0.5144
  179SOPE   C2420397   0.517   2.064   7.023 -1.2470  0.1502 -0.2986
  179SOPE   H4R20398   0.615   2.112   7.002 -0.7256 -0.3359  0.9048
  179SOPE   H4S20399   0.444   2.146   7.038  0.1385  1.8579 -2.2540
  179SOPE   C2520400   0.530   1.958   7.129 -0.7164  0.1234 -0.0822
  179SOPE   H5R20401   0.430   1.912   7.145  0.0532 -2.1189 -1.3135
  179SOPE   H5S20402   0.595   1.873   7.100 -0.6986  0.2717 -0.4779
  179SOPE   C2620403   0.590   2.024   7.258 -0.1236 -0.0916 -0.4202
  179SOPE   H6R20404   0.685   2.077   7.237 -0.4739  0.6926 -0.0919
  179SOPE   H6S20405   0.531   2.105   7.308  0.1692  0.7993 -1.4749
  179SOPE   C2720406   0.630   1.930   7.369 -0.3314  0.0702 -0.0566
  179SOPE   H7R20407   0.682   1.979   7.455 -2.4500 -0.1257  1.4129
  179SOPE   H7S20408   0.533   1.902   7.414 -0.2293 -0.3163 -0.0774
  179SOPE   C2820409   0.714   1.808   7.327 -0.4213 -0.7594  0.2985
  179SOPE   H8R20410   0.708   1.736   7.411  2.5671  0.0302  1.3082
  179SOPE   H8S20411   0.654   1.759   7.247  0.3833  0.6471 -1.2302
  179SOPE   C2920412   0.859   1.825   7.284  0.4767 -0.0340 -0.3899
  179SOPE   H9120413   0.874   1.881   7.191  2.3851  2.7988  1.4580
  179SOPE  C21020414   0.968   1.770   7.345  0.1950 -0.0861 -0.3752
  179SOPE  H10120415   1.065   1.806   7.308 -0.4769  1.5524 -0.6231
  179SOPE  C21120416   0.971   1.671   7.466  0.1602 -0.5412 -0.3887
  179SOPE  H11R20417   1.018   1.573   7.443  1.5285  0.3847 -1.7723
  179SOPE  H11S20418   0.869   1.639   7.494 -0.1498  1.5602  1.1340
  179SOPE  C21220419   1.052   1.708   7.592 -0.1168 -0.2001  0.0023
  179SOPE  H12R20420   1.006   1.795   7.644 -0.4630  0.7027 -1.7534
  179SOPE  H12S20421   1.155   1.740   7.564 -0.5247  2.1674  0.9424
  179SOPE  C21320422   1.054   1.588   7.690 -0.5630 -0.0980  0.0418
  179SOPE  H13R20423   1.113   1.506   7.644  0.3038  0.2153  0.5697
  179SOPE  H13S20424   0.955   1.538   7.694  0.5744 -2.5131 -0.0253
  179SOPE  C21420425   1.112   1.633   7.825  0.7453  0.0756  0.2341
  179SOPE  H14R20426   1.047   1.715   7.864  0.3707 -0.0818 -0.0522
  179SOPE  H14S20427   1.216   1.671   7.822  0.3664  1.1299 -0.0431
  179SOPE  C21520428   1.085   1.521   7.929 -0.8755 -0.4642 -0.0986
  179SOPE  H15R20429   1.150   1.438   7.893 -1.0976  0.9791 -4.4999
  179SOPE  H15S20430   0.978   1.491   7.930 -1.5057  1.5864  1.8125
  179SOPE  C21620431   1.138   1.554   8.074  0.4899  0.5873 -0.3594
  179SOPE  H16R20432   1.177   1.656   8.058  1.3328  0.6747  1.9761
  179SOPE  H16S20433   1.224   1.490   8.101  0.2349  1.2024  2.1294
  179SOPE  C21720434   1.027   1.549   8.177 -0.0864  0.2177  0.3122
  179SOPE  H17R20435   1.082   1.572   8.271  3.9314  0.4236 -1.8757
  179SOPE  H17S20436   0.995   1.442   8.171 -2.6605  0.9968 -1.9961
  179SOPE  C21820437   0.906   1.641   8.157 -0.0970  0.1725  0.8692
  179SOPE  H18R20438   0.932   1.738   8.204 -0.6313 -0.3446  2.2840
  179SOPE  H18S20439   0.813   1.609   8.210 -1.4707  0.5989 -1.1638
  179SOPE  H18T20440   0.882   1.665   8.051  0.5007  1.0062  0.9084
  179SOPE   C3320441   0.785   2.675   6.791  0.0998  0.5780 -0.5459
  179SOPE   H3X20442   0.809   2.751   6.714  0.1703  0.2995 -0.7985
  179SOPE   H3Y20443   0.879   2.636   6.834  0.9611  2.4005 -0.6785
  179SOPE   C3420444   0.731   2.757   6.908 -0.3928  0.0435  0.0895
  179SOPE   H4X20445   0.713   2.689   6.994  0.8448 -2.6389 -1.6200
  179SOPE   H4Y20446   0.641   2.807   6.868 -0.9555 -1.1816 -0.2252
  179SOPE   C3520447   0.815   2.877   6.948 -0.6620 -0.6382 -0.2988
  179SOPE   H5X20448   0.817   2.956   6.869 -0.3070 -1.2030 -0.8648
  179SOPE   H5Y20449   0.920   2.845   6.962 -0.8904 -0.7551  1.3578
  179SOPE   C3620450   0.752   2.933   7.077  0.2909 -0.2444 -0.0990
  179SOPE   H6X20451   0.739   2.853   7.153 -2.4898  0.4001  0.1813
  179SOPE   H6Y20452   0.654   2.971   7.043  0.4797  0.6012  0.2935
  179SOPE   C3720453   0.810   3.055   7.158  0.2352 -0.0527  0.1905
  179SOPE   H7X20454   0.824   3.147   7.096 -1.7607 -0.1401 -0.4389
  179SOPE   H7Y20455   0.909   3.025   7.200 -0.0835 -2.5372 -0.6743
  179SOPE   C3820456   0.724   3.086   7.283 -0.2971  0.0224  0.3607
  179SOPE   H8X20457   0.620   3.089   7.244  0.3739  0.3049 -1.5248
  179SOPE   H8Y20458   0.747   3.185   7.327 -0.9986  0.2069  0.3230
  179SOPE   C3920459   0.725   2.987   7.398 -0.1929  0.0313  0.0686
  179SOPE   H9X20460   0.802   2.908   7.383  0.0161 -0.8267  4.2804
  179SOPE   H9Y20461   0.628   2.932   7.398 -0.8221  1.0537 -2.0985
  179SOPE  C31020462   0.752   3.047   7.534  0.1814  0.4177 -0.0367
  179SOPE  H10X20463   0.672   3.114   7.571  1.4315  0.7477  2.1983
  179SOPE  H10Y20464   0.842   3.111   7.527  1.5576 -1.5247 -0.9959
  179SOPE  C31120465   0.771   2.941   7.641  0.7614  0.0204 -0.2805
  179SOPE  H11X20466   0.834   2.859   7.601 -0.6329 -0.3064 -1.9643
  179SOPE  H11Y20467   0.674   2.910   7.686  1.2736  1.6865  2.1659
  179SOPE  C31220468   0.838   2.998   7.763  0.1866 -0.0369  0.1286
  179SOPE  H12X20469   0.791   3.098   7.772  0.3643  0.1113 -0.5834
  179SOPE  H12Y20470   0.947   3.011   7.743 -0.1377  0.5289 -1.4305
  179SOPE  C31320471   0.816   2.911   7.891 -0.5087  0.1697  0.3206
  179SOPE  H13X20472   0.819   2.804   7.860 -0.5655  0.4108 -0.5557
  179SOPE  H13Y20473   0.722   2.930   7.947  0.8910  3.1498  1.9204
  179SOPE  C31420474   0.928   2.942   7.990  0.9544  0.9565  0.2760
  179SOPE  H14X20475   0.910   3.044   8.031 -1.6623  1.6573 -2.2588
  179SOPE  H14Y20476   1.024   2.944   7.935  0.3986  0.4073 -0.7491
  179SOPE  C31520477   0.941   2.840   8.103  0.3605 -0.2373 -0.1705
  179SOPE  H15X20478   0.940   2.736   8.064 -0.5455 -0.2269 -0.2070
  179SOPE  H15Y20479   0.851   2.840   8.168  2.1174 -0.5566  2.4133
  179SOPE  C31620480   1.058   2.874   8.188  0.1931 -0.7756  0.1357
  179SOPE  H16X20481   1.039   2.971   8.239  0.1752 -0.6464 -0.1132
  179SOPE  H16Y20482   1.149   2.901   8.131 -0.1928 -0.2726 -0.2519
  179SOPE  C31720483   1.107   2.769   8.283 -0.3914  1.2261  0.1779
  179SOPE  H17X20484   1.191   2.812   8.342  0.4069 -0.3845  0.2593
  179SOPE  H17Y20485   1.151   2.685   8.226 -2.7226  0.1764 -0.1978
  179SOPE  C31820486   0.999   2.726   8.383 -0.6302  0.9063  0.1073
  179SOPE  H18X20487   0.924   2.671   8.322 -0.1809  2.3013 -1.7974
  179SOPE  H18Y20488   0.953   2.815   8.431 -2.6710  0.2943 -0.6039
  179SOPE  H18Z20489   1.037   2.642   8.446  0.7619 -0.6422 -2.5926
  180SOPE     N20490   6.691   1.536   5.957  0.4301  0.1560 -0.0797
  180SOPE   HN120491   6.715   1.556   5.858 -0.0527 -1.3869 -0.5337
  180SOPE   HN220492   6.689   1.432   5.967 -1.9739 -0.0423 -1.7146
  180SOPE   HN320493   6.594   1.566   5.980  0.7050 -0.1799  1.6208
  180SOPE   C1220494   6.779   1.598   6.062  0.1384  0.0347 -0.5266
  180SOPE  H12A20495   6.762   1.707   6.049  0.1148 -0.0997 -1.7202
  180SOPE  H12B20496   6.887   1.578   6.045  0.0459 -0.3883 -0.6155
  180SOPE   C1120497   6.751   1.554   6.208 -0.1975 -0.5432 -0.4264
  180SOPE  H11A20498   6.649   1.589   6.236 -0.1083  0.5412 -1.3479
  180SOPE  H11B20499   6.831   1.591   6.276 -0.2334 -0.0895 -0.6212
  180SOPE     P20500   6.751   1.331   6.341 -0.3267  0.2730  0.7018
  180SOPE   O1320501   6.879   1.356   6.418 -0.3988 -0.1841 -0.3319
  180SOPE   O1420502   6.709   1.191   6.311  0.4179  0.2484 -0.2570
  180SOPE   O1220503   6.754   1.410   6.209  0.0905  0.6274 -0.5729
  180SOPE   O1120504   6.631   1.402   6.416  0.0779 -0.5902  0.1380
  180SOPE    C120505   6.642   1.504   6.511  0.4031  0.3740 -0.1415
  180SOPE    HA20506   6.582   1.591   6.478  1.3797  1.6332  1.2961
  180SOPE    HB20507   6.745   1.545   6.517 -0.0419  1.9429 -2.0044
  180SOPE    C220508   6.579   1.462   6.652  0.1124  0.4737  0.1132
  180SOPE    HS20509   6.566   1.556   6.710 -1.0925  0.7105 -0.5094
  180SOPE   O2120510   6.655   1.362   6.720 -0.3784 -0.4895 -0.3232
  180SOPE   C2120511   6.753   1.409   6.800 -0.4376  0.0295 -0.9331
  180SOPE   O2220512   6.790   1.527   6.803 -0.6025 -0.5273 -0.3903
  180SOPE   C2220513   6.817   1.296   6.880  0.1544  0.0849  0.5724
  180SOPE   H2R20514   6.896   1.247   6.820 -0.7052  2.5516 -2.8448
  180SOPE   H2S20515   6.732   1.226   6.893  0.3009 -0.0449  0.8321
  180SOPE    C320516   6.431   1.416   6.629  0.0154  0.1848  0.1344
  180SOPE    HX20517   6.437   1.326   6.564  0.7817 -0.3922  0.9727
  180SOPE    HY20518   6.389   1.492   6.560  1.2334 -0.4365 -1.3541
  180SOPE   O3120519   6.354   1.398   6.748 -0.3016  0.6857 -0.2817
  180SOPE   C3120520   6.340   1.267   6.789  0.4796 -0.5505 -0.5079
  180SOPE   O3220521   6.375   1.168   6.730 -0.9524  0.1116  0.1026
  180SOPE   C3220522   6.263   1.272   6.914 -0.1324  0.3267 -0.0699
  180SOPE   H2X20523   6.178   1.200   6.914  0.6295 -0.5933  0.2327
  180SOPE   H2Y20524   6.216   1.370   6.936  0.3629  0.8687 -1.3349
  180SOPE   C2320525   6.851   1.341   7.024  0.5665 -0.2568 -0.1495
  180SOPE   H3R20526   6.769   1.404   7.064 -1.0616 -2.2638 -0.1421
  180SOPE   H3S20527   6.950   1.391   7.032 -0.7830  2.9434 -1.7697
  180SOPE   C2420528   6.839   1.225   7.127  0.3849 -0.4119 -0.4915
  180SOPE   H4R20529   6.745   1.166   7.127  1.0128 -1.7909  3.8992
  180SOPE   H4S20530   6.914   1.148   7.100  0.2859 -2.0895  3.3528
  180SOPE   C2520531   6.872   1.267   7.273 -0.2144  0.9029  0.2320
  180SOPE   H5R20532   6.978   1.263   7.305  0.2716  1.7326 -1.1492
  180SOPE   H5S20533   6.847   1.373   7.293 -0.5417  0.4825  2.2319
  180SOPE   C2620534   6.778   1.201   7.376  0.8095  0.1962 -0.4509
  180SOPE   H6R20535   6.671   1.219   7.352  0.9431 -0.9736 -2.1081
  180SOPE   H6S20536   6.791   1.091   7.378  0.0951  0.0493 -2.0487
  180SOPE   C2720537   6.799   1.269   7.514 -0.2895 -0.1037  0.0624
  180SOPE   H7R20538   6.786   1.378   7.493  2.3399  0.1016 -0.8263
  180SOPE   H7S20539   6.715   1.254   7.585 -1.6557  1.3113 -1.1727
  180SOPE   C2820540   6.926   1.234   7.592  0.0257  1.0263 -0.2178
  180SOPE   H8R20541   6.908   1.127   7.613  0.9148  0.7222 -0.9617
  180SOPE   H8S20542   7.013   1.243   7.524 -0.1621  0.5672 -0.5188
  180SOPE   C2920543   6.933   1.315   7.720  0.2887  0.8552  0.5993
  180SOPE   H9120544   6.902   1.418   7.697 -1.1133  0.4764  0.6959
  180SOPE  C21020545   6.964   1.284   7.846 -0.2823  0.9356  0.1479
  180SOPE  H10120546   6.969   1.356   7.929  1.6079  1.4789 -0.3764
  180SOPE  C21120547   7.015   1.151   7.892 -0.1370 -0.2567 -1.0700
  180SOPE  H11R20548   7.108   1.126   7.837 -0.0584 -1.5909 -0.3685
  180SOPE  H11S20549   6.946   1.073   7.853 -1.6162  0.8840 -0.8375
  180SOPE  C21220550   7.036   1.114   8.045 -0.6773  0.1689  0.0771
  180SOPE  H12R20551   7.090   1.017   8.052  0.5677  0.6079 -2.3633
  180SOPE  H12S20552   6.937   1.109   8.096  1.0738  0.5588  3.8574
  180SOPE  C21320553   7.103   1.223   8.128  0.0153 -0.0518 -0.2647
  180SOPE  H13R20554   7.027   1.302   8.148 -2.3483 -1.9737 -1.1592
  180SOPE  H13S20555   7.188   1.271   8.074  0.1543  0.4088  0.3502
  180SOPE  C21420556   7.137   1.161   8.266  0.3513  0.2606  0.4204
  180SOPE  H14R20557   7.204   1.073   8.247 -0.5343 -0.9540  2.5447
  180SOPE  H14S20558   7.040   1.124   8.304  0.5919  0.9602  1.7557
  180SOPE  C21520559   7.177   1.261   8.369  0.2592  0.4608  0.1990
  180SOPE  H15R20560   7.173   1.211   8.468 -1.7034 -0.4825 -0.3105
  180SOPE  H15S20561   7.110   1.350   8.365 -0.9688 -0.4283  0.6228
  180SOPE  C21620562   7.317   1.319   8.335 -0.0398 -0.1451 -0.0860
  180SOPE  H16R20563   7.324   1.418   8.385 -1.3344  0.2014 -0.5668
  180SOPE  H16S20564   7.338   1.316   8.226  1.3374 -1.3876  0.1845
  180SOPE  C21720565   7.429   1.237   8.408  0.6889  1.0841  0.0678
  180SOPE  H17R20566   7.417   1.130   8.384  2.0218  0.4902  1.8534
  180SOPE  H17S20567   7.410   1.245   8.517  0.7932  1.9988  0.0295
  180SOPE  C21820568   7.563   1.279   8.361 -0.7564 -0.4009  0.2461
  180SOPE  H18R20569   7.584   1.388   8.354  0.1005 -0.6416 -1.7245
  180SOPE  H18S20570   7.579   1.272   8.252 -2.9098  4.9122 -0.6989
  180SOPE  H18T20571   7.650   1.236   8.416 -0.2747 -2.2017 -1.7866
  180SOPE   C3320572   6.351   1.227   7.031 -0.6485  0.5031 -0.9021
  180SOPE   H3X20573   6.440   1.293   7.030 -0.6221  0.4647 -1.3492
  180SOPE   H3Y20574   6.389   1.125   7.011 -1.0289  0.1663  0.0448
  180SOPE   C3420575   6.279   1.226   7.165 -0.7305  0.0306 -0.6837
  180SOPE   H4X20576   6.194   1.155   7.155 -1.4479  1.0220 -1.9711
  180SOPE   H4Y20577   6.229   1.324   7.183 -1.4798 -0.5825  0.6746
  180SOPE   C3520578   6.375   1.181   7.275  0.2860  0.1930 -0.3940
  180SOPE   H5X20579   6.466   1.244   7.273 -0.0487  0.7431  0.6663
  180SOPE   H5Y20580   6.402   1.074   7.260 -1.5681 -0.3591 -0.1038
  180SOPE   C3620581   6.317   1.200   7.418 -0.1733  0.1030  0.2270
  180SOPE   H6X20582   6.249   1.113   7.432 -0.5181  0.2448 -0.5299
  180SOPE   H6Y20583   6.260   1.292   7.444 -0.1439  0.1396  0.1630
  180SOPE   C3720584   6.447   1.204   7.519  0.5207  0.4548 -1.1137
  180SOPE   H7X20585   6.517   1.288   7.498  1.2266 -0.3657 -2.1583
  180SOPE   H7Y20586   6.512   1.114   7.517 -2.9240 -2.4194  1.1700
  180SOPE   C3820587   6.393   1.203   7.675 -0.2670  0.0046 -0.2774
  180SOPE   H8X20588   6.323   1.120   7.695  0.4364 -0.1641  1.6364
  180SOPE   H8Y20589   6.338   1.299   7.688  2.8494  1.9258 -0.0271
  180SOPE   C3920590   6.506   1.196   7.769 -0.3104  0.4105 -0.3499
  180SOPE   H9X20591   6.574   1.282   7.750 -1.2900  1.5751  1.1621
  180SOPE   H9Y20592   6.566   1.105   7.745  2.0372  1.9738 -0.6709
  180SOPE  C31020593   6.458   1.203   7.915  0.8009 -0.6072  0.0025
  180SOPE  H10X20594   6.426   1.101   7.945 -0.4812 -1.3921 -3.5577
  180SOPE  H10Y20595   6.360   1.254   7.916  0.6224 -0.9397 -0.3828
  180SOPE  C31120596   6.544   1.277   8.022 -0.5470  0.2368  0.1490
  180SOPE  H11X20597   6.481   1.281   8.114 -4.0038  0.4965 -2.0423
  180SOPE  H11Y20598   6.558   1.385   8.002 -0.5300  0.3097  0.5517
  180SOPE  C31220599   6.676   1.210   8.052 -0.5385  0.6072  0.5913
  180SOPE  H12X20600   6.756   1.282   8.079 -1.1876  1.3804  0.4881
  180SOPE  H12Y20601   6.708   1.179   7.950 -2.1452  0.1476  0.1928
  180SOPE  C31320602   6.668   1.115   8.168 -0.0449 -0.3181 -0.2758
  180SOPE  H13X20603   6.765   1.061   8.171  0.4723  0.6159  0.2324
  180SOPE  H13Y20604   6.588   1.038   8.159  0.2354 -0.5928 -0.4530
  180SOPE  C31420605   6.653   1.185   8.305 -0.1002 -0.3578  0.0495
  180SOPE  H14X20606   6.671   1.108   8.383 -0.7393  0.1572  0.7197
  180SOPE  H14Y20607   6.555   1.236   8.314  0.2720  0.4826 -0.5167
  180SOPE  C31520608   6.765   1.288   8.334 -0.0302 -0.8307  0.2766
  180SOPE  H15X20609   6.731   1.371   8.268 -0.0954 -0.2505  1.0392
  180SOPE  H15Y20610   6.856   1.245   8.286  1.3519  1.1738  0.9637
  180SOPE  C31620611   6.799   1.337   8.478  0.7974  0.0675  0.0185
  180SOPE  H16X20612   6.872   1.420   8.466 -0.6470  1.6410  1.5645
  180SOPE  H16Y20613   6.839   1.252   8.538 -0.7841 -0.4450  0.3823
  180SOPE  C31720614   6.679   1.406   8.544  0.3271  0.5534 -0.0929
  180SOPE  H17X20615   6.694   1.421   8.653 -0.1484  2.6420 -0.2713
  180SOPE  H17Y20616   6.593   1.336   8.542  1.9915 -1.7746  2.7000
  180SOPE  C31820617   6.637   1.538   8.481 -0.2176 -0.3800 -0.1474
  180SOPE  H18X20618   6.710   1.619   8.502 -0.2564 -0.6443  1.0900
  180SOPE  H18Y20619   6.541   1.570   8.528  0.1782 -1.5195  1.5176
  180SOPE  H18Z20620   6.620   1.527   8.372  0.2118  0.7878 -0.3536
  181SOPE     N20621   5.750   0.626   6.448 -0.1451 -0.5801  0.0287
  181SOPE   HN120622   5.673   0.692   6.471  0.6404  0.0352  1.0078
  181SOPE   HN220623   5.809   0.609   6.532 -0.1488  0.7023  0.3109
  181SOPE   HN320624   5.820   0.674   6.387  1.5389 -1.7581  0.9628
  181SOPE   C1220625   5.693   0.510   6.378  0.0711  0.4416  0.0870
  181SOPE  H12A20626   5.680   0.528   6.269  1.4500 -2.4275 -0.6439
  181SOPE  H12B20627   5.596   0.480   6.423  0.2096  0.3661  0.3382
  181SOPE   C1120628   5.795   0.387   6.398 -0.1501 -0.8099  0.2664
  181SOPE  H11A20629   5.741   0.296   6.364  0.0302 -0.8299  0.0337
  181SOPE  H11B20630   5.810   0.368   6.506  0.4342  2.4448  0.8816
  181SOPE     P20631   6.055   0.364   6.389  0.2407  0.0510  0.3714
  181SOPE   O1320632   6.092   0.459   6.495 -0.4153  0.4929  0.5424
  181SOPE   O1420633   6.159   0.347   6.281 -0.5304 -0.0743  0.4739
  181SOPE   O1220634   5.917   0.414   6.329 -0.3499  0.2450  0.0025
  181SOPE   O1120635   6.005   0.223   6.440  0.1576  0.2475 -0.1458
  181SOPE    C120636   6.105   0.140   6.509 -0.5424  0.4640  0.3325
  181SOPE    HA20637   6.201   0.134   6.453 -1.5924  1.2749 -1.6324
  181SOPE    HB20638   6.064   0.037   6.505  0.3790 -0.1518  3.5817
  181SOPE    C220639   6.138   0.151   6.665 -0.9401 -0.5430  0.1664
  181SOPE    HS20640   6.154   0.050   6.708 -1.9162 -0.0822  1.6708
  181SOPE   O2120641   6.032   0.202   6.742 -0.2372  0.1582 -0.2940
  181SOPE   C2120642   5.923   0.133   6.734  0.1204 -0.6083  0.0341
  181SOPE   O2220643   5.909   0.021   6.682 -0.6814 -0.1676 -0.3711
  181SOPE   C2220644   5.802   0.195   6.806 -0.1471  0.4505  0.2855
  181SOPE   H2R20645   5.717   0.158   6.745 -0.8645  1.8118  0.4379
  181SOPE   H2S20646   5.801   0.306   6.805 -1.0033  0.4524 -1.1736
  181SOPE    C320647   6.266   0.236   6.689 -0.8010 -0.3069  0.2148
  181SOPE    HX20648   6.249   0.332   6.635 -0.9236 -0.0707  0.6693
  181SOPE    HY20649   6.352   0.189   6.636  0.5708  1.9893  0.2654
  181SOPE   O3120650   6.295   0.263   6.823 -0.4576 -0.5276  0.1050
  181SOPE   C3120651   6.359   0.176   6.898  0.0130 -0.4510  0.1583
  181SOPE   O3220652   6.399   0.067   6.867 -0.1630 -0.1862  0.5578
  181SOPE   C3220653   6.387   0.239   7.035 -0.1225  0.0838  0.3209
  181SOPE   H2X20654   6.287   0.263   7.079 -1.5357 -0.7418 -2.2448
  181SOPE   H2Y20655   6.449   0.330   7.023  1.1660 -0.9174 -1.0793
  181SOPE   C2320656   5.811   0.131   6.948  0.0844  0.2959  0.3481
  181SOPE   H3R20657   5.909   0.154   6.995  1.0391 -1.8533 -0.4420
  181SOPE   H3S20658   5.823   0.021   6.947  2.4852  0.4900  0.3887
  181SOPE   C2420659   5.697   0.179   7.034 -0.5352  0.3154 -0.1874
  181SOPE   H4R20660   5.703   0.290   7.038 -0.6654  0.3722 -1.2068
  181SOPE   H4S20661   5.600   0.146   6.989 -0.9836 -0.3009  1.1851
  181SOPE   C2520662   5.696   0.123   7.176  0.0117  0.1714  0.4455
  181SOPE   H5R20663   5.669   0.015   7.181 -1.3296  0.3874 -1.0836
  181SOPE   H5S20664   5.797   0.137   7.218  0.3872  0.1847 -0.4421
  181SOPE   C2620665   5.595   0.206   7.258 -0.2942 -0.2776 -0.5188
  181SOPE   H6R20666   5.630   0.311   7.245  0.1797 -0.2093  1.0162
  181SOPE   H6S20667   5.496   0.179   7.216 -0.1170  0.0792 -1.1709
  181SOPE   C2720668   5.588   0.183   7.413  0.0798  0.2479 -0.3902
  181SOPE   H7R20669   5.534   0.268   7.460  1.8690  0.4430  1.4486
  181SOPE   H7S20670   5.520   0.096   7.426  1.1037 -0.7620 -1.5475
  181SOPE   C2820671   5.722   0.158   7.476  0.0550 -0.2937 -0.3944
  181SOPE   H8R20672   5.708   0.137   7.584  1.9435 -0.8267 -0.2252
  181SOPE   H8S20673   5.765   0.066   7.431  1.0304 -1.2049  2.2318
  181SOPE   C2920674   5.808   0.281   7.473 -0.1003 -0.5030  0.5640
  181SOPE   H9120675   5.850   0.305   7.374 -1.1797  1.6995  0.5817
  181SOPE  C21020676   5.854   0.351   7.572 -0.2812 -0.4002 -0.0657
  181SOPE  H10120677   5.925   0.431   7.547 -1.0653  0.3194 -0.0405
  181SOPE  C21120678   5.831   0.341   7.722  0.1975  0.2945 -0.0176
  181SOPE  H11R20679   5.831   0.236   7.760  1.1799  0.4233  0.3762
  181SOPE  H11S20680   5.732   0.377   7.755  0.0600 -1.0833  1.2079
  181SOPE  C21220681   5.945   0.413   7.793  0.1180  0.7080  0.6221
  181SOPE  H12R20682   5.942   0.517   7.756 -0.7893  0.7971  0.9301
  181SOPE  H12S20683   6.043   0.366   7.768 -0.4616  0.8808 -2.3292
  181SOPE  C21320684   5.935   0.413   7.950  0.3642 -0.1145 -0.4573
  181SOPE  H13R20685   5.914   0.307   7.978  1.3842 -0.3783 -0.6420
  181SOPE  H13S20686   5.845   0.472   7.977 -0.1863 -0.3237 -1.7672
  181SOPE  C21420687   6.060   0.468   8.018 -0.0402  0.3377  0.7142
  181SOPE  H14R20688   6.086   0.563   7.967  2.3273 -0.3094  0.6134
  181SOPE  H14S20689   6.148   0.404   7.995  0.2873  1.4160 -1.2128
  181SOPE  C21520690   6.059   0.480   8.178 -0.4650 -0.1017  0.3094
  181SOPE  H15R20691   6.020   0.388   8.225  0.6688 -0.6478  0.2117
  181SOPE  H15S20692   6.002   0.573   8.198 -1.0614 -0.7241  1.5932
  181SOPE  C21620693   6.197   0.516   8.242 -0.4395 -0.4704  0.8120
  181SOPE  H16R20694   6.239   0.609   8.199  1.2626 -0.2329  2.8278
  181SOPE  H16S20695   6.271   0.439   8.214  0.9871  0.4278  1.9351
  181SOPE  C21720696   6.185   0.539   8.392 -0.0991  0.5940  0.0448
  181SOPE  H17R20697   6.289   0.527   8.429 -0.1536 -1.4025 -0.3131
  181SOPE  H17S20698   6.126   0.453   8.431 -0.1839  0.3516 -0.6037
  181SOPE  C21820699   6.126   0.672   8.430  0.2034  0.8539  0.6641
  181SOPE  H18R20700   6.168   0.734   8.348  0.5267  0.0154  0.1919
  181SOPE  H18S20701   6.165   0.706   8.528  0.6591 -0.7600  1.0680
  181SOPE  H18T20702   6.015   0.668   8.425  0.1137  0.1563  2.4877
  181SOPE   C3320703   6.444   0.145   7.140  0.0772  0.8041 -0.0635
  181SOPE   H3X20704   6.545   0.118   7.102 -0.0263 -0.2027  0.3506
  181SOPE   H3Y20705   6.391   0.050   7.163  1.3232  0.2778  0.7093
  181SOPE   C3420706   6.455   0.214   7.275  0.5355 -0.0653 -0.0252
  181SOPE   H4X20707   6.373   0.179   7.340 -0.4286  0.5935 -0.8544
  181SOPE   H4Y20708   6.435   0.324   7.270 -1.5846 -0.2584  2.4059
  181SOPE   C3520709   6.592   0.190   7.340  0.0603 -0.1673  0.1045
  181SOPE   H5X20710   6.670   0.216   7.265 -0.1519 -0.2347 -0.1411
  181SOPE   H5Y20711   6.606   0.081   7.358 -0.1782 -0.8594 -3.2262
  181SOPE   C3620712   6.617   0.249   7.471  0.2913  0.2439 -0.0064
  181SOPE   H6X20713   6.628   0.359   7.463  1.4985  0.1688  0.3892
  181SOPE   H6Y20714   6.717   0.214   7.505 -0.2073  0.5850  1.9362
  181SOPE   C3720715   6.518   0.212   7.582  0.3561  0.2760 -0.2256
  181SOPE   H7X20716   6.484   0.107   7.567 -1.8688  1.0415 -0.8717
  181SOPE   H7Y20717   6.423   0.269   7.571  1.3837  1.9728 -0.5815
  181SOPE   C3820718   6.577   0.236   7.720 -0.5178 -0.3159 -0.6070
  181SOPE   H8X20719   6.601   0.344   7.729  0.4875 -0.6584  1.1302
  181SOPE   H8Y20720   6.675   0.186   7.734 -0.7561 -0.1899  1.8501
  181SOPE   C3920721   6.494   0.202   7.848  0.9143 -0.1003 -0.4230
  181SOPE   H9X20722   6.471   0.093   7.852 -1.6443  0.3828 -0.5264
  181SOPE   H9Y20723   6.388   0.235   7.843  1.6115  2.1967 -1.0344
  181SOPE  C31020724   6.565   0.260   7.974  0.0276 -0.4363 -0.0539
  181SOPE  H10X20725   6.563   0.371   7.974  0.1725 -0.4282  0.8672
  181SOPE  H10Y20726   6.672   0.230   7.971  0.3877  0.8603 -1.9404
  181SOPE  C31120727   6.500   0.206   8.105 -0.2443 -0.1530  0.1601
  181SOPE  H11X20728   6.498   0.095   8.117 -1.2869 -0.2998 -1.0930
  181SOPE  H11Y20729   6.396   0.243   8.118  0.1668 -0.1165  5.1052
  181SOPE  C31220730   6.586   0.264   8.225  0.4866  0.3569 -0.7390
  181SOPE  H12X20731   6.585   0.373   8.205 -1.3304  0.8162  1.4182
  181SOPE  H12Y20732   6.688   0.220   8.220 -0.2694 -1.4964 -0.8682
  181SOPE  C31320733   6.539   0.245   8.374  0.0172  0.5291 -0.1344
  181SOPE  H13X20734   6.456   0.313   8.403  0.6361  0.1131  2.8912
  181SOPE  H13Y20735   6.618   0.284   8.441 -1.2417  1.0330  1.1058
  181SOPE  C31420736   6.508   0.097   8.410 -0.7095 -0.5286 -0.0285
  181SOPE  H14X20737   6.428   0.045   8.354 -0.2277 -0.4811 -0.7761
  181SOPE  H14Y20738   6.471   0.091   8.515 -1.2292  0.6304 -0.1285
  181SOPE  C31520739   6.632   0.014   8.385 -0.1216 -0.2377 -0.7635
  181SOPE  H15X20740   6.717   0.062   8.438 -1.0734 -0.4035  1.0241
  181SOPE  H15Y20741   6.659   0.012   8.278  1.5406 -3.0450 -0.3984
  181SOPE  C31620742   6.607  -0.141   8.409 -0.3595 -0.2514 -0.7229
  181SOPE  H16X20743   6.688  -0.200   8.362  2.3177  0.9442  2.0474
  181SOPE  H16Y20744   6.507  -0.163   8.365 -1.1762  1.5352  0.1100
  181SOPE  C31720745   6.606  -0.191   8.559  0.0568 -0.2357  0.0366
  181SOPE  H17X20746   6.536  -0.123   8.613  1.8818  0.1401  2.0642
  181SOPE  H17Y20747   6.709  -0.178   8.599  1.0163 -1.2656 -1.9561
  181SOPE  C31820748   6.573  -0.334   8.589 -0.1693 -0.3930 -0.1144
  181SOPE  H18X20749   6.462  -0.343   8.590 -0.0072 -3.2545 -0.4175
  181SOPE  H18Y20750   6.622  -0.372   8.681  1.3427  0.4932 -0.5211
  181SOPE  H18Z20751   6.599  -0.400   8.504  0.0815  0.1175 -0.4394
  182SOPE     N20752   0.537   1.570   6.413  0.7138 -0.2151  0.8154
  182SOPE   HN120753   0.442   1.541   6.383  1.9654 -2.9941 -0.8499
  182SOPE   HN220754   0.565   1.522   6.501 -0.6492  0.9886  1.9632
  182SOPE   HN320755   0.538   1.673   6.428  2.2113 -0.0741  0.0057
  182SOPE   C1220756   0.633   1.542   6.295  0.0163  0.0776 -0.0861
  182SOPE  H12A20757   0.600   1.614   6.216 -0.3846 -1.0669 -0.9965
  182SOPE  H12B20758   0.612   1.440   6.256  0.0559 -0.0082  0.1163
  182SOPE   C1120759   0.780   1.567   6.330  0.0746  0.0549  0.3176
  182SOPE  H11A20760   0.834   1.557   6.234 -1.3970  2.0573 -0.7929
  182SOPE  H11B20761   0.819   1.498   6.408  0.2614 -0.7539 -0.4763
  182SOPE     P20762   0.945   1.754   6.407  0.0907 -0.1448  0.2032
  182SOPE   O1320763   0.939   1.899   6.406  0.5420 -0.2157 -0.0452
  182SOPE   O1420764   1.042   1.697   6.316 -0.3523  0.1253 -0.0356
  182SOPE   O1220765   0.805   1.700   6.376 -0.2835 -0.3680  0.0081
  182SOPE   O1120766   0.975   1.713   6.555  0.6475  0.1101 -0.7629
  182SOPE    C120767   0.967   1.805   6.663  0.3368 -0.4375 -0.8751
  182SOPE    HA20768   0.931   1.906   6.635  0.3688 -0.0709  0.3322
  182SOPE    HB20769   1.067   1.816   6.712  0.9050  0.0883 -2.1217
  182SOPE    C220770   0.863   1.761   6.761  0.6159  0.0231 -0.3310
  182SOPE    HS20771   0.851   1.832   6.847 -1.6468  3.4166 -3.1632
  182SOPE   O2120772   0.903   1.635   6.818  0.0454  0.9215  0.5574
  182SOPE   C2120773   1.006   1.646   6.902 -0.1540 -0.1021  0.4719
  182SOPE   O2220774   1.050   1.745   6.956 -0.3339 -0.2918  0.1715
  182SOPE   C2220775   1.057   1.507   6.917  0.8457 -0.0375  0.0144
  182SOPE   H2R20776   1.083   1.478   6.813  0.6756  3.7124 -1.2200
  182SOPE   H2S20777   0.972   1.445   6.951 -0.6956  2.2212  0.4574
  182SOPE    C320778   0.717   1.748   6.699  0.4924 -0.1819  0.7733
  182SOPE    HX20779   0.724   1.685   6.608 -2.5401 -0.4863  0.6310
  182SOPE    HY20780   0.700   1.849   6.654  1.8454  0.4209  1.5542
  182SOPE   O3120781   0.612   1.699   6.788  0.0672 -0.3083 -0.2725
  182SOPE   C3120782   0.565   1.574   6.779  0.0580 -0.5825  0.4087
  182SOPE   O3220783   0.599   1.500   6.688 -0.1432 -0.2764  0.2143
  182SOPE   C3220784   0.467   1.541   6.894 -0.1193 -0.0402 -0.7677
  182SOPE   H2X20785   0.424   1.441   6.873  1.2461 -1.0136  0.7447
  182SOPE   H2Y20786   0.397   1.626   6.912  0.3669  0.0264  1.0439
  182SOPE   C2320787   1.187   1.488   6.994 -0.0141  0.4266  0.1965
  182SOPE   H3R20788   1.267   1.553   6.952  0.2856 -0.7067 -1.0785
  182SOPE   H3S20789   1.226   1.388   6.965 -0.7346  0.3942 -0.7131
  182SOPE   C2420790   1.172   1.502   7.152  0.0673  0.8498  0.2330
  182SOPE   H4R20791   1.115   1.597   7.164 -1.5197  1.1454 -6.0226
  182SOPE   H4S20792   1.114   1.419   7.197 -2.4433  1.3911 -1.7304
  182SOPE   C2520793   1.309   1.497   7.226  0.0751 -0.4760 -0.1445
  182SOPE   H5R20794   1.343   1.402   7.179 -1.1193  0.1560 -2.4445
  182SOPE   H5S20795   1.362   1.589   7.194 -1.9618  0.4382 -1.0663
  182SOPE   C2620796   1.303   1.505   7.379  0.2896 -0.2257  0.2724
  182SOPE   H6R20797   1.274   1.600   7.429  0.9972 -1.4747  3.2539
  182SOPE   H6S20798   1.209   1.449   7.399 -1.5047  1.8108 -1.8397
  182SOPE   C2720799   1.429   1.453   7.442 -1.2107  0.0016 -0.1551
  182SOPE   H7R20800   1.457   1.363   7.384 -1.9551  1.2189 -2.5372
  182SOPE   H7S20801   1.503   1.533   7.421 -3.0854  1.3726 -1.9189
  182SOPE   C2820802   1.405   1.427   7.588  0.4817  0.2559 -0.1556
  182SOPE   H8R20803   1.398   1.523   7.643  2.0131  0.0946  0.3811
  182SOPE   H8S20804   1.307   1.380   7.612 -0.8251  2.7251 -0.3340
  182SOPE   C2920805   1.515   1.336   7.648 -0.3067  0.6530 -0.0704
  182SOPE   H9120806   1.552   1.255   7.583  1.9560  2.1518 -0.7600
  182SOPE  C21020807   1.567   1.353   7.772  0.6641 -0.2079  0.2182
  182SOPE  H10120808   1.656   1.299   7.808  1.2003  0.9472  0.6855
  182SOPE  C21120809   1.536   1.454   7.883 -0.3862  0.1059  0.4762
  182SOPE  H11R20810   1.532   1.408   7.984 -3.0568  0.2849  0.5258
  182SOPE  H11S20811   1.436   1.503   7.881  0.4211  1.9547  2.4788
  182SOPE  C21220812   1.651   1.555   7.890  0.8381 -0.1938  0.3016
  182SOPE  H12R20813   1.674   1.594   7.788 -0.2361  0.5301  0.3157
  182SOPE  H12S20814   1.745   1.515   7.934  0.9022 -0.1843  0.1753
  182SOPE  C21320815   1.618   1.680   7.985 -0.1193 -0.2774 -0.1626
  182SOPE  H13R20816   1.527   1.725   7.940 -0.7158 -1.2615  0.0161
  182SOPE  H13S20817   1.712   1.739   7.987 -0.1132 -0.2564 -0.9058
  182SOPE  C21420818   1.570   1.638   8.127 -0.7711 -0.5218 -0.1077
  182SOPE  H14R20819   1.482   1.572   8.118 -0.0163 -1.5404 -0.2187
  182SOPE  H14S20820   1.534   1.720   8.192  1.7624 -1.2358  2.3871
  182SOPE  C21520821   1.682   1.563   8.205  0.3508 -0.2057  0.1406
  182SOPE  H15R20822   1.772   1.628   8.202 -0.3542  0.7448 -1.2487
  182SOPE  H15S20823   1.711   1.470   8.151  0.2690 -0.8920  1.2339
  182SOPE  C21620824   1.641   1.549   8.353 -0.4066  0.5828  0.3433
  182SOPE  H16R20825   1.706   1.471   8.398  0.1766 -0.7856 -2.6579
  182SOPE  H16S20826   1.535   1.519   8.362 -0.5792  1.3719  1.1860
  182SOPE  C21720827   1.677   1.682   8.430  0.2852 -0.2101  0.7236
  182SOPE  H17R20828   1.626   1.766   8.377  1.2889  0.4916  0.8326
  182SOPE  H17S20829   1.787   1.692   8.417  0.5104  0.8233  2.9812
  182SOPE  C21820830   1.648   1.675   8.581  0.4272 -0.4511  0.8633
  182SOPE  H18R20831   1.540   1.650   8.592  0.2093 -0.3948 -0.9016
  182SOPE  H18S20832   1.665   1.769   8.637  1.8065  0.3286 -0.7563
  182SOPE  H18T20833   1.700   1.591   8.632  2.0465  1.4923  2.6097
  182SOPE   C3320834   0.549   1.512   7.027 -0.1730  0.0707 -0.0959
  182SOPE   H3X20835   0.595   1.610   7.054 -0.7928 -0.1725  2.0768
  182SOPE   H3Y20836   0.632   1.442   7.006 -1.1838 -1.3136  0.4033
  182SOPE   C3420837   0.471   1.466   7.145  0.1504  0.5411 -0.4224
  182SOPE   H4X20838   0.425   1.366   7.130 -0.5884  0.7108  0.6671
  182SOPE   H4Y20839   0.385   1.533   7.164 -0.3671 -0.2726  0.1399
  182SOPE   C3520840   0.555   1.459   7.273 -0.6675 -0.7064  0.5849
  182SOPE   H5X20841   0.599   1.558   7.298 -1.4231  0.6808 -2.9872
  182SOPE   H5Y20842   0.635   1.389   7.241 -1.0509 -0.8149 -0.1573
  182SOPE   C3620843   0.493   1.399   7.403 -0.1295 -0.7393  1.1197
  182SOPE   H6X20844   0.470   1.291   7.391  2.5558 -1.2388 -0.3988
  182SOPE   H6Y20845   0.397   1.452   7.418 -3.0037 -5.0303 -0.1860
  182SOPE   C3720846   0.584   1.405   7.529  0.3958 -0.2274 -0.3281
  182SOPE   H7X20847   0.589   1.512   7.558 -0.0387  0.0383 -1.1918
  182SOPE   H7Y20848   0.690   1.384   7.503  0.1950 -0.5830 -0.8799
  182SOPE   C3820849   0.521   1.333   7.651 -0.4425  0.1521 -0.0466
  182SOPE   H8X20850   0.527   1.222   7.645  1.8003  0.0018  2.8614
  182SOPE   H8Y20851   0.416   1.368   7.645 -0.2432  0.7800  0.0883
  182SOPE   C3920852   0.579   1.381   7.786 -0.1151 -0.3917 -0.7204
  182SOPE   H9X20853   0.493   1.386   7.856  0.8850  2.5307  0.4694
  182SOPE   H9Y20854   0.619   1.485   7.783  0.4715 -0.5436  1.0513
  182SOPE  C31020855   0.693   1.297   7.840 -0.3815 -0.0202  0.6497
  182SOPE  H10X20856   0.724   1.353   7.931 -0.5367  0.6486  0.2966
  182SOPE  H10Y20857   0.774   1.294   7.764 -0.3257  0.3876  0.6938
  182SOPE  C31120858   0.643   1.162   7.894  0.0150  0.1048  1.0469
  182SOPE  H11X20859   0.613   1.092   7.813  1.7046 -1.0739  1.3933
  182SOPE  H11Y20860   0.548   1.177   7.948  0.0483  0.6045  0.9732
  182SOPE  C31220861   0.741   1.088   7.980 -0.2989 -0.4100 -0.1905
  182SOPE  H12X20862   0.756   1.135   8.080  1.9277 -1.8053  0.2055
  182SOPE  H12Y20863   0.841   1.087   7.932 -0.6452 -0.4820 -0.9216
  182SOPE  C31320864   0.703   0.943   7.993 -0.1754 -0.3328 -0.9994
  182SOPE  H13X20865   0.666   0.895   7.900 -0.4671 -4.3738  0.9767
  182SOPE  H13Y20866   0.617   0.938   8.064  1.8292 -1.4691  1.5106
  182SOPE  C31420867   0.814   0.852   8.045  0.9030 -0.0777 -0.6063
  182SOPE  H14X20868   0.904   0.868   7.981  1.3799  2.0239  0.5163
  182SOPE  H14Y20869   0.781   0.746   8.053 -1.0157  0.5513  0.4384
  182SOPE  C31520870   0.863   0.887   8.191 -0.2184 -0.8627 -0.0143
  182SOPE  H15X20871   0.888   0.993   8.210 -1.7558  0.0916 -2.7063
  182SOPE  H15Y20872   0.960   0.833   8.193  1.5305  2.1025  0.8870
  182SOPE  C31620873   0.769   0.851   8.295  0.6306  0.0543  0.0508
  182SOPE  H16X20874   0.762   0.740   8.293 -2.1262  0.1569  0.3598
  182SOPE  H16Y20875   0.668   0.894   8.277  0.4311  0.2135  1.4172
  182SOPE  C31720876   0.820   0.880   8.437  0.1987  0.0178 -0.5745
  182SOPE  H17X20877   0.737   0.850   8.505 -0.1782  0.5646 -0.7819
  182SOPE  H17Y20878   0.840   0.988   8.451 -0.4615  0.4228 -2.4255
  182SOPE  C31820879   0.942   0.797   8.474 -0.2407 -0.5487  0.1493
  182SOPE  H18X20880   0.974   0.805   8.580  0.6856 -2.2132  0.0316
  182SOPE  H18Y20881   1.021   0.829   8.403 -1.7134  1.8789 -0.5152
  182SOPE  H18Z20882   0.930   0.689   8.451  1.0345 -0.9219  1.1184
  183SOPE     N20883   2.200   4.918   5.980  0.1846  0.4093 -0.7878
  183SOPE   HN120884   2.142   4.909   6.066 -0.5884  2.2699 -1.0611
  183SOPE   HN220885   2.189   5.018   5.953  0.5017  1.3670  2.2522
  183SOPE   HN320886   2.159   4.859   5.905 -1.6595 -0.5820  0.9201
  183SOPE   C1220887   2.331   4.868   6.022 -0.4239  0.0340 -0.1173
  183SOPE  H12A20888   2.400   4.936   5.967 -1.6086  1.1647 -0.2585
  183SOPE  H12B20889   2.344   4.760   6.001 -2.1341 -0.0325 -1.0347
  183SOPE   C1120890   2.351   4.893   6.176  0.0152 -0.5862 -0.3915
  183SOPE  H11A20891   2.460   4.909   6.192 -0.0615  1.5486 -1.7024
  183SOPE  H11B20892   2.329   4.805   6.241  0.6061 -0.3829  0.0927
  183SOPE     P20893   2.351   5.152   6.255 -0.0976 -0.1194 -0.0258
  183SOPE   O1320894   2.248   5.252   6.247  0.7058 -0.3972 -0.7388
  183SOPE   O1420895   2.464   5.160   6.162  0.2871  0.3922  0.2116
  183SOPE   O1220896   2.278   5.009   6.223 -0.1359 -0.4194  0.4404
  183SOPE   O1120897   2.401   5.119   6.404 -0.2913 -0.4240  0.5295
  183SOPE    C120898   2.308   5.081   6.501  0.7971  0.1492  0.5351
  183SOPE    HA20899   2.355   5.007   6.569 -0.5100 -0.9842  0.2424
  183SOPE    HB20900   2.226   5.021   6.455  1.3836  1.5488 -2.5714
  183SOPE    C220901   2.252   5.200   6.588  0.6133  0.7652 -0.5098
  183SOPE    HS20902   2.192   5.261   6.518  1.2208  2.7799  0.6586
  183SOPE   O2120903   2.361   5.275   6.642 -0.4453  0.2548  0.4390
  183SOPE   C2120904   2.327   5.403   6.671 -0.7102  0.7096  0.1206
  183SOPE   O2220905   2.243   5.464   6.603 -0.0628 -0.1288  0.5361
  183SOPE   C2220906   2.403   5.460   6.794 -0.4374 -0.8380 -0.1759
  183SOPE   H2R20907   2.356   5.560   6.809  0.9585 -0.1361 -0.2473
  183SOPE   H2S20908   2.509   5.472   6.764 -0.0451 -2.5776  0.4292
  183SOPE    C320909   2.152   5.148   6.698 -0.3687  0.4880 -0.4498
  183SOPE    HX20910   2.222   5.087   6.759 -0.8442  0.7251  0.3578
  183SOPE    HY20911   2.076   5.081   6.654  0.8862 -0.3681 -1.3750
  183SOPE   O3120912   2.104   5.253   6.785  0.3166 -0.6908 -0.3456
  183SOPE   C3120913   1.993   5.318   6.743  0.1667 -0.3694 -0.1456
  183SOPE   O3220914   1.921   5.293   6.649 -0.3160 -0.5796  0.1364
  183SOPE   C3220915   1.968   5.418   6.850 -0.2103 -0.3040  0.0095
  183SOPE   H2X20916   2.061   5.477   6.862  0.6135 -1.8765  1.8284
  183SOPE   H2Y20917   1.946   5.385   6.954 -0.5215 -0.3376 -0.0654
  183SOPE   C2320918   2.380   5.383   6.918 -0.4623 -0.3062 -0.4591
  183SOPE   H3R20919   2.454   5.300   6.924 -1.5879 -1.2251  3.3994
  183SOPE   H3S20920   2.278   5.340   6.923 -1.0655  1.2282  2.5245
  183SOPE   C2420921   2.388   5.465   7.047  0.4398 -0.6727  0.0385
  183SOPE   H4R20922   2.481   5.524   7.059  0.2160  0.0748 -1.6435
  183SOPE   H4S20923   2.308   5.542   7.056  0.9090 -0.0499 -1.0088
  183SOPE   C2520924   2.377   5.373   7.170  0.4906  0.3310 -0.6887
  183SOPE   H5R20925   2.318   5.281   7.150 -0.2692  0.1699  1.8805
  183SOPE   H5S20926   2.480   5.335   7.186 -0.0172 -0.1443  1.9783
  183SOPE   C2620927   2.328   5.439   7.301  0.7216  0.3289  0.7209
  183SOPE   H6R20928   2.362   5.391   7.395  0.7066  1.3602  1.2655
  183SOPE   H6S20929   2.382   5.537   7.296 -1.7508  1.7490  0.1915
  183SOPE   C2720930   2.175   5.455   7.314  0.1608 -0.3677 -0.2773
  183SOPE   H7R20931   2.151   5.556   7.274 -0.9377 -0.7571 -0.6182
  183SOPE   H7S20932   2.128   5.389   7.238  0.0294  0.4211 -0.8983
  183SOPE   C2820933   2.112   5.431   7.455 -0.0188  0.6270 -0.0100
  183SOPE   H8R20934   2.001   5.442   7.462 -0.2464 -1.5990  0.5562
  183SOPE   H8S20935   2.134   5.324   7.476 -1.3917  0.2399 -0.3880
  183SOPE   C2920936   2.172   5.529   7.549 -0.4397  0.2854 -0.8212
  183SOPE   H9120937   2.205   5.625   7.508  7.0513 -1.3349 -0.0318
  183SOPE  C21020938   2.185   5.502   7.683  0.1811 -0.5000  0.0253
  183SOPE  H10120939   2.225   5.572   7.757  0.8719  0.7744 -1.4807
  183SOPE  C21120940   2.154   5.375   7.753  0.3153 -0.0946 -0.0083
  183SOPE  H11R20941   2.239   5.305   7.761 -0.1072 -0.4912  1.3129
  183SOPE  H11S20942   2.081   5.313   7.696 -0.5083  1.2120 -0.4364
  183SOPE  C21220943   2.097   5.404   7.903  0.5588  0.8124  0.2841
  183SOPE  H12R20944   2.068   5.308   7.951  0.8425  1.8323  2.6238
  183SOPE  H12S20945   2.007   5.469   7.895  1.2509  1.7837  0.1074
  183SOPE  C21320946   2.192   5.478   8.001 -0.2091 -0.6259 -0.2614
  183SOPE  H13R20947   2.177   5.586   7.984 -1.9128 -1.1554 -2.4666
  183SOPE  H13S20948   2.296   5.443   7.983  0.2426  0.2831  0.4920
  183SOPE  C21420949   2.158   5.439   8.143 -0.1635  0.2762  0.0659
  183SOPE  H14R20950   2.230   5.488   8.212  1.0400 -0.7150 -0.4667
  183SOPE  H14S20951   2.195   5.336   8.158 -0.4288 -0.0497 -1.3802
  183SOPE  C21520952   2.015   5.478   8.188 -0.3363  0.0632 -0.1888
  183SOPE  H15R20953   1.951   5.416   8.123  1.4592 -0.8008 -1.2299
  183SOPE  H15S20954   1.992   5.587   8.187 -2.0978 -0.2849 -0.0045
  183SOPE  C21620955   1.978   5.439   8.330 -0.1353  0.2838 -0.8390
  183SOPE  H16R20956   1.884   5.488   8.361 -0.7969 -1.1402 -0.5408
  183SOPE  H16S20957   2.062   5.476   8.392 -0.5158 -1.0175  0.4991
  183SOPE  C21720958   1.976   5.292   8.351  0.0209  0.4699 -0.1611
  183SOPE  H17R20959   2.076   5.253   8.321 -0.8641 -1.6512 -0.5246
  183SOPE  H17S20960   1.899   5.256   8.280 -2.1375  1.0464  1.7440
  183SOPE  C21820961   1.954   5.244   8.495 -0.2455  0.5473 -0.3965
  183SOPE  H18R20962   2.002   5.309   8.572 -0.3316  1.2057 -0.8872
  183SOPE  H18S20963   1.989   5.142   8.521 -1.1309  0.7558  1.8079
  183SOPE  H18T20964   1.844   5.252   8.509 -0.1239  0.7719  0.4922
  183SOPE   C3320965   1.858   5.516   6.807  0.1710  0.1496 -0.2586
  183SOPE   H3X20966   1.768   5.453   6.823  0.0801  0.7232  1.8216
  183SOPE   H3Y20967   1.865   5.533   6.697 -2.5181  2.0020 -0.2516
  183SOPE   C3420968   1.842   5.650   6.890 -0.2002  0.1057  0.4587
  183SOPE   H4X20969   1.775   5.720   6.836  1.6538  0.4862 -1.4757
  183SOPE   H4Y20970   1.941   5.700   6.891  0.7092 -1.4854 -1.6202
  183SOPE   C3520971   1.795   5.638   7.037  0.2534  0.0652  0.1710
  183SOPE   H5X20972   1.801   5.531   7.069 -0.9934 -0.6039 -1.6486
  183SOPE   H5Y20973   1.685   5.655   7.043  0.1217 -0.4846 -0.5188
  183SOPE   C3620974   1.874   5.730   7.133  0.4875  0.3076  0.1369
  183SOPE   H6X20975   1.859   5.838   7.116  2.2572  0.8586  1.7663
  183SOPE   H6Y20976   1.981   5.708   7.117  0.5294 -1.0814  1.9713
  183SOPE   C3720977   1.851   5.691   7.283  0.2055  0.4071  0.4652
  183SOPE   H7X20978   1.883   5.585   7.288  2.3058  1.0276  1.8414
  183SOPE   H7Y20979   1.741   5.691   7.300  0.4957 -0.5001  2.6990
  183SOPE   C3820980   1.917   5.774   7.388  0.5158 -0.5283  0.1897
  183SOPE   H8X20981   1.910   5.875   7.343 -0.5904 -0.2095  1.0469
  183SOPE   H8Y20982   2.028   5.766   7.392  0.6498  1.3706  1.1744
  183SOPE   C3920983   1.855   5.757   7.520  0.4106  0.1451 -0.0936
  183SOPE   H9X20984   1.885   5.663   7.571  0.6588 -0.2074 -0.8552
  183SOPE   H9Y20985   1.744   5.763   7.522  0.3666 -0.6746  1.6703
  183SOPE  C31020986   1.893   5.872   7.623  0.8697 -0.0737 -0.4009
  183SOPE  H10X20987   1.840   5.961   7.580  1.5597  1.0562  1.0054
  183SOPE  H10Y20988   2.004   5.877   7.628  1.0059 -1.1314 -1.6460
  183SOPE  C31120989   1.831   5.844   7.764  0.3827 -0.3241 -0.3134
  183SOPE  H11X20990   1.730   5.798   7.757  0.2769  0.0574 -1.6001
  183SOPE  H11Y20991   1.827   5.940   7.820 -0.3599 -0.8553  0.5744
  183SOPE  C31220992   1.918   5.752   7.850  0.3662 -0.0492  0.2723
  183SOPE  H12X20993   2.025   5.775   7.830  0.0466  0.8344 -0.4737
  183SOPE  H12Y20994   1.912   5.645   7.820  0.9999  0.1506 -0.6076
  183SOPE  C31320995   1.893   5.771   7.996  0.4034  0.2992 -0.7440
  183SOPE  H13X20996   1.862   5.874   8.024  0.7227 -0.6175  3.6352
  183SOPE  H13Y20997   1.984   5.754   8.057  0.4496 -0.8655 -1.1088
  183SOPE  C31420998   1.781   5.668   8.051 -0.5929 -0.5538 -0.2311
  183SOPE  H14X20999   1.819   5.564   8.044  1.1674  0.0945 -1.2573
  183SOPE  H14Y21000   1.689   5.668   7.989  0.7932  0.2234 -2.4239
  183SOPE  C31521001   1.730   5.703   8.188 -0.5000 -0.1613 -0.2766
  183SOPE  H15X21002   1.679   5.800   8.169  1.6291  0.7375 -1.7623
  183SOPE  H15Y21003   1.807   5.711   8.268  0.0745  0.0719 -0.8481
  183SOPE  C31621004   1.632   5.598   8.231  0.1972  0.6768  0.1064
  183SOPE  H16X21005   1.671   5.502   8.272 -1.5675 -1.0333 -2.0058
  183SOPE  H16Y21006   1.569   5.566   8.146  0.0401  4.4318 -1.3768
  183SOPE  C31721007   1.528   5.646   8.341 -0.1694 -0.0043 -0.3089
  183SOPE  H17X21008   1.465   5.556   8.361 -1.3436  0.3675 -2.0486
  183SOPE  H17Y21009   1.476   5.726   8.283  0.3216 -0.4500 -1.3827
  183SOPE  C31821010   1.591   5.699   8.470 -0.0819  0.0135  0.0849
  183SOPE  H18X21011   1.517   5.717   8.551 -0.3047  3.5625 -0.7206
  183SOPE  H18Y21012   1.642   5.795   8.448  1.8557 -1.0316 -0.1305
  183SOPE  H18Z21013   1.667   5.626   8.504 -0.6751 -0.7872 -0.2793
  184SOPE     N21014   2.037   6.168   6.398 -0.5887 -0.2235  0.1387
  184SOPE   HN121015   1.999   6.117   6.480 -2.5502  0.8583 -0.0372
  184SOPE   HN221016   2.090   6.100   6.340 -2.0923 -0.8201 -0.5917
  184SOPE   HN321017   2.087   6.251   6.435 -1.0077 -0.6615  1.7767
  184SOPE   C1221018   1.922   6.202   6.305 -0.4086 -0.3723  0.0645
  184SOPE  H12A21019   1.864   6.108   6.300 -0.4441 -0.2899 -1.5064
  184SOPE  H12B21020   1.965   6.231   6.207  0.0604  0.7436  0.5773
  184SOPE   C1121021   1.833   6.312   6.362  0.5836  0.5188 -0.5150
  184SOPE  H11A21022   1.893   6.399   6.397 -0.7306  1.3324 -0.1755
  184SOPE  H11B21023   1.780   6.281   6.455  2.8521 -1.4450  0.2197
  184SOPE     P21024   1.603   6.276   6.244  0.6960 -0.1635  0.3945
  184SOPE   O1321025   1.646   6.137   6.204  0.1114 -0.8678 -0.1968
  184SOPE   O1421026   1.512   6.356   6.158 -0.1268  0.1220  0.0657
  184SOPE   O1221027   1.731   6.359   6.272  0.4071 -0.1615  0.4088
  184SOPE   O1121028   1.535   6.281   6.389  0.4127  0.3712 -0.2556
  184SOPE    C121029   1.519   6.400   6.467  0.3114  0.5742  0.4457
  184SOPE    HA21030   1.461   6.478   6.413  0.2990 -0.1423 -0.6001
  184SOPE    HB21031   1.609   6.458   6.496  0.2550  1.2553 -0.6672
  184SOPE    C221032   1.443   6.358   6.600 -0.1402 -0.8663 -0.2391
  184SOPE    HS21033   1.449   6.444   6.669  0.0884 -0.5570 -0.6407
  184SOPE   O2121034   1.485   6.237   6.663 -0.1222 -0.7075  0.1590
  184SOPE   C2121035   1.610   6.236   6.703 -0.1569  0.1381 -0.3147
  184SOPE   O2221036   1.684   6.333   6.721 -0.1464  0.1694 -0.2602
  184SOPE   C2221037   1.646   6.089   6.740  0.4973  0.4019  0.0037
  184SOPE   H2R21038   1.680   6.048   6.642  0.2217  0.6271 -0.1855
  184SOPE   H2S21039   1.558   6.032   6.777 -0.2040  2.0605  0.9617
  184SOPE    C321040   1.296   6.352   6.568  0.1258 -0.3884  0.6268
  184SOPE    HX21041   1.266   6.278   6.490  0.8545 -1.1641  1.0693
  184SOPE    HY21042   1.284   6.454   6.527 -2.7910 -0.3001  1.4371
  184SOPE   O3121043   1.211   6.344   6.688 -0.3030 -0.1978  0.0540
  184SOPE   C3121044   1.202   6.222   6.742 -0.8365  0.2719  0.3842
  184SOPE   O3221045   1.238   6.122   6.680  0.4968  0.0710 -0.2914
  184SOPE   C3221046   1.132   6.234   6.875  0.0715  0.1169  0.6295
  184SOPE   H2X21047   1.056   6.314   6.877 -0.0414  0.2268 -2.3633
  184SOPE   H2Y21048   1.206   6.271   6.950 -1.7252  2.0278  1.5475
  184SOPE   C2321049   1.762   6.074   6.836 -0.3008 -1.1538  0.1736
  184SOPE   H3R21050   1.821   6.168   6.842 -2.1184 -0.0043  0.6351
  184SOPE   H3S21051   1.835   5.997   6.802 -0.8869 -0.0766 -4.2043
  184SOPE   C2421052   1.704   6.060   6.978  0.1255  0.5714  0.7438
  184SOPE   H4R21053   1.639   5.970   6.972 -0.7268  1.1593  1.0846
  184SOPE   H4S21054   1.784   6.012   7.039  1.3394  1.7008  0.1033
  184SOPE   C2521055   1.625   6.162   7.049 -0.1954  0.3710 -0.3276
  184SOPE   H5R21056   1.708   6.234   7.060 -0.6302  1.0039 -1.1457
  184SOPE   H5S21057   1.543   6.216   6.997 -2.8262 -2.6230  0.3800
  184SOPE   C2621058   1.581   6.109   7.190 -0.0312  1.2350  0.0654
  184SOPE   H6R21059   1.478   6.148   7.202 -1.0989 -1.1117 -0.8065
  184SOPE   H6S21060   1.560   6.000   7.177  1.7252  0.8062  0.5768
  184SOPE   C2721061   1.668   6.135   7.312  0.5299 -0.4209  0.6129
  184SOPE   H7R21062   1.768   6.092   7.288  0.0134 -2.5503  1.9778
  184SOPE   H7S21063   1.682   6.244   7.325 -0.6450  0.0192 -1.4757
  184SOPE   C2821064   1.613   6.065   7.436  0.1034  0.6193  0.2354
  184SOPE   H8R21065   1.614   5.956   7.416 -1.3056  0.5315  0.5101
  184SOPE   H8S21066   1.682   6.090   7.519  1.1888  0.6084 -0.6483
  184SOPE   C2921067   1.470   6.112   7.471 -0.0417  0.6831  0.2340
  184SOPE   H9121068   1.400   6.080   7.392  0.9719 -1.4193  0.1197
  184SOPE  C21021069   1.426   6.171   7.580  0.3028 -0.0608 -0.2281
  184SOPE  H10121070   1.319   6.196   7.576  0.6441  1.6949  0.5137
  184SOPE  C21121071   1.501   6.209   7.707 -0.1985  0.5832  0.0739
  184SOPE  H11R21072   1.471   6.312   7.737  2.8378  1.0980  1.8279
  184SOPE  H11S21073   1.611   6.203   7.690 -0.0923 -2.8507  1.3363
  184SOPE  C21221074   1.477   6.117   7.825 -0.6426  0.3732  0.6704
  184SOPE  H12R21075   1.484   6.014   7.785 -2.0655  0.6593 -0.4184
  184SOPE  H12S21076   1.372   6.134   7.857 -1.9113 -0.7323 -2.4267
  184SOPE  C21321077   1.582   6.133   7.941  0.3230 -0.7950  0.1530
  184SOPE  H13R21078   1.596   6.242   7.958 -2.4748 -0.7581  3.2275
  184SOPE  H13S21079   1.673   6.091   7.892  2.6495  0.5785  2.9642
  184SOPE  C21421080   1.541   6.062   8.067  0.1341  0.7446 -0.1399
  184SOPE  H14R21081   1.525   5.958   8.032  2.6058  0.8260 -1.7271
  184SOPE  H14S21082   1.441   6.078   8.113 -0.4559 -1.6816 -0.4677
  184SOPE  C21521083   1.650   6.069   8.173  0.1631 -0.7252  0.5861
  184SOPE  H15R21084   1.749   6.027   8.146  0.7607 -0.0696  1.6735
  184SOPE  H15S21085   1.611   5.993   8.244  0.8097 -0.2145  1.5072
  184SOPE  C21621086   1.657   6.218   8.212  0.6202 -0.9705 -0.2175
  184SOPE  H16R21087   1.552   6.243   8.237  0.7953  1.3568 -1.5250
  184SOPE  H16S21088   1.682   6.288   8.130 -0.1750  1.3492  1.3912
  184SOPE  C21721089   1.754   6.244   8.323 -0.3814 -0.4505  0.2586
  184SOPE  H17R21090   1.753   6.161   8.397  0.1992  0.2735  1.0872
  184SOPE  H17S21091   1.724   6.339   8.373  3.3938  1.5493 -0.9154
  184SOPE  C21821092   1.890   6.269   8.269  0.2582  0.4841  0.6981
  184SOPE  H18R21093   1.911   6.359   8.208 -2.6934  0.1885 -0.9094
  184SOPE  H18S21094   1.927   6.180   8.214  0.8535  0.6839  0.7680
  184SOPE  H18T21095   1.963   6.266   8.353 -1.0039 -0.0746  1.8217
  184SOPE   C3321096   1.074   6.105   6.936 -0.3628 -0.5546  0.7582
  184SOPE   H3X21097   1.144   6.019   6.934  1.5900  0.9120  2.0445
  184SOPE   H3Y21098   0.984   6.072   6.879  0.8243 -1.0319 -0.9253
  184SOPE   C3421099   1.041   6.127   7.084  0.2668 -0.1856 -0.1619
  184SOPE   H4X21100   0.951   6.192   7.086  0.8420  0.7493 -2.2483
  184SOPE   H4Y21101   1.119   6.170   7.150  0.5223 -0.6165 -0.1803
  184SOPE   C3521102   0.993   6.003   7.156  1.0125  0.3712  0.0701
  184SOPE   H5X21103   1.077   5.931   7.163  1.3396  0.5972 -1.1880
  184SOPE   H5Y21104   0.910   5.954   7.101  0.1215 -0.1445  1.8115
  184SOPE   C3621105   0.949   6.025   7.304 -0.0094 -0.2280 -0.4646
  184SOPE   H6X21106   0.875   5.950   7.337  0.6145  0.4290  2.7803
  184SOPE   H6Y21107   0.895   6.122   7.307  0.1140 -0.1234 -1.3678
  184SOPE   C3721108   1.059   6.031   7.411 -0.2472  0.5326  0.0454
  184SOPE   H7X21109   1.129   6.111   7.379  0.1365 -0.5346 -1.9358
  184SOPE   H7Y21110   1.116   5.937   7.428  1.1934  1.6420  1.8959
  184SOPE   C3821111   0.989   6.074   7.543  0.5067 -0.6558  0.2797
  184SOPE   H8X21112   0.949   5.979   7.583 -1.7925  0.3876  0.6031
  184SOPE   H8Y21113   0.892   6.126   7.526 -0.2284 -1.4889  1.7743
  184SOPE   C3921114   1.074   6.142   7.646  0.4526  0.0302 -0.6461
  184SOPE   H9X21115   1.120   6.224   7.587 -0.9563  0.7935 -0.7219
  184SOPE   H9Y21116   1.140   6.067   7.695 -1.2730 -0.0837  1.6415
  184SOPE  C31021117   0.989   6.213   7.758  0.3852 -0.0583  0.2716
  184SOPE  H10X21118   0.954   6.129   7.822 -2.0291  0.5916 -0.0970
  184SOPE  H10Y21119   0.895   6.248   7.710  0.8423  0.1111 -0.5172
  184SOPE  C31121120   1.055   6.336   7.824 -1.0657 -0.4504 -0.0245
  184SOPE  H11X21121   1.080   6.412   7.747  1.1823 -0.9418  0.1578
  184SOPE  H11Y21122   1.153   6.304   7.866 -1.4901  0.8987  2.2024
  184SOPE  C31221123   0.981   6.399   7.939 -0.6635 -0.6133  0.3017
  184SOPE  H12X21124   0.879   6.411   7.896 -0.6237 -0.2096  0.3107
  184SOPE  H12Y21125   1.001   6.506   7.964  2.1720 -1.2899  1.2639
  184SOPE  C31321126   0.963   6.318   8.070  0.8559  0.4996  0.1365
  184SOPE  H13X21127   1.063   6.316   8.118  1.1618 -1.6430 -0.4887
  184SOPE  H13Y21128   0.936   6.214   8.045  0.9908  0.6305 -0.5745
  184SOPE  C31421129   0.857   6.373   8.170 -0.6824 -0.2139 -0.1210
  184SOPE  H14X21130   0.757   6.371   8.121 -1.5001 -1.5883  1.5031
  184SOPE  H14Y21131   0.883   6.480   8.183 -1.4229 -0.0673  0.2327
  184SOPE  C31521132   0.854   6.300   8.301  0.3564 -0.5275 -0.7652
  184SOPE  H15X21133   0.958   6.314   8.337  0.6263 -1.4852 -1.1670
  184SOPE  H15Y21134   0.834   6.192   8.291 -1.4498 -0.3536  0.3994
  184SOPE  C31621135   0.749   6.352   8.410  0.0566  0.4583 -0.0264
  184SOPE  H16X21136   0.765   6.461   8.418 -0.9004  0.4717  2.5772
  184SOPE  H16Y21137   0.776   6.307   8.508 -0.2540  0.5507  0.0997
  184SOPE  C31721138   0.601   6.325   8.374 -0.9622 -0.1273  0.2350
  184SOPE  H17X21139   0.593   6.216   8.357 -1.4918  0.1847 -1.7572
  184SOPE  H17Y21140   0.572   6.376   8.279 -0.6429 -2.1848 -1.0219
  184SOPE  C31821141   0.503   6.354   8.492 -0.1228 -0.2551  0.5839
  184SOPE  H18X21142   0.403   6.346   8.446  0.2459  0.1044 -0.3198
  184SOPE  H18Y21143   0.518   6.459   8.527  2.0255 -0.1383 -0.4871
  184SOPE  H18Z21144   0.516   6.291   8.582  3.4609  0.6847  0.9151
  185SAPI   C1221145   3.810   3.312  11.499 -0.7275  0.3317 -0.4258
  185SAPI    H221146   3.899   3.357  11.548  0.3540 -0.9053 -1.2103
  185SAPI    O221147   3.831   3.173  11.478 -0.4539 -0.3804 -0.3610
  185SAPI   HO221148   3.923   3.150  11.489  0.0665  2.3026  2.0553
  185SAPI   C1321149   3.690   3.337  11.590 -0.2644  0.2415  0.1965
  185SAPI    H321150   3.688   3.447  11.601 -0.5683  0.0883  2.2102
  185SAPI    O321151   3.705   3.269  11.721  0.6095 -0.0990  0.4018
  185SAPI   HO321152   3.691   3.175  11.708 -0.1267  0.1554 -0.7925
  185SAPI   C1421153   3.566   3.291  11.515  0.0865 -0.0145 -0.0159
  185SAPI    H421154   3.574   3.183  11.487  0.4320  0.5261 -2.1264
  185SAPI    O421155   3.451   3.298  11.595  0.2630  0.5079 -0.0846
  185SAPI   HO421156   3.463   3.249  11.676  0.2432  0.8043  0.1001
  185SAPI   C1521157   3.550   3.373  11.381  0.2677 -0.3170 -0.0894
  185SAPI    H521158   3.544   3.483  11.395  1.0795  0.1069 -2.6505
  185SAPI    O521159   3.438   3.323  11.314 -0.3054  0.1206  0.2849
  185SAPI   HO521160   3.398   3.401  11.276 -0.3797  0.6932  1.4920
  185SAPI   C1621161   3.671   3.362  11.290 -0.1453 -0.4533  0.3302
  185SAPI    H621162   3.675   3.261  11.245 -0.6428 -1.0735  1.6042
  185SAPI    O621163   3.657   3.443  11.179  0.6266 -0.1908  0.5290
  185SAPI   HO621164   3.745   3.459  11.143  0.3203 -1.9832 -1.1704
  185SAPI   C1121165   3.804   3.396  11.374  0.4180  0.6278  0.0840
  185SAPI    H121166   3.780   3.497  11.412 -2.0908  0.0046  0.3268
  185SAPI     P21167   4.000   3.532  11.238  0.2151  0.1878 -0.3907
  185SAPI   O1321168   4.145   3.525  11.205 -0.8701  0.0479 -0.1496
  185SAPI   O1421169   3.955   3.655  11.310 -0.0979  0.5306 -0.2226
  185SAPI   O1221170   3.935   3.390  11.303  0.1700 -0.3853 -0.7134
  185SAPI   O1121171   3.927   3.534  11.101 -0.2524  0.3941 -0.0649
  185SAPI    C121172   3.957   3.440  10.998 -0.1359  0.1299  0.5456
  185SAPI    HA21173   4.067   3.431  10.990 -0.0138  1.4215  0.4958
  185SAPI    HB21174   3.907   3.344  11.021 -2.2308  0.7164 -1.2656
  185SAPI    C221175   3.914   3.500  10.862 -0.2622  0.0985 -0.1667
  185SAPI    HS21176   3.983   3.586  10.853  0.9158 -0.9249 -1.3656
  185SAPI   O2121177   3.776   3.530  10.879  0.1216 -0.1642  0.2818
  185SAPI   C2121178   3.726   3.639  10.815 -0.1216 -0.5446 -0.6325
  185SAPI   O2221179   3.786   3.710  10.739 -0.6320 -0.4599 -0.0233
  185SAPI   C2221180   3.579   3.673  10.852 -0.1216  0.2774 -0.5570
  185SAPI   H2R21181   3.569   3.627  10.953  1.2281 -1.0440 -0.9828
  185SAPI   H2S21182   3.563   3.782  10.861  1.1775  0.5362 -1.2323
  185SAPI    C321183   3.944   3.391  10.759  0.8517 -0.1554 -0.9589
  185SAPI    HX21184   3.889   3.302  10.796  3.2267 -1.6676 -0.8656
  185SAPI    HY21185   4.053   3.372  10.766  0.2706 -3.5325  0.8351
  185SAPI   O3121186   3.906   3.431  10.622  0.6834  0.6920 -0.4842
  185SAPI   C3121187   4.000   3.508  10.558 -0.1700  0.0127  0.5261
  185SAPI   O3221188   4.098   3.550  10.614 -0.0736 -0.3797  0.2058
  185SAPI   C3221189   3.962   3.522  10.412  0.3617  0.5670 -0.3470
  185SAPI   H2X21190   3.851   3.528  10.413  0.2743 -0.6958 -0.9291
  185SAPI   H2Y21191   3.977   3.422  10.367 -1.7893 -0.2421  0.6314
  185SAPI   C2321192   3.474   3.596  10.764  0.8259  0.5623 -0.6664
  185SAPI   H3R21193   3.373   3.610  10.810  1.7159  0.0362  1.5820
  185SAPI   H3S21194   3.498   3.489  10.779 -1.2733 -0.1138 -1.6551
  185SAPI   C2421195   3.485   3.631  10.615 -0.3294  0.1428 -0.1353
  185SAPI   H4R21196   3.417   3.562  10.561  0.1658  0.6487 -1.4394
  185SAPI   H4S21197   3.586   3.600  10.582 -0.1217  1.1715 -0.4964
  185SAPI   C2521198   3.442   3.777  10.588 -0.9833  0.4004  0.0600
  185SAPI   H5R21199   3.466   3.858  10.659 -1.0699  2.1004 -1.7698
  185SAPI   C2621200   3.377   3.821  10.479 -0.4015 -0.0452 -0.7571
  185SAPI   H6R21201   3.352   3.928  10.475 -0.2512  0.0601  0.6045
  185SAPI   C2721202   3.329   3.735  10.369  0.1930  0.3033 -0.1920
  185SAPI   H7R21203   3.379   3.636  10.378  0.4405  0.2959 -1.4493
  185SAPI   H7S21204   3.359   3.783  10.273  1.7557 -0.2527 -0.0108
  185SAPI   C2821205   3.179   3.706  10.372  0.0873  0.5668  0.3896
  185SAPI   H8R21206   3.141   3.620  10.430  1.6802 -1.3443 -1.2101
  185SAPI   C2921207   3.091   3.773  10.295 -0.1334 -0.1692 -0.1838
  185SAPI   H9R21208   2.986   3.743  10.294  0.1293 -1.1232 -0.5876
  185SAPI  C21021209   3.124   3.888  10.207 -0.5882  0.0534  0.6181
  185SAPI  H10R21210   3.162   3.836  10.116 -1.7482  1.2305 -0.5728
  185SAPI  H10S21211   3.215   3.941  10.242  0.3825 -2.1557  1.6654
  185SAPI  C21121212   3.021   3.991  10.179 -0.1321  0.6054 -0.0103
  185SAPI  H11R21213   2.940   3.980  10.253  0.3763  0.4558  0.5412
  185SAPI  C21221214   3.000   4.075  10.076  0.2271  0.4169 -0.3003
  185SAPI  H12R21215   2.911   4.140  10.088 -0.2906 -0.4165  0.4852
  185SAPI  C21321216   3.084   4.093   9.953 -0.3661  0.3043  0.0636
  185SAPI  H13R21217   3.176   4.032   9.946  0.2198  1.3392 -2.0500
  185SAPI  H13S21218   3.120   4.198   9.954  1.6913 -0.3243  2.1095
  185SAPI  C21421219   2.994   4.062   9.842 -0.0067 -0.5214  0.4192
  185SAPI  H14R21220   2.888   4.035   9.859 -0.5179  0.6080 -0.7938
  185SAPI  C21521221   3.050   4.066   9.717  0.6966  0.2574  0.3438
  185SAPI  H15R21222   2.981   4.046   9.633  2.1611 -1.3817 -0.5233
  185SAPI  C21621223   3.198   4.081   9.682  0.9836  0.4030  0.0770
  185SAPI  H16R21224   3.225   4.029   9.588 -0.1732  1.2973 -0.7800
  185SAPI  H16S21225   3.249   4.018   9.759  0.0577 -0.6845 -0.1669
  185SAPI  C21721226   3.247   4.221   9.660 -0.6309 -0.1289  0.5957
  185SAPI  H17R21227   3.354   4.219   9.632 -1.2091 -0.9509 -1.8734
  185SAPI  H17S21228   3.227   4.279   9.753  1.5186 -0.6355  1.4335
  185SAPI  C21821229   3.171   4.287   9.542  0.2343  0.3358  0.6800
  185SAPI  H18R21230   3.199   4.394   9.544  2.0971 -0.1255  0.8094
  185SAPI  H18S21231   3.062   4.278   9.563  0.6290 -0.8638  2.4053
  185SAPI  C21921232   3.190   4.229   9.400 -0.4668 -0.4747 -0.2129
  185SAPI  H19R21233   3.169   4.120   9.394  1.8622 -1.1519  2.1071
  185SAPI  H19S21234   3.298   4.217   9.375 -0.4174 -1.2477  0.3354
  185SAPI  C22021235   3.118   4.315   9.299 -0.4479 -0.5097  0.6920
  185SAPI  H20R21236   3.154   4.420   9.305 -0.4140 -0.5516  1.2093
  185SAPI  H20S21237   3.008   4.321   9.317 -0.2732  1.7720  1.3092
  185SAPI  H20T21238   3.151   4.278   9.199  0.2145 -0.4365  0.8799
  185SAPI   C3321239   4.035   3.630  10.330  0.0606 -0.3083 -0.5598
  185SAPI   H3X21240   4.020   3.731  10.374  0.5355  0.1477 -1.4108
  185SAPI   H3Y21241   3.995   3.638  10.227  1.3658 -0.7236 -1.1290
  185SAPI   C3421242   4.183   3.594  10.315  0.8537 -0.3834  0.5285
  185SAPI   H4X21243   4.202   3.487  10.290  0.1817 -0.3637 -0.0689
  185SAPI   H4Y21244   4.230   3.589  10.416  2.2961 -2.3948 -0.1777
  185SAPI   C3521245   4.260   3.672  10.213 -0.0289  0.6841 -0.1574
  185SAPI   H5X21246   4.362   3.629  10.218 -0.7072 -0.8821  0.7825
  185SAPI   H5Y21247   4.265   3.780  10.238 -0.3046  0.4058  1.1650
  185SAPI   C3621248   4.211   3.650  10.064  0.3480  0.0910  0.4004
  185SAPI   H6X21249   4.104   3.673  10.044 -0.0267 -2.8036 -1.4226
  185SAPI   H6Y21250   4.219   3.542  10.039 -1.2478 -0.0028  0.2235
  185SAPI   C3721251   4.298   3.732   9.971 -0.4038  0.1501 -0.0176
  185SAPI   H7X21252   4.400   3.699  10.002 -1.6340 -2.6404  1.4735
  185SAPI   H7Y21253   4.280   3.841   9.981  1.7641  0.6569 -1.1029
  185SAPI   C3821254   4.280   3.697   9.822  0.0848 -0.3192 -0.2723
  185SAPI   H8X21255   4.178   3.731   9.795 -0.3007  1.0684  2.5886
  185SAPI   H8Y21256   4.290   3.589   9.799  0.5365 -0.3432  0.0206
  185SAPI   C3921257   4.382   3.785   9.738  0.5466  0.0341  0.0873
  185SAPI   H9X21258   4.475   3.743   9.781 -0.6034 -1.5973  1.0767
  185SAPI   H9Y21259   4.362   3.892   9.763  0.9202 -0.5970  3.4572
  185SAPI  C31021260   4.390   3.748   9.586  0.8142  0.4625  0.4139
  185SAPI  H10X21261   4.295   3.774   9.536 -1.4237 -0.2964  3.9163
  185SAPI  H10Y21262   4.401   3.638   9.578 -1.2778  0.2070  0.5853
  185SAPI  C31121263   4.507   3.817   9.513  0.4919 -0.0636 -0.1325
  185SAPI  H11X21264   4.596   3.765   9.556 -0.4037 -0.4711  1.2926
  185SAPI  H11Y21265   4.512   3.923   9.545 -2.3736 -0.4492  1.9774
  185SAPI  C31221266   4.510   3.812   9.360 -0.3402 -0.9116 -0.4289
  185SAPI  H12X21267   4.601   3.871   9.333 -0.4966 -0.5295 -0.1269
  185SAPI  H12Y21268   4.426   3.871   9.318  0.5363  0.5770 -0.1984
  185SAPI  C31321269   4.534   3.678   9.298 -0.9762  0.4002  0.3362
  185SAPI  H13X21270   4.455   3.608   9.331 -1.4188  0.8390  0.2230
  185SAPI  H13Y21271   4.635   3.641   9.326 -1.4615 -0.8742  0.4310
  185SAPI  C31421272   4.530   3.690   9.145  0.0388 -0.6826 -0.0996
  185SAPI  H14X21273   4.448   3.761   9.122  1.9826  1.3279 -1.3273
  185SAPI  H14Y21274   4.486   3.597   9.102  0.3039 -1.3133  0.9757
  185SAPI  C31521275   4.661   3.723   9.075 -0.9031 -0.2798  0.2361
  185SAPI  H15X21276   4.731   3.645   9.112 -4.7193 -1.8581  5.2152
  185SAPI  H15Y21277   4.684   3.824   9.114 -0.1680 -0.1306 -0.5541
  185SAPI  C31621278   4.652   3.736   8.916 -0.3750 -0.6302 -0.2023
  185SAPI  H16X21279   4.581   3.818   8.890  0.5637 -0.1475 -1.2690
  185SAPI  H16Y21280   4.606   3.644   8.874 -4.0450  0.2031  1.5281
  185SAPI  C31721281   4.795   3.773   8.857  0.3224  0.6715  0.5752
  185SAPI  H17X21282   4.877   3.707   8.892  1.3442  0.0157 -2.7009
  185SAPI  H17Y21283   4.817   3.873   8.900 -0.3422  0.6512  0.9717
  185SAPI  C31821284   4.813   3.780   8.702  0.1394  0.2568 -0.2493
  185SAPI  H18X21285   4.910   3.831   8.683 -0.0461  0.6809 -0.0716
  185SAPI  H18Y21286   4.726   3.828   8.652 -1.1671 -2.3628 -0.6403
  185SAPI  H18Z21287   4.817   3.675   8.666 -2.2625  0.2358 -0.6507
  186SAPI   C1221288   2.863   1.732  10.572  0.1827 -0.2386 -0.0035
  186SAPI    H221289   2.777   1.800  10.560 -0.1413  0.4372  4.5139
  186SAPI    O221290   2.831   1.645  10.679 -0.1649  0.0521 -0.5905
  186SAPI   HO221291   2.736   1.650  10.690 -0.0975 -0.2449  0.2388
  186SAPI   C1321292   2.890   1.651  10.446 -0.5967  0.5839 -1.4110
  186SAPI    H321293   2.921   1.726  10.370 -0.0070  1.0664 -0.7131
  186SAPI    O321294   2.768   1.602  10.395  0.6833  0.3350  0.0393
  186SAPI   HO321295   2.702   1.586  10.464 -1.0836  0.8557 -1.4323
  186SAPI   C1421296   3.002   1.549  10.463 -0.1958 -0.0037  0.4092
  186SAPI    H421297   2.979   1.481  10.548 -0.5995 -0.4834 -0.0736
  186SAPI    O421298   3.027   1.459  10.353  0.6345  0.1808 -0.2324
  186SAPI   HO421299   3.071   1.511  10.285 -2.2166  0.8843 -1.7212
  186SAPI   C1521300   3.128   1.627  10.498  0.0162  0.7026  0.1269
  186SAPI    H521301   3.158   1.688  10.409  2.6067  1.0243  1.1103
  186SAPI    O521302   3.237   1.538  10.527 -0.8261  0.0998 -0.0021
  186SAPI   HO521303   3.263   1.518  10.437 -0.8845 -0.5645  0.1237
  186SAPI   C1621304   3.101   1.724  10.618 -0.5362  0.0183  0.8404
  186SAPI    H621305   3.076   1.661  10.706 -1.5887 -0.2364  0.3725
  186SAPI    O621306   3.214   1.800  10.645 -0.7704  0.6824  0.0490
  186SAPI   HO621307   3.250   1.765  10.727  0.5429 -1.2924 -1.2676
  186SAPI   C1121308   2.984   1.820  10.601  0.1308 -0.0269  0.0738
  186SAPI    H121309   3.004   1.880  10.510 -2.1305 -1.9739 -1.8598
  186SAPI     P21310   2.890   2.047  10.690 -0.2104  0.1537  0.1603
  186SAPI   O1321311   2.886   2.121  10.821  0.5324  0.4498 -0.0685
  186SAPI   O1421312   2.759   2.027  10.625  0.3589  0.8865 -0.2638
  186SAPI   O1221313   2.963   1.905  10.714  0.4567 -0.0567 -0.1382
  186SAPI   O1121314   2.988   2.128  10.592 -0.0158 -0.3644  0.9487
  186SAPI    C121315   3.077   2.232  10.635  0.7332 -0.6876 -0.1105
  186SAPI    HA21316   3.035   2.333  10.621  0.5412 -0.9287 -1.3963
  186SAPI    HB21317   3.120   2.213  10.736  3.4927 -1.5598 -1.3393
  186SAPI    C221318   3.207   2.223  10.545 -0.6814  0.3021 -0.0642
  186SAPI    HS21319   3.271   2.305  10.585 -0.9088 -0.6875  2.5129
  186SAPI   O2121320   3.173   2.236  10.406  0.3957 -0.5236 -0.0213
  186SAPI   C2121321   3.269   2.270  10.325 -0.6794  0.1959  0.3589
  186SAPI   O2221322   3.380   2.311  10.362  0.7243 -0.0769 -0.5035
  186SAPI   C2221323   3.233   2.267  10.183 -0.1773 -0.4693  0.0846
  186SAPI   H2R21324   3.133   2.220  10.169 -0.2724 -0.2808  0.1312
  186SAPI   H2S21325   3.229   2.371  10.144 -1.8603 -0.6302 -0.2768
  186SAPI    C321326   3.271   2.082  10.577  0.0947  0.1816 -0.2029
  186SAPI    HX21327   3.205   2.000  10.541 -0.0589 -0.0204  0.5190
  186SAPI    HY21328   3.266   2.074  10.688 -2.3285 -0.5859 -0.3177
  186SAPI   O3121329   3.407   2.078  10.531 -0.3553 -0.3463  0.4554
  186SAPI   C3121330   3.433   1.985  10.436 -0.5326  0.1152 -0.6108
  186SAPI   O3221331   3.349   1.927  10.374  0.2074 -0.2313  0.2412
  186SAPI   C3221332   3.584   1.973  10.415  0.3032 -0.1616 -0.1247
  186SAPI   H2X21333   3.632   1.972  10.516 -1.2718  1.9228  0.7385
  186SAPI   H2Y21334   3.617   2.061  10.355  4.0942 -0.5419  1.1400
  186SAPI   C2321335   3.321   2.175  10.089 -0.0553  0.0086  0.1471
  186SAPI   H3R21336   3.332   2.075  10.137  0.3711 -0.1720 -0.3123
  186SAPI   H3S21337   3.418   2.224  10.063  0.0541 -0.4386 -0.3105
  186SAPI   C2421338   3.257   2.156   9.952  0.6565 -0.1767 -0.2422
  186SAPI   H4R21339   3.156   2.115   9.970  0.8551 -0.1359  1.0375
  186SAPI   H4S21340   3.319   2.087   9.891 -0.4485 -1.4814  0.0734
  186SAPI   C2521341   3.240   2.290   9.878  0.1949 -0.4484  0.6243
  186SAPI   H5R21342   3.142   2.336   9.894 -0.8332 -2.1346 -0.4378
  186SAPI   C2621343   3.317   2.339   9.783 -0.5408 -0.2050 -0.0208
  186SAPI   H6R21344   3.283   2.432   9.735 -2.0860 -0.7032  0.0830
  186SAPI   C2721345   3.451   2.272   9.745 -0.4169 -0.2963  0.5644
  186SAPI   H7R21346   3.430   2.170   9.706  3.4917 -1.1607  0.3186
  186SAPI   H7S21347   3.520   2.262   9.832  0.9487  0.5051 -0.3821
  186SAPI   C2821348   3.517   2.347   9.626  0.3567 -0.6477  0.2451
  186SAPI   H8R21349   3.611   2.399   9.648  0.2631 -0.7161  0.8139
  186SAPI   C2921350   3.475   2.350   9.495 -0.0278 -0.3732  0.1069
  186SAPI   H9R21351   3.516   2.426   9.427 -2.5618  0.5259 -0.5260
  186SAPI  C21021352   3.362   2.267   9.444 -0.1367 -0.2729  0.3096
  186SAPI  H10R21353   3.361   2.173   9.502 -0.4864  0.1671  1.0420
  186SAPI  H10S21354   3.390   2.231   9.343 -0.6990  0.5871 -0.1736
  186SAPI  C21121355   3.223   2.323   9.453  0.2579 -0.1441  0.2427
  186SAPI  H11R21356   3.157   2.270   9.523 -1.0968 -0.8320 -1.4708
  186SAPI  C21221357   3.171   2.423   9.380 -0.2680 -0.3903  0.1278
  186SAPI  H12R21358   3.064   2.449   9.382  0.3840  2.4903  1.1921
  186SAPI  C21321359   3.250   2.501   9.271  1.2104  0.8057  0.4243
  186SAPI  H13R21360   3.188   2.514   9.179 -0.5678 -0.3836  1.4020
  186SAPI  H13S21361   3.335   2.434   9.245  0.4599 -0.2021  0.5208
  186SAPI  C21421362   3.298   2.643   9.306 -0.2085 -0.0073 -0.3086
  186SAPI  H14R21363   3.336   2.645   9.409  2.5007 -0.1084 -1.2136
  186SAPI  C21521364   3.299   2.755   9.227 -0.5348 -0.1352 -0.1776
  186SAPI  H15R21365   3.341   2.848   9.268  1.1545 -0.8056 -0.3353
  186SAPI  C21621366   3.256   2.758   9.081  1.0816  0.4240  1.1886
  186SAPI  H16R21367   3.260   2.864   9.046 -0.0454 -0.2593 -1.1655
  186SAPI  H16S21368   3.154   2.715   9.067  1.4457 -0.3875  0.9999
  186SAPI  C21721369   3.351   2.688   8.978  0.4487  0.1946 -0.4993
  186SAPI  H17R21370   3.347   2.579   9.002  3.4012 -0.0729 -0.7765
  186SAPI  H17S21371   3.459   2.708   8.997  0.3809  1.3392 -1.2538
  186SAPI  C21821372   3.319   2.688   8.819  0.2601 -0.2582  0.4541
  186SAPI  H18R21373   3.331   2.787   8.768  0.8406 -0.4274  0.2545
  186SAPI  H18S21374   3.213   2.658   8.808  0.3015 -0.2959  0.1524
  186SAPI  C21921375   3.412   2.597   8.743  0.3001 -0.3779  0.4963
  186SAPI  H19R21376   3.400   2.488   8.762 -0.2693 -0.0523  2.1182
  186SAPI  H19S21377   3.518   2.617   8.769  0.7786  2.5587 -2.8297
  186SAPI  C22021378   3.416   2.629   8.590  0.1008  0.4191 -0.3043
  186SAPI  H20R21379   3.499   2.569   8.548  0.3779 -1.4735  2.6788
  186SAPI  H20S21380   3.447   2.735   8.577  0.4119  0.3798  0.1225
  186SAPI  H20T21381   3.317   2.605   8.545 -0.1870  0.7186  0.1627
  186SAPI   C3321382   3.619   1.844  10.332  0.4552  0.2004  0.8418
  186SAPI   H3X21383   3.570   1.770  10.400  0.2785  1.3464  1.9997
  186SAPI   H3Y21384   3.727   1.824  10.348 -0.0332 -3.7098  0.4347
  186SAPI   C3421385   3.581   1.842  10.183 -0.3897 -0.0192  0.7269
  186SAPI   H4X21386   3.471   1.845  10.169 -0.5029 -2.4891  0.6769
  186SAPI   H4Y21387   3.608   1.740  10.147  0.8109  0.9977 -1.4135
  186SAPI   C3521388   3.663   1.930  10.088  0.6160 -0.1392  0.3173
  186SAPI   H5X21389   3.774   1.925  10.079  0.6324  0.5945  0.0900
  186SAPI   H5Y21390   3.642   2.034  10.119  2.7287 -0.0539  1.6769
  186SAPI   C3621391   3.616   1.905   9.948 -0.2091 -0.3052 -0.4769
  186SAPI   H6X21392   3.506   1.917   9.950 -0.4207 -2.0429  0.5042
  186SAPI   H6Y21393   3.636   1.800   9.917  0.4141 -0.0057 -1.1436
  186SAPI   C3721394   3.679   1.990   9.838 -0.8062  0.7416  0.0058
  186SAPI   H7X21395   3.789   1.985   9.851 -0.7632 -2.1650 -0.8399
  186SAPI   H7Y21396   3.643   2.093   9.859 -0.7631  0.6343  0.6307
  186SAPI   C3821397   3.633   1.945   9.701  0.1338  0.6900 -0.8217
  186SAPI   H8X21398   3.522   1.940   9.703  0.1453  0.4182  0.2719
  186SAPI   H8Y21399   3.653   1.836   9.702 -2.4367  0.0600  2.4503
  186SAPI   C3921400   3.690   2.025   9.588 -0.2975 -0.5983 -0.1010
  186SAPI   H9X21401   3.795   1.992   9.578  0.2495  1.5118 -2.1279
  186SAPI   H9Y21402   3.694   2.133   9.611 -1.9330 -0.8575  1.6887
  186SAPI  C31021403   3.624   2.010   9.451  0.2723  0.2698  0.3665
  186SAPI  H10X21404   3.520   2.048   9.451 -1.3873 -3.6999 -1.2177
  186SAPI  H10Y21405   3.625   1.903   9.423  2.0445  0.7281 -1.6097
  186SAPI  C31121406   3.705   2.081   9.345 -0.0300 -0.2991  0.7164
  186SAPI  H11X21407   3.807   2.040   9.327  0.1092 -0.1662  1.1867
  186SAPI  H11Y21408   3.712   2.189   9.372 -0.0989  0.2037 -1.1364
  186SAPI  C31221409   3.636   2.071   9.207  0.0899 -0.3638  0.4310
  186SAPI  H12X21410   3.690   2.150   9.151  0.1410 -1.3285 -0.9340
  186SAPI  H12Y21411   3.533   2.104   9.230  0.2465  0.8854 -0.5568
  186SAPI  C31321412   3.667   1.946   9.130  0.4402  0.4868 -0.8631
  186SAPI  H13X21413   3.647   1.862   9.199  2.8788 -0.6016 -1.3618
  186SAPI  H13Y21414   3.775   1.957   9.107  0.2485 -0.1296 -2.2036
  186SAPI  C31421415   3.587   1.930   8.998  0.6295  0.0101  0.0326
  186SAPI  H14X21416   3.480   1.936   9.026  0.5834 -0.6658  0.0146
  186SAPI  H14Y21417   3.602   1.825   8.965 -0.1323 -0.7634  2.0100
  186SAPI  C31521418   3.625   2.019   8.884 -0.4445 -0.0620 -0.1624
  186SAPI  H15X21419   3.736   2.022   8.884 -0.3928  2.2526 -3.2724
  186SAPI  H15Y21420   3.575   2.117   8.899  0.7134  0.5726 -0.3681
  186SAPI  C31621421   3.581   1.960   8.750 -0.5829 -0.0737 -0.3882
  186SAPI  H16X21422   3.470   1.954   8.745 -0.7856  3.1015 -1.8837
  186SAPI  H16Y21423   3.625   1.859   8.738 -2.5747 -0.9413 -0.7789
  186SAPI  C31721424   3.625   2.041   8.623 -0.4885 -0.5595  0.1500
  186SAPI  H17X21425   3.609   1.980   8.531 -1.3623  0.9297 -0.7209
  186SAPI  H17Y21426   3.733   2.064   8.616 -1.3300  3.5771 -2.4421
  186SAPI  C31821427   3.543   2.170   8.631 -0.3036 -0.3972 -0.6648
  186SAPI  H18X21428   3.592   2.238   8.704 -0.5339  0.8559 -1.6521
  186SAPI  H18Y21429   3.439   2.140   8.657  1.1798 -3.4724  2.7550
  186SAPI  H18Z21430   3.545   2.216   8.530  1.9917  1.5588  0.1904
  187SAPI   C1221431   2.025   2.703   6.451  0.1390 -0.6522  1.0541
  187SAPI    H221432   1.971   2.606   6.448  1.2275 -1.2570 -2.0495
  187SAPI    O221433   2.000   2.762   6.576  0.4107  0.3005  0.1463
  187SAPI   HO221434   1.975   2.697   6.642 -0.2447 -1.1418 -1.4482
  187SAPI   C1321435   2.174   2.685   6.433  0.6027  0.0050  0.4640
  187SAPI    H321436   2.186   2.632   6.336 -1.6627  1.2599 -0.5658
  187SAPI    O321437   2.219   2.589   6.531 -0.2040 -0.0169  0.5866
  187SAPI   HO321438   2.253   2.644   6.602  1.2978  0.9856 -0.8444
  187SAPI   C1421439   2.255   2.816   6.440 -0.1921  0.4405 -0.2720
  187SAPI    H421440   2.225   2.862   6.536  0.8936  0.4419  0.0828
  187SAPI    O421441   2.394   2.794   6.428 -0.1784  0.3264 -0.5517
  187SAPI   HO421442   2.448   2.865   6.463 -1.4669  0.3844  1.4537
  187SAPI   C1521443   2.200   2.896   6.332  0.2270  0.5820 -0.4053
  187SAPI    H521444   2.205   2.835   6.239 -2.0611  1.3843 -1.1049
  187SAPI    O521445   2.277   3.017   6.320  0.3552 -0.5485 -0.4792
  187SAPI   HO521446   2.267   3.077   6.395  2.5971 -1.4980  0.6443
  187SAPI   C1621447   2.048   2.920   6.339 -0.4178 -0.2338  0.5526
  187SAPI    H621448   2.019   2.977   6.430 -2.3050  2.6120 -1.6314
  187SAPI    O621449   2.007   2.995   6.226 -0.1950 -0.6148 -0.0694
  187SAPI   HO621450   1.963   3.069   6.267  0.1274 -0.2780 -0.3273
  187SAPI   C1121451   1.969   2.791   6.338 -0.0198 -0.5254  0.4026
  187SAPI    H121452   1.994   2.748   6.238 -0.3419 -0.1256  0.1466
  187SAPI     P21453   1.718   2.734   6.260  0.0505  0.5228  0.0627
  187SAPI   O1321454   1.780   2.701   6.130 -0.3237 -0.6617  0.4019
  187SAPI   O1421455   1.586   2.804   6.259  0.2828 -0.2254  0.3192
  187SAPI   O1221456   1.827   2.822   6.346 -0.0483 -0.1256 -0.1695
  187SAPI   O1121457   1.704   2.603   6.345 -0.4264 -0.4301 -0.0386
  187SAPI    C121458   1.617   2.577   6.450 -0.2581 -0.5312 -0.2259
  187SAPI    HA21459   1.542   2.657   6.465  1.6640  1.0012  1.7858
  187SAPI    HB21460   1.559   2.485   6.425 -0.9971 -0.0768 -0.2189
  187SAPI    C221461   1.683   2.560   6.586 -0.0052  0.2030  0.1123
  187SAPI    HS21462   1.756   2.643   6.595  1.5686 -0.8690 -1.8340
  187SAPI   O2121463   1.763   2.438   6.576  0.1977 -0.2827  0.1021
  187SAPI   C2121464   1.864   2.432   6.653  0.3624  0.1097  0.0537
  187SAPI   O2221465   1.899   2.521   6.728  0.2607  0.2031 -0.5656
  187SAPI   C2221466   1.917   2.291   6.641  1.1183 -0.2850 -0.1239
  187SAPI   H2R21467   1.831   2.220   6.646  1.9046 -1.2738 -0.2020
  187SAPI   H2S21468   1.962   2.272   6.541  2.8744  0.4867  0.4981
  187SAPI    C321469   1.579   2.540   6.695 -0.2496  0.3376  0.3116
  187SAPI    HX21470   1.521   2.448   6.672  0.4291 -0.3820  1.3864
  187SAPI    HY21471   1.505   2.623   6.693 -0.0346  0.5185 -1.1581
  187SAPI   O3121472   1.636   2.523   6.827 -0.0504  0.0177  0.5979
  187SAPI   C3121473   1.675   2.634   6.883  0.3949  0.4469 -0.1540
  187SAPI   O3221474   1.662   2.747   6.836  0.0035  0.2524 -0.5230
  187SAPI   C3221475   1.750   2.613   7.018  0.2124  0.7825 -0.1098
  187SAPI   H2X21476   1.823   2.695   7.029  0.4947  0.7578 -1.5966
  187SAPI   H2Y21477   1.809   2.520   7.002 -1.0679 -0.3303  1.3071
  187SAPI   C2321478   2.015   2.249   6.745 -0.0940  0.0223 -0.4445
  187SAPI   H3R21479   2.098   2.322   6.738 -0.8574  1.2038  1.8186
  187SAPI   H3S21480   2.063   2.151   6.721 -2.3831 -1.5698  1.0680
  187SAPI   C2421481   1.953   2.243   6.881  0.8757  0.2055  0.7783
  187SAPI   H4R21482   1.913   2.343   6.906 -0.0447  0.3609 -1.1710
  187SAPI   H4S21483   2.047   2.241   6.940  0.4451  1.0111  1.5084
  187SAPI   C2521484   1.877   2.121   6.909 -0.1754  0.0384  0.1503
  187SAPI   H5R21485   1.780   2.122   6.857  0.0205 -0.9776 -0.2461
  187SAPI   C2621486   1.898   2.013   6.989  0.2724  0.1486 -0.1522
  187SAPI   H6R21487   1.827   1.929   6.988 -0.9288  1.1507  0.1107
  187SAPI   C2721488   2.018   1.998   7.082 -0.4831  0.3438 -0.0339
  187SAPI   H7R21489   2.015   2.072   7.165 -0.2530 -1.7468  1.9444
  187SAPI   H7S21490   2.115   2.014   7.030  0.6148 -2.6686  0.8857
  187SAPI   C2821491   2.015   1.856   7.136  0.3038 -0.0237 -0.3465
  187SAPI   H8R21492   2.044   1.784   7.058 -1.7609  0.3962 -1.6051
  187SAPI   C2921493   1.999   1.822   7.267 -0.7366 -0.0703  0.8608
  187SAPI   H9R21494   2.001   1.715   7.292 -0.5316 -0.8284 -2.1315
  187SAPI  C21021495   1.979   1.918   7.386  0.4798  0.4921  0.8954
  187SAPI  H10R21496   1.927   2.011   7.354  0.3899  1.3106  3.2229
  187SAPI  H10S21497   2.073   1.961   7.426  1.5705  0.5199 -1.5456
  187SAPI  C21121498   1.888   1.863   7.498 -0.4153 -0.5706 -0.1622
  187SAPI  H11R21499   1.791   1.914   7.497 -1.8860 -3.1262 -3.0328
  187SAPI  C21221500   1.908   1.763   7.593 -0.0995 -0.4199 -0.0171
  187SAPI  H12R21501   1.828   1.748   7.666 -3.1788  0.8372 -2.8696
  187SAPI  C21321502   2.033   1.678   7.606  0.7086 -0.4442  0.0556
  187SAPI  H13R21503   2.117   1.734   7.652  1.1889 -0.9586 -0.1744
  187SAPI  H13S21504   2.061   1.647   7.503 -1.7751  1.7614 -1.4164
  187SAPI  C21421505   2.008   1.554   7.695  0.0270  0.0261 -0.7750
  187SAPI  H14R21506   1.972   1.465   7.641 -0.8462  0.9913 -1.8543
  187SAPI  C21521507   2.023   1.549   7.834 -0.2540 -0.0195  0.5191
  187SAPI  H15R21508   2.000   1.453   7.883 -0.6550  0.1658  0.6996
  187SAPI  C21621509   2.061   1.652   7.939 -0.8992 -0.0651  0.1956
  187SAPI  H16R21510   1.981   1.656   8.016 -1.1639  0.6004 -0.1061
  187SAPI  H16S21511   2.079   1.752   7.894  1.1038 -0.3972  0.1409
  187SAPI  C21721512   2.181   1.598   8.015 -0.5818  0.7617  0.6234
  187SAPI  H17R21513   2.160   1.501   8.065 -0.7982  0.8039  0.6141
  187SAPI  H17S21514   2.201   1.666   8.101 -0.4623 -0.5607  1.6919
  187SAPI  C21821515   2.302   1.582   7.928 -0.2176 -0.7142  0.8469
  187SAPI  H18R21516   2.325   1.669   7.863  3.9052 -2.5619 -0.4994
  187SAPI  H18S21517   2.288   1.497   7.858 -2.8630 -0.4321  0.9104
  187SAPI  C21921518   2.411   1.525   8.016 -0.1746  0.2437 -0.0900
  187SAPI  H19R21519   2.386   1.434   8.075  2.6213 -0.8088 -0.3899
  187SAPI  H19S21520   2.427   1.607   8.090 -0.6974 -0.1644  0.4827
  187SAPI  C22021521   2.539   1.498   7.942  0.4816 -0.1176  0.4448
  187SAPI  H20R21522   2.602   1.448   8.019 -0.7995 -0.0884  1.5426
  187SAPI  H20S21523   2.580   1.598   7.915 -0.3106  0.2101  0.4450
  187SAPI  H20T21524   2.535   1.441   7.847  3.7493 -0.0183  0.1185
  187SAPI   C3321525   1.652   2.578   7.135 -0.1489  0.5194  0.3300
  187SAPI   H3X21526   1.586   2.495   7.102  1.6330 -0.7994 -0.0454
  187SAPI   H3Y21527   1.582   2.658   7.167 -1.2684 -0.1256 -0.3951
  187SAPI   C3421528   1.731   2.523   7.263  0.3084 -0.2914  0.3598
  187SAPI   H4X21529   1.816   2.587   7.295 -0.9085  1.6685 -0.1584
  187SAPI   H4Y21530   1.778   2.431   7.222  2.9158  1.1448 -0.1244
  187SAPI   C3521531   1.647   2.471   7.379  0.2598 -0.5190  0.4358
  187SAPI   H5X21532   1.563   2.404   7.348  0.4344 -1.1731  1.3127
  187SAPI   H5Y21533   1.589   2.555   7.422 -1.8945 -0.6911 -1.8743
  187SAPI   C3621534   1.737   2.411   7.485 -0.6175 -0.2344  0.2592
  187SAPI   H6X21535   1.791   2.484   7.548 -1.5393  0.5432  0.1650
  187SAPI   H6Y21536   1.809   2.351   7.425  0.8462  0.1894  1.5642
  187SAPI   C3721537   1.654   2.325   7.579  0.0968  0.4412  0.3397
  187SAPI   H7X21538   1.584   2.271   7.512  0.0439  1.1193 -0.1630
  187SAPI   H7Y21539   1.596   2.394   7.644  0.2052  1.6078 -0.7520
  187SAPI   C3821540   1.752   2.243   7.669  0.3763 -0.0623 -0.1143
  187SAPI   H8X21541   1.818   2.298   7.739 -0.1261 -0.4077  0.6367
  187SAPI   H8Y21542   1.804   2.178   7.595 -1.6601 -1.6101 -0.2924
  187SAPI   C3921543   1.672   2.150   7.763  0.4464 -0.1482 -0.2076
  187SAPI   H9X21544   1.617   2.087   7.690  2.6783 -0.2825 -1.8625
  187SAPI   H9Y21545   1.609   2.212   7.831  2.4515  2.8164 -0.8542
  187SAPI  C31021546   1.760   2.052   7.840 -0.3987 -0.2768  0.1638
  187SAPI  H10X21547   1.819   1.998   7.764  2.6305  1.8800  0.8100
  187SAPI  H10Y21548   1.697   1.987   7.905  0.3072  0.4140  1.5906
  187SAPI  C31121549   1.866   2.117   7.940 -0.2496 -0.2649 -0.5800
  187SAPI  H11X21550   1.824   2.191   8.012 -1.1897  0.1561 -1.5306
  187SAPI  H11Y21551   1.942   2.167   7.877  0.2694 -2.7578 -2.0536
  187SAPI  C31221552   1.959   2.008   8.007 -0.6220 -0.5603 -0.5813
  187SAPI  H12X21553   2.034   1.971   7.935 -0.8342  1.0576 -1.6957
  187SAPI  H12Y21554   1.897   1.918   8.024  2.2031 -2.8707 -1.6991
  187SAPI  C31321555   2.031   2.041   8.136  0.0972 -0.7620  1.2446
  187SAPI  H13X21556   2.096   2.129   8.117 -1.0041 -0.4534 -1.5606
  187SAPI  H13Y21557   2.088   1.957   8.182  0.7562  0.5828  3.0246
  187SAPI  C31421558   1.941   2.096   8.245 -0.3339  0.6672  0.2691
  187SAPI  H14X21559   1.898   2.189   8.203 -0.2253 -0.2261 -1.9586
  187SAPI  H14Y21560   2.007   2.123   8.330  1.1586 -0.8424 -0.3430
  187SAPI  C31521561   1.841   1.991   8.282 -0.5623 -0.6066  0.1369
  187SAPI  H15X21562   1.883   1.889   8.274  1.1240 -0.2163  2.7470
  187SAPI  H15Y21563   1.750   2.019   8.224 -1.1892  1.1065  1.8161
  187SAPI  C31621564   1.798   2.013   8.431 -1.0212  0.2915  0.6402
  187SAPI  H16X21565   1.886   2.013   8.498 -0.0702  1.5542 -0.5528
  187SAPI  H16Y21566   1.733   1.929   8.462  0.2162 -1.1984 -0.6711
  187SAPI  C31721567   1.723   2.147   8.468 -0.1177  0.5223 -0.1062
  187SAPI  H17X21568   1.648   2.170   8.389 -0.3969 -0.6988 -0.2189
  187SAPI  H17Y21569   1.795   2.230   8.477  0.8521 -0.2701 -0.3418
  187SAPI  C31821570   1.652   2.133   8.608 -0.2041 -0.1213  0.2952
  187SAPI  H18X21571   1.581   2.048   8.609  1.9717 -2.0716  2.0048
  187SAPI  H18Y21572   1.612   2.232   8.638  0.7878 -0.1240  1.7261
  187SAPI  H18Z21573   1.723   2.090   8.682 -0.3067 -0.0385  0.4410
  188SAPI   C1221574   3.188   5.646   6.323  0.2000 -0.2123 -0.6553
  188SAPI    H221575   3.123   5.574   6.268  0.0082 -1.0924  0.6739
  188SAPI    O221576   3.320   5.633   6.285  0.1395 -0.1517 -0.3710
  188SAPI   HO221577   3.345   5.549   6.325 -2.2089 -0.9372 -0.4008
  188SAPI   C1321578   3.137   5.786   6.286 -0.2508  0.2619 -0.3065
  188SAPI    H321579   3.033   5.794   6.325  0.7099 -0.6669  2.7031
  188SAPI    O321580   3.132   5.799   6.143 -0.0428 -0.2368  0.3546
  188SAPI   HO321581   3.214   5.791   6.093 -0.4749 -0.2105 -0.3827
  188SAPI   C1421582   3.221   5.892   6.364  0.8274 -1.0061 -0.3333
  188SAPI    H421583   3.323   5.874   6.323 -0.4183 -1.9388 -3.2999
  188SAPI    O421584   3.184   6.021   6.324  0.0179  0.1330  0.3458
  188SAPI   HO421585   3.257   6.082   6.341  0.4874 -0.0320 -0.9459
  188SAPI   C1521586   3.223   5.872   6.512 -0.2690 -0.6027 -0.3337
  188SAPI    H521587   3.122   5.893   6.555  1.0761 -0.9286  3.3076
  188SAPI    O521588   3.298   5.978   6.574 -0.3060  0.6489 -0.0960
  188SAPI   HO521589   3.336   5.948   6.656 -0.7906 -1.8996 -0.7163
  188SAPI   C1621590   3.262   5.729   6.543  0.1550  0.1426 -0.0143
  188SAPI    H621591   3.365   5.707   6.509  0.6360 -0.7807  1.8931
  188SAPI    O621592   3.268   5.710   6.684  0.1847 -0.2172 -0.3408
  188SAPI   HO621593   3.231   5.626   6.712  0.6668  0.1408  1.5808
  188SAPI   C1121594   3.175   5.628   6.471 -0.2850 -0.4267 -0.0617
  188SAPI    H121595   3.065   5.644   6.480 -0.6283 -1.9934 -0.9354
  188SAPI     P21596   3.111   5.402   6.596 -0.6384  0.2701 -0.0125
  188SAPI   O1321597   3.101   5.477   6.721 -0.3340  0.2106 -0.1138
  188SAPI   O1421598   3.150   5.262   6.602  0.3453  0.3419  0.2253
  188SAPI   O1221599   3.203   5.491   6.487  0.8624 -0.5591  0.0873
  188SAPI   O1121600   2.971   5.399   6.530  0.1762  0.0735  0.0880
  188SAPI    C121601   2.853   5.460   6.580 -0.0458 -0.2231  0.2955
  188SAPI    HA21602   2.865   5.565   6.615 -1.4028  0.2102 -0.4672
  188SAPI    HB21603   2.779   5.474   6.498  0.8436 -2.8935 -1.0700
  188SAPI    C221604   2.779   5.372   6.691  0.5293  0.3166 -0.3948
  188SAPI    HS21605   2.678   5.418   6.701  0.2606 -0.2192 -0.5825
  188SAPI   O2121606   2.862   5.373   6.810 -0.9321  0.2602  0.6686
  188SAPI   C2121607   2.865   5.487   6.878  0.1236 -0.3788 -0.0278
  188SAPI   O2221608   2.797   5.584   6.849 -0.3592 -0.4628  0.1715
  188SAPI   C2221609   2.961   5.473   6.995 -0.4849 -0.4015 -1.0346
  188SAPI   H2R21610   2.983   5.366   7.015  1.5968 -0.2577 -2.2534
  188SAPI   H2S21611   3.055   5.517   6.955 -1.4983  1.1982 -1.7721
  188SAPI    C321612   2.746   5.224   6.646  0.2800 -0.6042  0.1491
  188SAPI    HX21613   2.845   5.174   6.654  1.6791  1.3438 -2.9391
  188SAPI    HY21614   2.702   5.232   6.544 -0.0019  0.5908  0.3502
  188SAPI   O3121615   2.650   5.158   6.727  0.3060  0.0599 -0.1363
  188SAPI   C3121616   2.677   5.036   6.775  0.4241  0.5522  0.1319
  188SAPI   O3221617   2.786   4.977   6.764  0.3224  1.0178 -0.1388
  188SAPI   C3221618   2.543   4.986   6.835  0.1458 -0.2781 -0.1027
  188SAPI   H2X21619   2.509   4.895   6.782  1.6383 -1.2873  0.5837
  188SAPI   H2Y21620   2.455   5.052   6.822  0.1354 -0.1573  0.5507
  188SAPI   C2321621   2.896   5.538   7.117  0.0862  0.2847 -0.1077
  188SAPI   H3R21622   2.867   5.642   7.088  0.4272  0.0413 -1.3907
  188SAPI   H3S21623   2.975   5.548   7.194  0.1691 -0.7055 -0.0573
  188SAPI   C2421624   2.780   5.464   7.180 -0.4747  0.1304  0.8682
  188SAPI   H4R21625   2.806   5.357   7.183 -0.5240  0.0604 -0.5865
  188SAPI   H4S21626   2.700   5.481   7.105  0.1193 -1.3615 -0.1412
  188SAPI   C2521627   2.737   5.518   7.313  0.4395  0.0718  0.1695
  188SAPI   H5R21628   2.748   5.627   7.324  0.8331  0.4421 -3.0194
  188SAPI   C2621629   2.699   5.440   7.425  0.1313 -0.1769  0.5327
  188SAPI   H6R21630   2.667   5.492   7.516  0.9637  1.1339  0.1224
  188SAPI   C2721631   2.677   5.292   7.425  0.1438  1.0172 -0.0549
  188SAPI   H7R21632   2.706   5.236   7.334  1.0882 -1.3782  1.6229
  188SAPI   H7S21633   2.567   5.274   7.425  0.4595 -1.1680  0.2683
  188SAPI   C2821634   2.738   5.222   7.541 -0.1708 -0.8309 -0.3748
  188SAPI   H8R21635   2.843   5.250   7.558 -0.7696  1.7354 -0.4902
  188SAPI   C2921636   2.677   5.152   7.640  0.1609  0.5494  1.0657
  188SAPI   H9R21637   2.733   5.089   7.711  0.4727 -0.0601  0.2880
  188SAPI  C21021638   2.532   5.136   7.647 -0.2858 -0.1979  0.2497
  188SAPI  H10R21639   2.518   5.046   7.711  0.9368 -0.6511 -0.0938
  188SAPI  H10S21640   2.479   5.123   7.550 -2.0008 -0.7222  1.1974
  188SAPI  C21121641   2.482   5.268   7.710 -0.2269  0.1459  0.4629
  188SAPI  H11R21642   2.415   5.327   7.647  1.1109  1.9801  0.6630
  188SAPI  C21221643   2.497   5.302   7.838 -0.7727 -0.4377  0.4461
  188SAPI  H12R21644   2.456   5.400   7.865 -0.0355  0.5476 -1.7821
  188SAPI  C21321645   2.564   5.220   7.948  0.3019  0.1347  0.0471
  188SAPI  H13R21646   2.662   5.267   7.972 -1.0165  2.8562  0.4941
  188SAPI  H13S21647   2.590   5.120   7.909  0.5498  0.1496  0.1646
  188SAPI  C21421648   2.482   5.200   8.070 -0.1339 -0.4584 -0.5300
  188SAPI  H14R21649   2.414   5.114   8.072 -3.7002  1.9756 -3.2643
  188SAPI  C21521650   2.474   5.277   8.179 -0.1604  0.1157  0.4383
  188SAPI  H15R21651   2.401   5.257   8.258  0.3356  0.3815  0.9678
  188SAPI  C21621652   2.556   5.398   8.209  0.6182  0.5428  0.0002
  188SAPI  H16R21653   2.480   5.479   8.195  0.1299  0.0992  0.0630
  188SAPI  H16S21654   2.632   5.413   8.129  0.3838  1.7347 -0.0194
  188SAPI  C21721655   2.623   5.411   8.347  0.0226 -0.5323  0.2218
  188SAPI  H17R21656   2.701   5.332   8.355 -1.4576 -2.1517 -0.6839
  188SAPI  H17S21657   2.553   5.389   8.431  2.3254  0.5386  2.5771
  188SAPI  C21821658   2.683   5.553   8.369  0.6167 -0.7224 -0.7632
  188SAPI  H18R21659   2.745   5.589   8.284  0.3563  1.4016 -0.1284
  188SAPI  H18S21660   2.745   5.539   8.461  0.6426  1.4368 -0.3799
  188SAPI  C21921661   2.571   5.655   8.382 -0.5255 -0.2353 -0.8053
  188SAPI  H19R21662   2.492   5.634   8.458 -0.7600  2.4715 -0.2013
  188SAPI  H19S21663   2.518   5.649   8.285 -1.2209 -1.2060 -0.3844
  188SAPI  C22021664   2.635   5.791   8.407  0.4777  0.0506 -0.2929
  188SAPI  H20R21665   2.562   5.866   8.367  0.4670  0.1767 -0.0390
  188SAPI  H20S21666   2.725   5.810   8.345  0.1268 -0.0424 -0.8392
  188SAPI  H20T21667   2.650   5.805   8.516 -1.1797  0.1842 -0.0526
  188SAPI   C3321668   2.562   4.932   6.978 -0.1975 -0.0208 -0.2861
  188SAPI   H3X21669   2.643   4.856   6.982 -1.9815 -1.9993  0.4614
  188SAPI   H3Y21670   2.474   4.871   7.008  0.0553  0.1011  0.7384
  188SAPI   C3421671   2.574   5.051   7.088  0.5326  0.6758 -0.7328
  188SAPI   H4X21672   2.492   5.122   7.067 -0.4760 -0.7662 -1.8643
  188SAPI   H4Y21673   2.668   5.098   7.052  2.8122 -1.5719  1.8049
  188SAPI   C3521674   2.571   4.997   7.232 -0.3373 -0.0174 -0.4622
  188SAPI   H5X21675   2.474   4.947   7.251  0.7905 -1.7146  1.2069
  188SAPI   H5Y21676   2.571   5.080   7.306 -1.3577 -2.0970  2.0329
  188SAPI   C3621677   2.679   4.886   7.265 -0.5960  0.3961  0.5218
  188SAPI   H6X21678   2.776   4.904   7.214 -0.0525  0.2006  1.4574
  188SAPI   H6Y21679   2.637   4.791   7.225  1.4760  0.1545 -1.2323
  188SAPI   C3721680   2.699   4.862   7.415  0.1190  0.5141  0.1919
  188SAPI   H7X21681   2.604   4.901   7.458  0.6130  1.0002  0.8695
  188SAPI   H7Y21682   2.779   4.923   7.462  0.2788 -0.4415  1.2139
  188SAPI   C3821683   2.722   4.713   7.441 -0.4550 -0.0842  0.7228
  188SAPI   H8X21684   2.801   4.676   7.372 -2.2595 -1.4224 -0.6867
  188SAPI   H8Y21685   2.636   4.652   7.407 -0.2952  1.5049 -3.0526
  188SAPI   C3921686   2.764   4.680   7.578  0.2826 -0.0216 -0.3287
  188SAPI   H9X21687   2.868   4.718   7.586  0.3554 -0.4735  1.3037
  188SAPI   H9Y21688   2.764   4.570   7.593  1.0165 -0.1335 -1.0753
  188SAPI  C31021689   2.671   4.740   7.687 -0.5120 -0.1508  0.2341
  188SAPI  H10X21690   2.575   4.686   7.694 -0.1373 -0.9458 -0.5143
  188SAPI  H10Y21691   2.654   4.846   7.658  2.3550  0.4793  0.5578
  188SAPI  C31121692   2.732   4.738   7.825 -0.1108  0.7824 -0.3084
  188SAPI  H11X21693   2.806   4.821   7.830 -0.3694  0.9359  2.4797
  188SAPI  H11Y21694   2.787   4.645   7.850 -1.7876  0.3168  1.9517
  188SAPI  C31221695   2.619   4.774   7.924  0.0634  0.2052  0.1592
  188SAPI  H12X21696   2.525   4.719   7.902  0.9914 -1.4727  0.1706
  188SAPI  H12Y21697   2.592   4.881   7.926  0.2587  0.3197 -1.9615
  188SAPI  C31321698   2.668   4.738   8.064  0.4791 -1.1264 -0.4021
  188SAPI  H13X21699   2.768   4.778   8.091  0.7724 -3.9796  3.6810
  188SAPI  H13Y21700   2.703   4.633   8.067  2.2656 -0.5576  1.9062
  188SAPI  C31421701   2.569   4.763   8.181 -0.9418 -0.0617 -0.0348
  188SAPI  H14X21702   2.595   4.689   8.259 -0.8936  1.4012  1.4023
  188SAPI  H14Y21703   2.464   4.755   8.148 -0.8722 -0.5700 -0.1378
  188SAPI  C31521704   2.584   4.909   8.243 -0.3966  0.1177  0.7263
  188SAPI  H15X21705   2.500   4.965   8.195  0.6588 -0.9389 -2.6577
  188SAPI  H15Y21706   2.677   4.961   8.213 -1.0253  0.4584 -0.7101
  188SAPI  C31621707   2.560   4.910   8.396  0.2805  0.6875  0.2235
  188SAPI  H16X21708   2.581   5.016   8.423  0.2870  0.9997 -0.9382
  188SAPI  H16Y21709   2.630   4.848   8.455 -1.4555 -3.4721 -1.7130
  188SAPI  C31721710   2.409   4.884   8.427  0.0273 -0.3218 -0.8719
  188SAPI  H17X21711   2.397   4.777   8.455  0.5079 -0.5118 -1.3588
  188SAPI  H17Y21712   2.346   4.904   8.338  0.2355 -3.3641 -1.8151
  188SAPI  C31821713   2.368   4.968   8.551 -0.4672 -0.3012  0.1757
  188SAPI  H18X21714   2.437   4.950   8.637  1.3131  0.1303 -1.1042
  188SAPI  H18Y21715   2.262   4.954   8.583  0.0891 -0.6254  2.0089
  188SAPI  H18Z21716   2.385   5.076   8.533  1.3266 -0.2802  1.6058
  189POPC     N21717   2.494   0.686  10.989 -0.5765  0.0044  0.3194
  189POPC   C1221718   2.443   0.590  10.884  0.0407  0.2990 -0.7416
  189POPC  H12A21719   2.521   0.526  10.846 -3.8905 -4.0008 -2.4576
  189POPC  H12B21720   2.406   0.654  10.806 -1.8149 -1.8015 -1.6758
  189POPC   C1321721   2.634   0.731  10.968  0.3743 -0.2147 -0.3181
  189POPC  H13A21722   2.639   0.777  10.870  1.6643  0.4568  0.0413
  189POPC  H13B21723   2.657   0.801  11.047 -1.1744 -0.4286  0.3620
  189POPC  H13C21724   2.703   0.648  10.969  1.2191  0.4809 -0.1460
  189POPC   C1421725   2.407   0.813  10.981 -0.9173 -0.1209  0.0442
  189POPC  H14A21726   2.310   0.800  10.934 -0.5001  1.3782 -1.3040
  189POPC  H14B21727   2.392   0.860  11.077 -0.6350 -3.0469  1.6361
  189POPC  H14C21728   2.457   0.886  10.918  0.2753 -1.1924 -0.2771
  189POPC   C1521729   2.469   0.628  11.121 -0.0817  0.1528  0.1863
  189POPC  H15A21730   2.538   0.549  11.148  0.7234  0.7494 -0.0744
  189POPC  H15B21731   2.365   0.601  11.125  0.1261 -1.3139 -2.1257
  189POPC  H15C21732   2.500   0.702  11.194  1.1309  0.4084 -0.5519
  189POPC   C1121733   2.340   0.491  10.937  0.6019  0.0608 -0.5343
  189POPC  H11A21734   2.371   0.414  11.010  2.3386  0.2803 -1.0092
  189POPC  H11B21735   2.316   0.440  10.841  2.1741 -0.0852 -0.8721
  189POPC     P21736   2.097   0.494  11.007  0.0023 -0.5869 -0.0833
  189POPC   O1321737   1.995   0.591  11.062 -0.4681 -0.0956  0.2714
  189POPC   O1421738   2.116   0.371  11.082 -0.5847  0.0106 -0.0847
  189POPC   O1221739   2.227   0.570  10.983 -0.3775  0.4271 -0.2701
  189POPC   O1121740   2.054   0.453  10.861 -0.1645  0.1046 -0.3419
  189POPC    C121741   2.025   0.557  10.763  0.0532 -0.3135 -0.0352
  189POPC    HA21742   2.115   0.620  10.745 -0.8677  0.2642 -3.1670
  189POPC    HB21743   1.938   0.613  10.803 -0.2446 -1.5588  1.1467
  189POPC    C221744   1.966   0.518  10.631  0.3624 -0.0011 -0.1228
  189POPC    HS21745   1.903   0.427  10.638 -1.3183  0.9595 -1.7084
  189POPC   O2121746   2.085   0.509  10.551  0.0947  0.0626 -0.7457
  189POPC   C2121747   2.128   0.391  10.522 -0.4091  0.2494 -0.2863
  189POPC   O2221748   2.095   0.283  10.567  0.4184 -0.6611 -0.2515
  189POPC   C2221749   2.227   0.406  10.408 -0.3430  0.2662  0.3209
  189POPC   H2R21750   2.323   0.408  10.463 -0.3770  0.4038  0.3763
  189POPC   H2S21751   2.207   0.498  10.350 -0.9746  0.0490  0.1837
  189POPC    C321752   1.875   0.632  10.573 -0.1286  0.1278  0.1295
  189POPC    HX21753   1.936   0.724  10.587 -2.1385  1.3865  0.9313
  189POPC    HY21754   1.790   0.659  10.638 -0.0797  0.9408 -0.1262
  189POPC   O3121755   1.825   0.615  10.438  0.2165 -0.3671 -0.0829
  189POPC   C3121756   1.829   0.725  10.369 -0.3662 -0.1903 -0.4190
  189POPC   O3221757   1.892   0.826  10.397  0.2815  0.3299  0.0207
  189POPC   C3221758   1.767   0.681  10.230  0.6945  0.1929 -0.1695
  189POPC   H2X21759   1.664   0.646  10.255 -0.5636  1.4677 -3.1023
  189POPC   H2Y21760   1.821   0.596  10.183  3.2233  1.8987 -0.5672
  189POPC   C2321761   2.221   0.290  10.317 -0.3013  0.3824  0.3462
  189POPC   H3R21762   2.120   0.253  10.288 -0.3147 -1.5990  2.5995
  189POPC   H3S21763   2.282   0.207  10.359 -1.1736 -0.4204  0.0611
  189POPC   C2421764   2.290   0.315  10.177 -0.2019 -0.8466  0.0635
  189POPC   H4R21765   2.401   0.326  10.175 -0.2172 -0.5306  0.7081
  189POPC   H4S21766   2.237   0.402  10.132  0.1905 -0.8383 -0.3901
  189POPC   C2521767   2.264   0.200  10.074  0.7753  0.4242 -0.0433
  189POPC   H5R21768   2.154   0.192  10.058  0.2557  0.8851  2.7429
  189POPC   H5S21769   2.298   0.109  10.128 -0.8028  0.1843  0.6125
  189POPC   C2621770   2.320   0.216   9.935  0.0017  0.7542  0.4236
  189POPC   H6R21771   2.431   0.223   9.937  0.0186  0.4229  1.2808
  189POPC   H6S21772   2.301   0.315   9.889 -0.3604  0.1036 -0.8587
  189POPC   C2721773   2.281   0.095   9.841  0.1682 -0.6306 -0.3856
  189POPC   H7R21774   2.171   0.088   9.837  0.0881  0.8215 -1.8714
  189POPC   H7S21775   2.331   0.006   9.885  0.6832 -0.1160  0.0989
  189POPC   C2821776   2.334   0.101   9.691  0.7829 -0.5226 -0.4095
  189POPC   H8R21777   2.309   0.009   9.635  4.3313 -1.3055 -0.9215
  189POPC   H8S21778   2.444   0.113   9.687  0.8304  0.2971  1.8625
  189POPC   C2921779   2.263   0.206   9.610 -0.5024 -0.5221 -0.5205
  189POPC   H9121780   2.182   0.254   9.666  2.0093  1.0286  2.0435
  189POPC  C21021781   2.277   0.240   9.483  0.1537  0.5908 -0.7186
  189POPC  H10121782   2.235   0.333   9.442 -0.7727  0.9478  0.9384
  189POPC  C21121783   2.375   0.184   9.389  0.7109  0.7478 -0.2616
  189POPC  H11R21784   2.338   0.083   9.363  0.2068  0.9501 -0.3374
  189POPC  H11S21785   2.473   0.162   9.437  0.0273 -1.3059  0.2647
  189POPC  C21221786   2.406   0.258   9.258  0.0641  0.1355  0.8815
  189POPC  H12R21787   2.485   0.206   9.200  1.8637  2.2279  1.3271
  189POPC  H12S21788   2.457   0.353   9.285  2.8657 -0.1278 -2.7541
  189POPC  C21321789   2.290   0.294   9.160 -0.2960  0.1430  0.5214
  189POPC  H13R21790   2.229   0.367   9.218  0.2986  1.5881 -0.6215
  189POPC  H13S21791   2.238   0.198   9.140  0.9539 -0.2090 -1.2907
  189POPC  C21421792   2.342   0.360   9.030 -0.1456 -0.2954  0.3399
  189POPC  H14R21793   2.429   0.305   8.987 -0.7262 -0.9622  0.0040
  189POPC  H14S21794   2.367   0.468   9.042  1.5172 -0.4718 -1.2199
  189POPC  C21521795   2.218   0.369   8.928  0.1662  0.3870  0.0227
  189POPC  H15R21796   2.126   0.372   8.990 -0.2280 -2.0008 -0.3737
  189POPC  H15S21797   2.221   0.271   8.876 -1.2864  0.2653  0.1443
  189POPC  C21621798   2.210   0.487   8.826 -0.1061  0.3020  0.1840
  189POPC  H16R21799   2.241   0.574   8.887  0.1482  0.0226  0.4626
  189POPC  H16S21800   2.106   0.493   8.789 -0.6379 -0.6232  1.4396
  189POPC  C21721801   2.304   0.467   8.710  0.3765  0.7542 -0.3976
  189POPC  H17R21802   2.262   0.390   8.642 -0.0428  0.1029  0.5783
  189POPC  H17S21803   2.407   0.441   8.742  0.3297  1.0903  0.0418
  189POPC  C21821804   2.324   0.595   8.623 -0.0714  0.6897  1.1329
  189POPC  H18R21805   2.389   0.569   8.537  0.8703  2.2915  1.3221
  189POPC  H18S21806   2.372   0.676   8.683  2.7008 -0.1524  0.1536
  189POPC  H18T21807   2.231   0.632   8.574  0.0929 -1.9486 -1.4064
  189POPC   C3321808   1.766   0.793  10.121 -0.2778  0.2255 -0.6888
  189POPC   H3X21809   1.874   0.814  10.104 -0.7368  2.8875 -0.6406
  189POPC   H3Y21810   1.719   0.886  10.158  0.6812 -0.1561  1.6164
  189POPC   C3421811   1.692   0.736  10.002  0.2553 -0.4362 -0.3973
  189POPC   H4X21812   1.582   0.750  10.006  0.3615  1.1058 -1.8799
  189POPC   H4Y21813   1.706   0.626   9.988 -1.5968 -0.5864 -1.4692
  189POPC   C3521814   1.733   0.795   9.871  0.9201 -0.6891 -0.2208
  189POPC   H5X21815   1.843   0.807   9.878  1.1794 -1.7606 -1.8883
  189POPC   H5Y21816   1.687   0.895   9.861  0.4760 -0.9320 -0.6987
  189POPC   C3621817   1.710   0.709   9.751  0.0917  0.7063  0.0536
  189POPC   H6X21818   1.606   0.670   9.754  0.5432 -0.9727 -2.6700
  189POPC   H6Y21819   1.780   0.624   9.750  0.0949  0.7086 -0.5849
  189POPC   C3721820   1.727   0.780   9.614  0.1198 -0.2244 -0.6058
  189POPC   H7X21821   1.833   0.810   9.605  0.1373 -0.1380 -0.1485
  189POPC   H7Y21822   1.653   0.862   9.627 -0.6070 -0.5980 -2.1730
  189POPC   C3821823   1.668   0.711   9.488 -0.5180 -0.3462 -0.3855
  189POPC   H8X21824   1.559   0.691   9.497 -0.8277  1.1342 -0.5510
  189POPC   H8Y21825   1.704   0.607   9.472  0.2627 -0.2877  0.8145
  189POPC   C3921826   1.675   0.799   9.364 -0.9458  0.4031 -0.3286
  189POPC   H9X21827   1.780   0.804   9.329 -0.7945 -0.6176 -0.0555
  189POPC   H9Y21828   1.644   0.904   9.383 -0.0669  0.7162 -0.5885
  189POPC  C31021829   1.592   0.738   9.250  0.0891  0.6909 -0.5358
  189POPC  H10X21830   1.485   0.726   9.277  0.5704 -0.1917  1.0876
  189POPC  H10Y21831   1.625   0.632   9.242 -0.6814  0.5597 -2.7688
  189POPC  C31121832   1.618   0.795   9.111 -0.2542 -0.7048  0.3865
  189POPC  H11X21833   1.689   0.730   9.056 -0.4563  0.2234 -1.0137
  189POPC  H11Y21834   1.671   0.891   9.129  0.9794 -1.2044 -0.4728
  189POPC  C31221835   1.486   0.820   9.026 -0.5096 -0.3186 -0.2005
  189POPC  H12X21836   1.434   0.915   9.049 -3.0868 -1.3078 -1.5038
  189POPC  H12Y21837   1.405   0.747   9.046 -3.6276  2.1633 -2.7022
  189POPC  C31321838   1.514   0.834   8.877 -0.2252  1.5260  0.0039
  189POPC  H13X21839   1.580   0.751   8.843  0.1663  1.6950  0.3399
  189POPC  H13Y21840   1.588   0.914   8.857  2.2183 -0.7904 -0.8490
  189POPC  C31421841   1.381   0.838   8.793 -0.6961 -0.4077  1.0284
  189POPC  H14X21842   1.351   0.942   8.771 -0.0966 -0.9904 -3.5031
  189POPC  H14Y21843   1.297   0.800   8.855 -0.7233 -0.6103  0.8702
  189POPC  C31521844   1.387   0.771   8.655 -0.0526  0.4811  0.2023
  189POPC  H15X21845   1.290   0.786   8.602  0.1586  3.3119  0.4500
  189POPC  H15Y21846   1.392   0.662   8.675  0.2192  0.1910 -1.2885
  189POPC  C31621847   1.513   0.813   8.581  0.7444  0.0671 -0.5659
  189POPC  H16X21848   1.511   0.923   8.563  1.3664  0.5010  1.8148
  189POPC  H16Y21849   1.512   0.754   8.486 -0.0431 -1.0720  0.1232
  189POPC  H16Z21850   1.603   0.784   8.639 -0.3992 -1.0958  0.6965
  190POPC     N21851   4.720   3.830  11.070  0.4033 -0.2739  0.0662
  190POPC   C1221852   4.847   3.856  11.150 -0.2424 -0.2614 -0.2350
  190POPC  H12A21853   4.830   3.914  11.239  0.0718  0.6811 -0.7783
  190POPC  H12B21854   4.906   3.922  11.089  0.0901 -1.2530 -1.0091
  190POPC   C1321855   4.630   3.948  11.077 -0.0871 -0.2662  0.2931
  190POPC  H13A21856   4.661   4.038  11.026 -2.8614  0.1670 -0.8166
  190POPC  H13B21857   4.544   3.924  11.016  1.2645  0.3342 -1.9823
  190POPC  H13C21858   4.613   3.975  11.180 -0.5916  0.9730 -0.1004
  190POPC   C1421859   4.748   3.796  10.922 -0.2612  0.3640 -0.1071
  190POPC  H14A21860   4.818   3.865  10.878 -0.4798 -0.8893 -2.5883
  190POPC  H14B21861   4.774   3.691  10.914  1.2770  0.5107  2.1236
  190POPC  H14C21862   4.656   3.809  10.868  0.7558  1.7934 -1.5925
  190POPC   C1521863   4.647   3.716  11.130  0.2284 -1.0547  0.0161
  190POPC  H15A21864   4.553   3.697  11.080  0.2967 -1.1229 -0.0864
  190POPC  H15B21865   4.618   3.745  11.230 -1.9993 -0.7573 -0.6557
  190POPC  H15C21866   4.708   3.627  11.127  2.4174  0.3805 -0.8318
  190POPC   C1121867   4.931   3.731  11.187 -0.3443  0.1620  0.8252
  190POPC  H11A21868   4.865   3.673  11.255 -0.2181 -0.2589  0.5943
  190POPC  H11B21869   5.015   3.760  11.254 -0.2439  0.5808  0.5271
  190POPC     P21870   4.966   3.512  11.059  0.2960  0.0301  0.1851
  190POPC   O1321871   4.819   3.480  11.063  0.8995  0.2302 -0.2932
  190POPC   O1421872   5.051   3.452  11.160 -0.1026 -0.2117  1.1589
  190POPC   O1221873   4.971   3.664  11.070  0.7823  0.5363 -0.0424
  190POPC   O1121874   5.025   3.470  10.913  0.1182  0.3194 -0.0334
  190POPC    C121875   4.996   3.540  10.789  0.4462 -0.2733 -0.0426
  190POPC    HA21876   5.090   3.559  10.733  1.1361 -0.0569  1.1456
  190POPC    HB21877   4.952   3.639  10.817  0.8763 -0.5689  1.7990
  190POPC    C221878   4.898   3.451  10.704  0.3169 -0.1306 -0.1487
  190POPC    HS21879   4.958   3.370  10.656 -0.8697 -0.8765 -0.4103
  190POPC   O2121880   4.822   3.538  10.615 -0.2911  0.0142 -1.2626
  190POPC   C2121881   4.824   3.505  10.487 -0.3268 -0.1840 -0.5187
  190POPC   O2221882   4.909   3.429  10.437 -0.0044 -0.5968  0.5201
  190POPC   C2221883   4.715   3.580  10.411  0.2357  0.0419 -0.0400
  190POPC   H2R21884   4.663   3.645  10.485 -2.4092 -0.5775 -1.2199
  190POPC   H2S21885   4.641   3.508  10.371  1.2588 -1.0159 -0.0815
  190POPC    C321886   4.799   3.367  10.781  0.4454  0.4558  0.0905
  190POPC    HX21887   4.735   3.435  10.841  0.0680  0.7121 -0.5813
  190POPC    HY21888   4.852   3.291  10.842  1.6635  0.1505 -1.2801
  190POPC   O3121889   4.710   3.296  10.689  0.2569  0.1712 -0.2110
  190POPC   C3121890   4.581   3.285  10.718  0.6605 -0.1502 -0.7702
  190POPC   O3221891   4.526   3.333  10.815 -0.1054 -0.6449  0.3042
  190POPC   C3221892   4.510   3.216  10.607  0.7496  0.1116 -0.0572
  190POPC   H2X21893   4.490   3.110  10.632 -1.6264  0.8777  1.5849
  190POPC   H2Y21894   4.576   3.215  10.517 -1.0194 -1.3001 -1.4289
  190POPC   C2321895   4.771   3.670  10.291 -0.3023  0.8149  0.1731
  190POPC   H3R21896   4.878   3.687  10.316 -0.1315  1.1726 -0.7396
  190POPC   H3S21897   4.736   3.775  10.300  1.8352  1.5256  0.8053
  190POPC   C2421898   4.752   3.616  10.146  0.7124 -0.1143  0.3767
  190POPC   H4R21899   4.644   3.595  10.140  0.2544  1.1964  2.6443
  190POPC   H4S21900   4.808   3.522  10.127 -2.0775 -1.2395 -3.4433
  190POPC   C2521901   4.801   3.731  10.049  0.3399 -0.1158  0.0062
  190POPC   H5R21902   4.909   3.754  10.066  0.0983 -0.3246  2.0632
  190POPC   H5S21903   4.740   3.817  10.084 -2.7608 -2.3086  0.3319
  190POPC   C2621904   4.775   3.696   9.902 -0.1512  0.0662 -0.0727
  190POPC   H6R21905   4.780   3.781   9.831 -1.4806 -0.3123 -0.6491
  190POPC   H6S21906   4.671   3.658   9.892  0.5998 -1.6230 -2.3908
  190POPC   C2721907   4.867   3.580   9.853 -0.0105  0.1519 -0.5883
  190POPC   H7R21908   4.806   3.492   9.822  1.2490 -0.3377 -1.7312
  190POPC   H7S21909   4.925   3.540   9.939 -2.2403  0.5822  1.2414
  190POPC   C2821910   4.977   3.623   9.750 -0.1754  0.2351  0.7463
  190POPC   H8R21911   5.077   3.652   9.789  0.5195  2.9580 -2.5594
  190POPC   H8S21912   4.949   3.720   9.703  2.8873  0.5822 -0.5654
  190POPC   C2921913   5.005   3.517   9.649 -0.6636 -0.4590 -0.0133
  190POPC   H9121914   5.042   3.421   9.688  0.0522 -0.4946 -0.7392
  190POPC  C21021915   4.986   3.526   9.511 -0.2544  0.5526 -1.1495
  190POPC  H10121916   5.015   3.438   9.452 -0.1077 -0.8849  0.9595
  190POPC  C21121917   4.930   3.645   9.436 -0.1616 -0.0784  0.0385
  190POPC  H11R21918   4.875   3.711   9.506 -0.2360 -1.6499  1.5188
  190POPC  H11S21919   4.851   3.607   9.369  1.9139  0.0896 -2.6941
  190POPC  C21221920   5.031   3.721   9.352 -0.1734  0.4726  0.1637
  190POPC  H12R21921   5.121   3.756   9.407  0.3473  0.8758 -0.9203
  190POPC  H12S21922   4.989   3.821   9.328  0.5342  1.9030  4.0519
  190POPC  C21321923   5.075   3.644   9.224 -0.1688  0.3188  0.1240
  190POPC  H13R21924   4.986   3.632   9.158 -0.9294  2.0498  0.7930
  190POPC  H13S21925   5.110   3.541   9.247  0.8768  0.3488 -1.1773
  190POPC  C21421926   5.190   3.711   9.150  0.1279 -0.0659  0.0819
  190POPC  H14R21927   5.273   3.719   9.223  1.1908 -2.9056 -0.6619
  190POPC  H14S21928   5.154   3.806   9.106 -1.7247 -0.9166 -0.3168
  190POPC  C21521929   5.231   3.625   9.032 -0.6862  0.4809 -0.2038
  190POPC  H15R21930   5.154   3.627   8.952 -1.0931  2.7522  0.1728
  190POPC  H15S21931   5.235   3.517   9.060 -2.5198  0.5593  0.5161
  190POPC  C21621932   5.369   3.673   8.980 -0.1412 -0.2740 -0.0735
  190POPC  H16R21933   5.456   3.636   9.038 -0.0696  1.2412  0.8426
  190POPC  H16S21934   5.365   3.783   8.997 -1.8993 -0.7187  3.1089
  190POPC  C21721935   5.378   3.645   8.833 -0.1385 -0.4809 -0.0085
  190POPC  H17R21936   5.464   3.702   8.792 -0.3838  1.1372  1.6378
  190POPC  H17S21937   5.281   3.671   8.786  1.3680  2.7741 -1.6327
  190POPC  C21821938   5.407   3.491   8.810 -0.0073 -0.3496  0.2318
  190POPC  H18R21939   5.507   3.455   8.843  0.9133  0.6312 -1.3784
  190POPC  H18S21940   5.404   3.470   8.701 -1.6614 -1.4922  0.4594
  190POPC  H18T21941   5.333   3.422   8.857  0.6093 -0.7432  0.6382
  190POPC   C3321942   4.376   3.283  10.564 -0.4485  0.7727 -0.4893
  190POPC   H3X21943   4.383   3.394  10.573  1.2544  0.7942 -1.6504
  190POPC   H3Y21944   4.298   3.257  10.640  1.1441  1.4012  1.4464
  190POPC   C3421945   4.329   3.242  10.423  0.1652  0.5040 -0.5640
  190POPC   H4X21946   4.226   3.278  10.401  0.3535  0.8388 -0.9092
  190POPC   H4Y21947   4.326   3.131  10.423 -0.6328  0.5099  0.4539
  190POPC   C3521948   4.418   3.291  10.309  0.2695  0.3871 -0.2292
  190POPC   H5X21949   4.521   3.252  10.324  0.3281 -0.0767 -1.6850
  190POPC   H5Y21950   4.443   3.400  10.310  3.8935 -0.2904 -0.9936
  190POPC   C3621951   4.372   3.266  10.166  0.5447  0.5017 -0.9743
  190POPC   H6X21952   4.276   3.319  10.151  0.5171  0.2933 -1.5777
  190POPC   H6Y21953   4.371   3.156  10.151 -1.0600  0.7166 -2.8567
  190POPC   C3721954   4.464   3.323  10.056  0.0083  0.8835 -0.2284
  190POPC   H7X21955   4.563   3.275  10.072 -0.9280 -0.9572  0.3672
  190POPC   H7Y21956   4.476   3.429  10.085 -0.0789  0.3701  1.8441
  190POPC   C3821957   4.425   3.289   9.907 -0.7567 -0.8296  0.2165
  190POPC   H8X21958   4.333   3.346   9.882 -0.2794  1.0815  2.5343
  190POPC   H8Y21959   4.415   3.178   9.907 -0.0685 -0.9353 -1.9656
  190POPC   C3921960   4.532   3.327   9.808 -0.2168  0.1626 -0.6264
  190POPC   H9X21961   4.628   3.285   9.845 -0.5763  0.2248  0.4121
  190POPC   H9Y21962   4.540   3.438   9.811 -2.6036  0.3809  0.3912
  190POPC  C31021963   4.502   3.276   9.668 -0.2137 -0.4529 -0.6479
  190POPC  H10X21964   4.420   3.332   9.620 -0.9106 -2.1503 -1.5592
  190POPC  H10Y21965   4.483   3.166   9.673  1.1031 -0.6408  2.2469
  190POPC  C31121966   4.622   3.304   9.568 -0.5839  0.1043  0.6488
  190POPC  H11X21967   4.708   3.253   9.616 -0.5800  0.5859  1.1524
  190POPC  H11Y21968   4.653   3.410   9.562  1.6037 -0.4455  1.4563
  190POPC  C31221969   4.610   3.244   9.426 -0.5020  0.2554  0.3027
  190POPC  H12X21970   4.513   3.274   9.381 -0.0464  0.2421 -0.7321
  190POPC  H12Y21971   4.620   3.139   9.459  0.8380  0.2531 -0.0365
  190POPC  C31321972   4.720   3.292   9.334 -0.1421 -0.3739  0.1651
  190POPC  H13X21973   4.821   3.265   9.371 -1.0975 -3.1490  0.9641
  190POPC  H13Y21974   4.722   3.402   9.318  1.8338 -0.2975  0.6316
  190POPC  C31421975   4.701   3.229   9.192  0.2927  0.3635  0.0078
  190POPC  H14X21976   4.611   3.280   9.151 -0.5551 -0.8056  0.3755
  190POPC  H14Y21977   4.676   3.122   9.206 -0.7544  0.7017  0.8788
  190POPC  C31521978   4.833   3.242   9.115  0.3031 -1.0008  0.1751
  190POPC  H15X21979   4.847   3.166   9.034  0.2958 -1.1422  0.3063
  190POPC  H15Y21980   4.920   3.226   9.182  3.0905  4.6735 -1.5145
  190POPC  C31621981   4.862   3.378   9.051 -0.8110  0.0385 -0.3238
  190POPC  H16X21982   4.969   3.372   9.019 -0.3268  0.8862  1.0272
  190POPC  H16Y21983   4.846   3.457   9.127 -1.6799 -1.3887  1.0312
  190POPC  H16Z21984   4.796   3.392   8.963 -1.2379  1.8968  0.2501
  191POPC     N21985   5.956   3.142   6.475  0.0324 -0.1684  0.0652
  191POPC   C1221986   5.992   3.291   6.477 -0.5664 -0.2221 -0.0778
  191POPC  H12A21987   6.003   3.312   6.371 -0.8736 -1.0812 -0.2890
  191POPC  H12B21988   6.090   3.297   6.522 -0.2374  0.9517 -0.9201
  191POPC   C1321989   5.822   3.117   6.409  0.0028  0.3604 -0.1410
  191POPC  H13A21990   5.840   3.151   6.308  0.9191  2.9166  0.7945
  191POPC  H13B21991   5.794   3.013   6.406 -1.1277  0.6364  0.0629
  191POPC  H13C21992   5.750   3.174   6.467 -1.9341 -0.8181 -1.2593
  191POPC   C1421993   6.052   3.060   6.392 -0.1938  0.4216  0.3270
  191POPC  H14A21994   6.058   3.099   6.291  4.0080  0.7152  0.5390
  191POPC  H14B21995   6.150   3.055   6.436  0.1294  0.2639 -0.3913
  191POPC  H14C21996   6.017   2.958   6.381 -0.7235  0.8610 -2.9208
  191POPC   C1521997   5.955   3.081   6.611 -0.0984  0.3593  0.5776
  191POPC  H15A21998   5.950   2.974   6.599 -0.8209  0.5197 -0.8139
  191POPC  H15B21999   5.868   3.119   6.662  0.8094  1.8414  1.0970
  191POPC  H15C22000   6.050   3.095   6.661 -1.1067 -0.4036  2.8257
  191POPC   C1122001   5.889   3.384   6.547  0.0446 -0.4869  0.6851
  191POPC  H11A22002   5.946   3.474   6.580  0.6182  0.2091 -1.9252
  191POPC  H11B22003   5.841   3.328   6.629 -2.5756 -1.5710 -1.4376
  191POPC     P22004   5.789   3.552   6.366 -0.3893 -0.1401  0.3100
  191POPC   O1322005   5.662   3.552   6.289 -0.0717 -0.7105  0.5681
  191POPC   O1422006   5.912   3.546   6.288 -0.2983  0.6865  0.3717
  191POPC   O1222007   5.782   3.428   6.462 -0.0989  0.5215 -0.4004
  191POPC   O1122008   5.798   3.676   6.468 -0.3355 -0.1849  0.2074
  191POPC    C122009   5.678   3.748   6.497  0.2490 -0.2513  0.2819
  191POPC    HA22010   5.589   3.684   6.515  0.9701 -2.3880 -2.9477
  191POPC    HB22011   5.659   3.818   6.412  0.7894  0.2900  0.6005
  191POPC    C222012   5.694   3.821   6.633 -0.3171 -0.5659  0.1152
  191POPC    HS22013   5.776   3.896   6.627 -1.8211  1.0782 -0.5885
  191POPC   O2122014   5.716   3.720   6.734  0.0952 -0.2514  0.8688
  191POPC   C2122015   5.841   3.701   6.768  0.5576  0.0957 -0.3462
  191POPC   O2222016   5.936   3.774   6.740 -0.5493 -0.2507  0.0101
  191POPC   C2222017   5.849   3.584   6.860  0.1992 -0.4664  0.4611
  191POPC   H2R22018   5.785   3.500   6.824 -0.7773  0.0575  0.9241
  191POPC   H2S22019   5.809   3.614   6.960  0.1586  0.8682  0.0621
  191POPC    C322020   5.569   3.898   6.682 -0.8005  0.3088 -0.5015
  191POPC    HX22021   5.490   3.824   6.707 -1.9682  1.6294 -0.1264
  191POPC    HY22022   5.525   3.947   6.592  3.3467  2.3140 -1.6996
  191POPC   O3122023   5.596   3.988   6.795  0.2555 -0.5123  0.6187
  191POPC   C3122024   5.490   4.042   6.851  0.1831  0.7807  0.0396
  191POPC   O3222025   5.368   4.023   6.825  0.0813 -0.4148  0.5395
  191POPC   C3222026   5.534   4.157   6.938 -0.2657  0.4540  0.4182
  191POPC   H2X22027   5.508   4.252   6.887 -0.4170 -0.3325 -1.0339
  191POPC   H2Y22028   5.644   4.146   6.950  0.1262  1.3061 -1.9111
  191POPC   C2322029   5.991   3.525   6.884  0.6333  0.5999  0.1004
  191POPC   H3R22030   6.061   3.610   6.900 -1.1257  2.3387 -1.0922
  191POPC   H3S22031   6.019   3.479   6.786 -0.9836  0.7614 -0.4566
  191POPC   C2422032   5.996   3.410   6.992 -0.0575 -0.7660  0.2308
  191POPC   H4R22033   6.087   3.350   6.971  0.5786  0.4626 -0.6091
  191POPC   H4S22034   5.908   3.348   6.963  0.0707 -0.1995 -1.4209
  191POPC   C2522035   5.994   3.466   7.136 -0.6914 -0.0622 -1.2295
  191POPC   H5R22036   5.901   3.521   7.159  0.5005  0.0744  4.7556
  191POPC   H5S22037   6.076   3.539   7.154  0.4142 -0.7049 -3.3391
  191POPC   C2622038   5.999   3.364   7.253 -0.6328  0.3967  0.0363
  191POPC   H6R22039   6.102   3.322   7.249 -1.4473 -1.6296 -1.7445
  191POPC   H6S22040   5.926   3.282   7.234 -2.0151  1.8671 -1.2555
  191POPC   C2722041   5.974   3.441   7.391 -0.0354  0.1985 -0.2654
  191POPC   H7R22042   5.877   3.493   7.381 -1.0919 -1.5208  0.6230
  191POPC   H7S22043   6.047   3.522   7.414 -1.4295  1.7354 -1.0812
  191POPC   C2822044   5.956   3.336   7.501  0.1434 -0.0204  0.4964
  191POPC   H8R22045   6.055   3.296   7.534  0.1615  0.3312  0.8817
  191POPC   H8S22046   5.906   3.248   7.456 -0.6066  0.5511  0.2012
  191POPC   C2922047   5.878   3.357   7.626  0.0790 -0.3733 -0.4417
  191POPC   H9122048   5.799   3.285   7.649  0.9733 -0.3594  3.3043
  191POPC  C21022049   5.901   3.441   7.728 -0.1907  0.6708  0.4417
  191POPC  H10122050   5.816   3.464   7.794  0.4171 -0.6030  1.7133
  191POPC  C21122051   6.018   3.530   7.721 -0.4133  0.2220  0.8793
  191POPC  H11R22052   5.999   3.622   7.661  2.5954  0.7476  0.5982
  191POPC  H11S22053   6.102   3.477   7.672 -1.8857 -1.7523  0.3944
  191POPC  C21222054   6.059   3.585   7.856  0.1748  0.0650  0.4896
  191POPC  H12R22055   5.985   3.656   7.898  0.7649  1.2158 -0.3211
  191POPC  H12S22056   6.153   3.644   7.841  0.2711 -0.8490 -3.8909
  191POPC  C21322057   6.102   3.471   7.949 -0.5483  0.3844  0.0213
  191POPC  H13R22058   6.160   3.402   7.884 -1.8082  0.6797 -1.4694
  191POPC  H13S22059   6.006   3.420   7.974 -0.8096  0.2920 -1.1278
  191POPC  C21422060   6.174   3.518   8.077 -0.3472 -0.4123  0.2197
  191POPC  H14R22061   6.112   3.593   8.130 -0.8090 -0.1334 -0.6932
  191POPC  H14S22062   6.269   3.565   8.043 -0.8369 -0.9905 -2.1114
  191POPC  C21522063   6.200   3.402   8.175  0.3145 -0.0433 -0.1683
  191POPC  H15R22064   6.271   3.436   8.253 -1.8360  2.8547  0.6992
  191POPC  H15S22065   6.250   3.319   8.121 -0.5444 -0.1329 -0.8552
  191POPC  C21622066   6.071   3.340   8.235  1.1990  0.4772 -0.4211
  191POPC  H16R22067   6.004   3.303   8.154  0.6167 -0.3580  0.4170
  191POPC  H16S22068   6.012   3.412   8.296  1.9167 -0.7049  1.7839
  191POPC  C21722069   6.106   3.231   8.335 -0.1861  0.1090 -0.2019
  191POPC  H17R22070   6.173   3.162   8.280 -3.1319 -1.4992 -2.0243
  191POPC  H17S22071   6.019   3.171   8.367 -2.9532  2.4478 -2.6580
  191POPC  C21822072   6.175   3.279   8.461 -0.6984  0.4691 -0.2644
  191POPC  H18R22073   6.269   3.331   8.436 -2.4699  3.5259 -1.1271
  191POPC  H18S22074   6.186   3.201   8.539  0.8865 -0.6044 -1.5017
  191POPC  H18T22075   6.108   3.357   8.504 -0.5351  0.9938 -0.9398
  191POPC   C3322076   5.465   4.155   7.076 -0.2592  0.3170 -0.3885
  191POPC   H3X22077   5.443   4.051   7.107 -0.7270  0.4759 -0.1758
  191POPC   H3Y22078   5.362   4.191   7.056  0.3374  0.6028 -3.5136
  191POPC   C3422079   5.554   4.205   7.200 -0.0221 -0.4353  0.7267
  191POPC   H4X22080   5.590   4.308   7.178  1.0444 -0.1808  3.3278
  191POPC   H4Y22081   5.650   4.151   7.215  0.8093  0.6641 -0.4387
  191POPC   C3522082   5.490   4.222   7.338 -0.0378 -0.3489 -0.4297
  191POPC   H5X22083   5.571   4.198   7.410  2.4164  2.1593 -2.1359
  191POPC   H5Y22084   5.423   4.136   7.359  0.0862 -0.5744 -0.9277
  191POPC   C3622085   5.433   4.356   7.378 -0.2429  0.4379  0.1376
  191POPC   H6X22086   5.366   4.383   7.294  1.3074 -1.2152 -1.7193
  191POPC   H6Y22087   5.514   4.432   7.386  0.7485 -0.5129 -0.6304
  191POPC   C3722088   5.359   4.349   7.515  0.0243  0.1690  0.5586
  191POPC   H7X22089   5.261   4.300   7.497  0.0122 -0.1566  1.4598
  191POPC   H7Y22090   5.339   4.452   7.554 -0.0551  0.3834 -0.0338
  191POPC   C3822091   5.452   4.281   7.624 -0.8347  0.5622 -0.2328
  191POPC   H8X22092   5.539   4.349   7.636  1.3450 -1.9057 -1.1754
  191POPC   H8Y22093   5.494   4.189   7.579 -0.1130  1.6304 -1.8462
  191POPC   C3922094   5.380   4.253   7.760  0.6464 -0.1854  0.1940
  191POPC   H9X22095   5.291   4.194   7.729  2.4094 -2.5004 -0.8207
  191POPC   H9Y22096   5.346   4.354   7.790  2.0979  0.8533 -1.4628
  191POPC  C31022097   5.477   4.192   7.860  0.3387 -0.8970  0.6001
  191POPC  H10X22098   5.551   4.270   7.885  0.0357 -0.1022 -0.8143
  191POPC  H10Y22099   5.532   4.109   7.812  0.4033 -0.3671 -0.2699
  191POPC  C31122100   5.397   4.156   7.989 -0.5729 -1.2941 -0.2331
  191POPC  H11X22101   5.297   4.113   7.964 -0.8739 -0.2982 -0.7657
  191POPC  H11Y22102   5.378   4.248   8.048 -1.3763 -0.2914 -2.0107
  191POPC  C31222103   5.483   4.069   8.079 -0.7585  0.0767  0.9530
  191POPC  H12X22104   5.564   4.126   8.128 -0.4590 -0.7443  1.4445
  191POPC  H12Y22105   5.534   3.991   8.018 -1.5697 -0.3956  0.8604
  191POPC  C31322106   5.390   3.995   8.170  0.2713  0.4309 -0.2403
  191POPC  H13X22107   5.319   3.937   8.106 -2.0911  0.2254  2.3665
  191POPC  H13Y22108   5.343   4.063   8.244 -0.6170  1.1540 -1.4301
  191POPC  C31422109   5.459   3.890   8.256  0.0680 -0.3584  0.7911
  191POPC  H14X22110   5.523   3.939   8.333  0.2566  1.0137 -0.2092
  191POPC  H14Y22111   5.515   3.833   8.179  0.1018  0.9123 -0.1500
  191POPC  C31522112   5.372   3.810   8.350 -0.1312 -0.0797 -0.3300
  191POPC  H15X22113   5.427   3.717   8.376 -0.1800  0.0005  0.0681
  191POPC  H15Y22114   5.293   3.780   8.278  0.1759 -1.7709 -0.0189
  191POPC  C31622115   5.310   3.879   8.476  0.2469  0.3046 -0.0713
  191POPC  H16X22116   5.219   3.824   8.509 -0.2954  2.2499  1.8930
  191POPC  H16Y22117   5.274   3.981   8.451  1.2328  0.3726 -1.2797
  191POPC  H16Z22118   5.395   3.880   8.547  1.2126 -4.4271 -0.8094
  192POPC     N22119   3.823   0.425   5.916  0.4144  0.0803 -0.6753
  192POPC   C1222120   3.951   0.452   5.998 -0.2232  0.5101  0.1530
  192POPC  H12A22121   3.922   0.491   6.095 -1.6521 -1.6180  0.6608
  192POPC  H12B22122   3.997   0.536   5.948 -0.8246  0.0643 -1.2060
  192POPC   C1322123   3.858   0.372   5.779  0.3129 -0.1241  0.1303
  192POPC  H13A22124   3.784   0.383   5.701  2.1298  0.1471 -1.6265
  192POPC  H13B22125   3.949   0.417   5.744 -0.1076  0.5452 -0.1217
  192POPC  H13C22126   3.883   0.270   5.805 -0.8045 -0.4746 -0.1065
  192POPC   C1422127   3.740   0.322   5.983 -0.2539  0.3048 -0.5249
  192POPC  H14A22128   3.721   0.353   6.084 -1.5635  0.5994 -0.8524
  192POPC  H14B22129   3.643   0.299   5.942 -1.1185  3.6545 -0.6112
  192POPC  H14C22130   3.801   0.232   5.983  1.3124  1.2888 -2.2509
  192POPC   C1522131   3.751   0.552   5.894  0.6785 -0.4686  0.0408
  192POPC  H15A22132   3.810   0.633   5.854 -1.1615  0.0973 -1.6833
  192POPC  H15B22133   3.708   0.587   5.987  0.3478 -1.5526  0.3065
  192POPC  H15C22134   3.671   0.531   5.824 -0.1019  0.5801  0.5907
  192POPC   C1122135   4.059   0.342   6.021  0.4432  0.1149  0.3110
  192POPC  H11A22136   4.140   0.388   6.082  1.0492  1.0075 -1.0909
  192POPC  H11B22137   4.110   0.319   5.924 -0.4485 -0.0634 -0.1261
  192POPC     P22138   3.972   0.222   6.237 -0.1468 -0.2506  0.1612
  192POPC   O1322139   4.095   0.173   6.301 -0.5468 -0.1261 -0.3911
  192POPC   O1422140   3.854   0.134   6.257  0.2875 -0.5912 -0.5526
  192POPC   O1222141   4.002   0.228   6.077 -0.6658 -0.1562 -0.3413
  192POPC   O1122142   3.940   0.368   6.280  0.3059 -0.6320 -0.4782
  192POPC    C122143   4.011   0.453   6.372  0.0131 -0.0921  0.3645
  192POPC    HA22144   3.995   0.558   6.338 -2.8138  0.1342  2.0872
  192POPC    HB22145   4.120   0.434   6.381  0.9082  2.9641 -2.0006
  192POPC    C222146   3.935   0.443   6.506  0.4655 -0.7166  0.1766
  192POPC    HS22147   3.980   0.515   6.578 -1.6690  0.8687  0.0203
  192POPC   O2122148   3.939   0.308   6.548 -0.2261  0.0004 -0.4249
  192POPC   C2122149   4.035   0.272   6.621  1.0092  0.3860 -0.2098
  192POPC   O2222150   4.133   0.335   6.648  0.0533  0.0800 -0.0511
  192POPC   C2222151   4.000   0.135   6.689 -0.7185 -0.5069  0.8060
  192POPC   H2R22152   4.010   0.054   6.613  0.1359 -0.5387  0.9362
  192POPC   H2S22153   3.894   0.131   6.719 -1.1652 -1.7695 -0.8136
  192POPC    C322154   3.784   0.486   6.490  0.1787 -0.0931  0.0764
  192POPC    HX22155   3.726   0.404   6.444 -1.2719 -0.5200  2.4980
  192POPC    HY22156   3.779   0.575   6.423  0.2058  1.0324  1.5126
  192POPC   O3122157   3.741   0.521   6.622  0.0560  0.0374  0.6076
  192POPC   C3122158   3.679   0.422   6.686  0.1150  0.8742 -0.4507
  192POPC   O3222159   3.668   0.308   6.652  0.1120  0.5518  0.8154
  192POPC   C3222160   3.607   0.472   6.807 -0.9128  0.2640 -0.0459
  192POPC   H2X22161   3.508   0.423   6.811 -0.0047 -1.6274  0.6662
  192POPC   H2Y22162   3.602   0.583   6.801 -0.2940  0.3825  1.3078
  192POPC   C2322163   4.085   0.112   6.815  0.1385  0.0632  0.7323
  192POPC   H3R22164   4.094   0.204   6.876 -0.7112  0.4205  0.3398
  192POPC   H3S22165   4.186   0.081   6.783 -1.2729 -2.4788 -1.7376
  192POPC   C2422166   4.021   0.011   6.921 -0.4477  0.7131  0.0385
  192POPC   H4R22167   4.065  -0.090   6.906 -0.6314  0.7329 -0.6822
  192POPC   H4S22168   3.913   0.006   6.899 -0.6198 -0.3268  1.0843
  192POPC   C2522169   4.038   0.054   7.063  0.2437 -0.3211 -0.1132
  192POPC   H5R22170   3.984   0.151   7.062 -0.3714 -0.6025  1.7273
  192POPC   H5S22171   4.142   0.070   7.097 -0.2186 -1.0377  1.7593
  192POPC   C2622172   3.971  -0.043   7.158 -0.1275  0.1512 -0.2723
  192POPC   H6R22173   4.023  -0.141   7.147 -0.9861 -0.5898  1.6697
  192POPC   H6S22174   3.863  -0.050   7.136  0.3155  0.3138 -2.7266
  192POPC   C2722175   3.999  -0.004   7.304 -0.2087 -0.3400 -0.1342
  192POPC   H7R22176   3.953   0.095   7.326 -0.6017 -0.6059  0.2511
  192POPC   H7S22177   4.108   0.010   7.321 -0.8715  2.8598  2.6603
  192POPC   C2822178   3.957  -0.113   7.403 -0.3368 -0.1972 -0.0166
  192POPC   H8R22179   4.016  -0.100   7.496 -0.0152 -1.1708 -0.0723
  192POPC   H8S22180   3.967  -0.212   7.354 -0.8072 -0.0151 -0.4997
  192POPC   C2922181   3.815  -0.111   7.442 -0.0045  0.7241  0.2072
  192POPC   H9122182   3.743  -0.115   7.358  1.0393  0.8428 -0.7096
  192POPC  C21022183   3.764  -0.110   7.567  0.4292  0.1065  0.5784
  192POPC  H10122184   3.655  -0.106   7.577  0.2262 -2.9475  0.6724
  192POPC  C21122185   3.827  -0.105   7.699 -0.8526  0.0214 -1.3242
  192POPC  H11R22186   3.930  -0.147   7.694 -1.0754 -0.8581  0.5017
  192POPC  H11S22187   3.767  -0.175   7.760  0.1119 -0.1111 -0.4983
  192POPC  C21222188   3.829   0.028   7.764 -0.0508 -0.2743 -0.4156
  192POPC  H12R22189   3.724   0.065   7.761 -0.1871 -0.6219  0.0715
  192POPC  H12S22190   3.890   0.099   7.704  0.0085 -0.1430 -0.2020
  192POPC  C21322191   3.866   0.032   7.909 -0.6002  0.3719 -0.2177
  192POPC  H13R22192   3.972   0.012   7.935 -0.2092  1.8187 -0.6001
  192POPC  H13S22193   3.795  -0.037   7.959 -2.0344  1.0423 -1.2560
  192POPC  C21422194   3.824   0.164   7.976 -0.3277  0.8493 -0.9703
  192POPC  H14R22195   3.716   0.174   7.952 -0.6655 -1.0907 -0.4317
  192POPC  H14S22196   3.892   0.242   7.936 -0.4717  2.8450  2.3341
  192POPC  C21522197   3.830   0.167   8.131  0.3322 -0.1099 -0.6512
  192POPC  H15R22198   3.735   0.120   8.166 -0.3953  2.1139  0.6005
  192POPC  H15S22199   3.825   0.271   8.170  1.2281  0.3305 -1.6678
  192POPC  C21622200   3.948   0.093   8.198  0.1829  0.1421  0.1466
  192POPC  H16R22201   4.042   0.140   8.162 -0.4108  0.9113 -0.4532
  192POPC  H16S22202   3.947  -0.015   8.175 -0.1514  0.1536  0.0999
  192POPC  C21722203   3.939   0.105   8.350 -0.1927 -0.1323 -0.2108
  192POPC  H17R22204   3.848   0.050   8.381 -0.3104  0.2682  0.1627
  192POPC  H17S22205   3.937   0.213   8.375  3.1183 -0.2074  0.7925
  192POPC  C21822206   4.059   0.046   8.424  0.3740 -0.3156 -0.5173
  192POPC  H18R22207   4.050  -0.064   8.436  0.1763 -0.3727 -1.1669
  192POPC  H18S22208   4.070   0.087   8.527  1.2066  1.2753 -1.2042
  192POPC  H18T22209   4.154   0.062   8.369  1.1669  0.6739  1.0597
  192POPC   C3322210   3.672   0.420   6.946  0.5595  0.6007  0.2843
  192POPC   H3X22211   3.678   0.309   6.938 -0.7714  0.5080  0.3915
  192POPC   H3Y22212   3.605   0.444   7.031  1.8620  0.8459  1.2775
  192POPC   C3422213   3.814   0.473   6.982  0.6056  0.5523 -0.4597
  192POPC   H4X22214   3.784   0.580   6.992 -4.7542 -0.6160 -0.7585
  192POPC   H4Y22215   3.888   0.460   6.901  1.5869  0.1963  0.4704
  192POPC   C3522216   3.852   0.411   7.118 -0.3621 -1.2451 -0.0070
  192POPC   H5X22217   3.962   0.426   7.122 -0.5313 -0.1917  1.2795
  192POPC   H5Y22218   3.823   0.304   7.119  0.8922 -1.5989 -0.1607
  192POPC   C3622219   3.790   0.481   7.238  0.0855  0.1416  0.3974
  192POPC   H6X22220   3.682   0.495   7.215  0.5104  1.4767 -0.9784
  192POPC   H6Y22221   3.836   0.582   7.229  1.5056 -0.4842  0.4002
  192POPC   C3722222   3.824   0.404   7.362  0.0241 -0.3553 -0.4122
  192POPC   H7X22223   3.788   0.300   7.347 -2.4673  0.5476 -1.0950
  192POPC   H7Y22224   3.776   0.453   7.449  0.0025  0.1692 -0.7155
  192POPC   C3822225   3.969   0.392   7.395 -0.0152 -0.6827 -0.7223
  192POPC   H8X22226   4.018   0.489   7.413 -0.5189 -0.4798 -0.4162
  192POPC   H8Y22227   4.029   0.344   7.314 -1.5054 -0.8022 -1.8032
  192POPC   C3922228   3.974   0.311   7.525 -0.5077 -0.3233  0.3679
  192POPC   H9X22229   3.954   0.203   7.512  0.0410 -0.2432 -1.2563
  192POPC   H9Y22230   3.904   0.345   7.604 -0.8864 -0.9013  0.2805
  192POPC  C31022231   4.121   0.313   7.577 -0.3165 -0.0808  0.4823
  192POPC  H10X22232   4.134   0.419   7.605 -0.9453 -0.0020  0.4873
  192POPC  H10Y22233   4.197   0.293   7.499 -1.0134 -0.9025 -0.0106
  192POPC  C31122234   4.144   0.216   7.695  0.1853 -0.0203  0.4795
  192POPC  H11X22235   4.137   0.108   7.670  0.8008 -0.1676  0.9145
  192POPC  H11Y22236   4.051   0.244   7.749  1.0021  0.7334  1.5394
  192POPC  C31222237   4.273   0.236   7.778 -0.0985  0.2763 -0.1429
  192POPC  H12X22238   4.365   0.234   7.715 -0.1759  0.8065 -0.2775
  192POPC  H12Y22239   4.279   0.149   7.847 -0.8893  1.0688  0.9497
  192POPC  C31322240   4.276   0.368   7.852  0.0057 -0.2147  0.1726
  192POPC  H13X22241   4.248   0.449   7.782 -1.4954 -2.2592 -1.7508
  192POPC  H13Y22242   4.381   0.389   7.883  0.2666  0.9082 -1.3586
  192POPC  C31422243   4.191   0.373   7.977 -0.5411  0.0013  0.0743
  192POPC  H14X22244   4.223   0.284   8.035 -1.2947 -0.0264  0.4572
  192POPC  H14Y22245   4.081   0.376   7.961 -0.5490  0.4417  0.2052
  192POPC  C31522246   4.216   0.501   8.068 -0.5223  0.4173  0.1113
  192POPC  H15X22247   4.197   0.596   8.014  1.2457  0.3968 -0.6196
  192POPC  H15Y22248   4.326   0.505   8.083 -0.3152 -0.0561 -1.2174
  192POPC  C31622249   4.145   0.503   8.198 -0.1197 -0.3387  0.6697
  192POPC  H16X22250   4.200   0.436   8.266  1.4883  1.8832  1.6928
  192POPC  H16Y22251   4.041   0.467   8.179 -0.0404 -0.8872  1.2735
  192POPC  H16Z22252   4.137   0.608   8.235  1.6996  0.1568 -0.2235
  193SOD    SOD22253   5.731   6.334  16.803 -0.3027 -0.7510 -0.2636
  194SOD    SOD22254   6.766   3.663  11.390 -0.1923  0.0006 -0.0143
  195SOD    SOD22255   0.359   6.564  13.607  0.0186  0.1497 -0.3326
  196SOD    SOD22256   0.943   6.535  12.046  0.4303  0.1053 -0.0449
  197SOD    SOD22257   3.009   1.462   4.176  0.0365  0.3088  0.8138
  198SOD    SOD22258   6.576   4.543  13.637 -0.0346  0.1499 -0.5534
  199SOD    SOD22259   6.421   3.773   3.958  0.1400  0.3108  0.4728
  200SOD    SOD22260   5.092   3.733   6.713  0.0423 -0.2719 -0.0087
  201SOD    SOD22261   4.832   2.154   3.353  0.2452  0.3461  0.3777
  202SOD    SOD22262   2.885   1.878  11.171  0.0304 -0.2957  0.0588
  203SOD    SOD22263   2.620   2.733  13.319 -0.0429  0.0421 -0.5343
  204SOD    SOD22264   0.734   4.647   4.891  0.0470 -0.1531  0.4814
  205SOD    SOD22265   0.622   0.518  13.295 -0.3596 -0.4115 -0.2061
  206SOD    SOD22266   1.447   2.529  11.872  0.1939 -0.1863  0.3174
  207SOD    SOD22267   5.217   5.942  12.161 -0.4115 -0.5529 -0.3868
  208SOD    SOD22268   4.411   4.984   6.429  0.5213  0.0076  0.0725
  209SOD    SOD22269   1.197   6.115  15.260  0.6973  0.3806  0.2159
  210SOD    SOD22270   0.989   4.404  13.133  0.3325 -0.3277 -0.0323
  211SOD    SOD22271   0.541   5.615   3.196 -0.2981 -0.0541 -0.4232
  212SOD    SOD22272   6.730   1.384  12.449  0.3117  0.1285  0.0060
  213SOD    SOD22273   5.320   6.687   1.148 -0.0929  0.0440 -0.3304
  214SOD    SOD22274   3.730   4.938  14.136  0.3320 -0.2743 -0.0746
  215SOD    SOD22275   5.468   2.572   5.445 -0.0991  0.2941 -0.0501
  216SOD    SOD22276   2.621   4.229   6.057  0.1182  0.4678 -0.2285
  217SOD    SOD22277   6.374   5.427   5.138  0.3215 -0.0675  0.3252
  218SOD    SOD22278   5.481   4.105   5.366  0.0435 -0.3478 -0.2908
  219SOD    SOD22279   4.588   6.586   6.071  0.0877  0.1104 -0.1593
  220SOD    SOD22280   0.577   1.511  16.244 -0.5280  0.0124 -0.1314
  221SOD    SOD22281   3.392   6.137  16.142 -0.2683  0.4829 -0.1952
  222SOD    SOD22282   5.163   1.018  10.801  0.6716  0.1112 -0.2044
  223SOD    SOD22283   2.472   1.538  13.534 -0.0125  0.1148 -0.3080
  224SOD    SOD22284   5.705   1.757  16.376 -0.1218  0.1861  0.3488
  225SOD    SOD22285   1.466   4.776  11.909 -0.5391  0.1642  0.6243
  226SOD    SOD22286   1.086   2.308   6.628 -0.4525 -0.1856 -0.0523
  227SOD    SOD22287   5.662   4.344  15.910 -0.1565 -0.3793  0.0893
  228SOD    SOD22288   1.950   5.362  14.011  0.6869 -0.0564 -0.2677
  229SOD    SOD22289   3.932   3.542   6.613  0.4341  0.4105  0.0830
  230SOD    SOD22290   0.658   2.706   1.549  0.3999 -0.1651  0.2018
  231SOD    SOD22291   0.277   3.760   4.278 -0.2862 -0.6337 -0.0763
  232SOD    SOD22292   6.004   2.870  16.421  0.1861 -0.5283  0.8866
  233SOD    SOD22293   1.431   5.362  10.895 -0.0298 -0.4506 -0.3704
  234SOD    SOD22294   5.103   3.486  13.300 -0.0518  0.2402 -0.1216
  235SOD    SOD22295   6.455   2.944   3.957  0.3672 -0.3015  0.0120
  236SOD    SOD22296   5.136   1.645  16.586 -0.4501 -0.1968 -0.2521
  237SOD    SOD22297   3.518   4.496  12.632  0.1557  0.4972  0.6542
  238SOD    SOD22298   5.993   1.514  12.581 -0.2760 -0.1726  0.0513
  239SOD    SOD22299   4.349   0.776  14.928 -0.2521 -0.7728 -0.5794
  240SOD    SOD22300   3.965   1.156  11.424  0.0647 -0.5687  0.6143
  241SOD    SOD22301   3.631   2.431   5.962 -0.2659  0.3997 -0.2267
  242SOD    SOD22302   3.137   5.600   4.926  0.7738 -0.4034 -0.2947
  243SOD    SOD22303   0.219   5.561   4.526 -0.2128  0.3664 -0.3822
  244SOD    SOD22304   1.144   2.616  17.155  0.3123 -0.5699 -0.6862
  245SOD    SOD22305   0.867   5.919   2.364  0.2286 -0.0474 -0.1028
  246SOD    SOD22306   5.427   4.416   5.956 -0.3770  0.2080 -0.1822
  247SOD    SOD22307   0.054   3.029   2.197  0.0926  0.5545  0.1348
  248SOD    SOD22308   3.161   4.701  11.677  0.1849 -0.1484  0.2492
  249SOD    SOD22309   0.469   5.513  11.381 -0.2377 -0.3711 -0.2120
  250SOD    SOD22310   0.052   5.070   0.251  0.1600 -0.2066 -0.2888
  251SOD    SOD22311   4.892   6.335  11.049 -0.7326  0.0675 -0.5350
  252SOD    SOD22312   2.336   1.833   1.107  0.7551  0.1673  0.2410
  253SOD    SOD22313   0.750   0.011   6.040 -0.4810  0.0402  0.0772
  254SOD    SOD22314   2.106   3.636   5.958 -0.2789  0.1080 -0.0596
  255SOD    SOD22315   2.408   4.036  11.813  0.4196 -0.0262  0.0336
  256SOD    SOD22316   6.004   6.340   5.532  0.3894  0.1095  0.0701
  257SOD    SOD22317   4.507   0.125   3.234 -0.2555  0.6276  0.2483
  258SOD    SOD22318   4.541   1.805  12.107  0.1004  0.1838 -1.1130
  259SOD    SOD22319   2.671   4.780  12.985 -0.4841 -0.0704 -0.0868
  260SOD    SOD22320   5.984   6.057  13.953  0.2734  0.1984  0.1400
  261SOD    SOD22321   5.802   1.040  10.757 -0.0087 -0.4407  0.0269
  262SOD    SOD22322   4.153   3.585   2.469  0.0200  0.3620  0.3108
  263SOD    SOD22323   3.413   5.708  15.250  0.5140 -0.7427 -0.1868
  264SOD    SOD22324   0.634   5.365   1.505 -0.4973  0.0720 -0.2700
  265SOD    SOD22325   2.484   4.694  17.006 -0.4715 -0.1093  0.2760
  266SOD    SOD22326   2.168   3.212   1.861 -0.2694  0.1842  0.1290
  267SOD    SOD22327   1.012   4.611  11.471  0.5365  0.7036 -0.3141
  268SOD    SOD22328   4.943   3.212   4.435 -0.1645  0.1896 -0.1551
  269SOD    SOD22329   1.107   4.906   3.026  0.2607 -0.0520 -0.6016
  270CLA    CLA22330   4.336   4.246   4.228 -0.2858 -0.1466 -0.1265
  271CLA    CLA22331   1.509   2.767  13.408 -0.1944  0.1324  0.0490
  272CLA    CLA22332   4.937   0.850   4.534  0.0043 -0.0346 -0.1535
  273CLA    CLA22333   4.700   1.088   0.050 -0.2388 -0.0853  0.1158
  274CLA    CLA22334   0.645   4.717  11.865  0.3485 -0.0911  0.3603
  275CLA    CLA22335   6.210   3.221  12.782 -0.1853  0.1948  0.1777
  276CLA    CLA22336   0.147   3.677   3.871 -0.0422  0.3895 -0.0551
  277CLA    CLA22337   2.502   5.138   1.831 -0.1510 -0.1862  0.0346
  278CLA    CLA22338   2.797   4.328  13.249 -0.1585 -0.3423 -0.1518
  279CLA    CLA22339   4.818   2.906  12.595 -0.1712 -0.0134  0.2112
  280CLA    CLA22340   4.968   4.247  14.414  0.2475  0.4734 -0.3225
  281CLA    CLA22341   3.508   2.604   0.254 -0.1160 -0.1427  0.2440
  282CLA    CLA22342   2.163   5.895   3.761  0.9024  0.3380  0.4963
  283CLA    CLA22343   1.287   2.101   1.667  0.3092  0.3668 -0.1044
  284CLA    CLA22344   1.052   6.083   1.873 -0.0976 -0.1125  0.4489
  285CLA    CLA22345   5.777   3.647   4.466 -0.2770  0.0117 -0.3260
  286CLA    CLA22346   5.210   0.828  14.845 -0.0428  0.6993  0.2992
  287CLA    CLA22347   1.881   5.873   3.406  0.1123  0.0928 -0.2117
  288CLA    CLA22348   1.561   6.310  14.955 -0.1138  0.3548 -0.1248
  289CLA    CLA22349   6.733   6.188  16.474 -0.2639  0.4620  0.1323
  290CLA    CLA22350   1.542   1.547   3.727  0.0881 -0.1612 -0.2489
  291CLA    CLA22351   0.528   3.924   5.056  0.3855 -0.1816 -0.1462
  292CLA    CLA22352   6.043   1.193   1.065  0.0240  0.0135  0.0072
  293CLA    CLA22353   2.480   4.990  12.355 -0.0110 -0.3473 -0.2135
  294CLA    CLA22354   5.986   3.611  15.559 -0.1876  0.1934  0.3389
  295CLA    CLA22355   5.899   0.077   2.942  0.2391 -0.3289  0.1287
  296CLA    CLA22356   1.363   2.614   0.630 -0.2375 -0.1870 -0.3888
  297CLA    CLA22357   0.263   6.459   3.366  0.3549  0.0337 -0.3837
  298CLA    CLA22358   0.548   3.847   5.654 -0.4065 -0.0211 -0.1394
  299CLA    CLA22359   0.037   2.998   0.166 -0.3299  0.0359 -0.1301
  300CLA    CLA22360   3.961   6.031  15.597  0.5230 -0.2754  0.0273
  301CLA    CLA22361   1.114   4.108   4.961 -0.2674 -0.1654 -0.0580
  302CLA    CLA22362   3.330   4.697  14.963  0.1101  0.3173 -0.1731
  303CLA    CLA22363   2.024   2.277  15.112 -0.1777 -0.0638  0.0187
  304CLA    CLA22364   6.173   3.468   2.140 -0.1419  0.4406 -0.5285
  305CLA    CLA22365   1.271   3.681  11.380  0.2260 -0.1881  0.2378
  306CLA    CLA22366   4.664   5.031  15.617 -0.3877  0.0642  0.0715
  307CLA    CLA22367   4.632   0.602  16.670 -0.0039 -0.1444  0.4281
  308CLA    CLA22368   1.735   3.157   4.677 -0.0868 -0.1797 -0.3618
  309CLA    CLA22369   5.485   1.848  16.255 -0.4770  0.0058 -0.3969
  310CLA    CLA22370   2.202   0.183  15.663  0.2361  0.0735  0.3948
  311CLA    CLA22371   4.414   5.197   1.561 -0.1032 -0.2977 -0.4258
  312CLA    CLA22372   6.422   6.712  12.091 -0.5231 -0.1423 -0.5110
  313CLA    CLA22373   1.233   4.577  12.776 -0.1500 -0.3069  0.2346
  314CLA    CLA22374   3.741   3.173   2.147  0.4237 -0.0459 -0.5315
  315CLA    CLA22375   0.082   3.249  14.236  0.1487  0.0786  0.0533
  316CLA    CLA22376   6.431   6.355  14.381  0.0708 -0.7826  0.2743
  317CLA    CLA22377   0.872   4.664   2.722 -0.2452  0.1930 -0.1317
  318CLA    CLA22378   5.921   1.006  13.207 -0.1791 -0.5409 -0.2322
  319CLA    CLA22379   5.175   4.125  13.631  0.0860  0.2528  0.3835
  320CLA    CLA22380   0.530   6.397  13.078 -0.0904  0.2591 -0.2641
  321CLA    CLA22381   2.814   4.106   4.032 -0.1860 -0.1648  0.2818
  322CLA    CLA22382   3.805   4.898   3.234 -0.0568  0.4946  0.1285
  323TIP3   OH222383   2.888   5.202  15.073 -0.0881 -0.2260  0.0735
  323TIP3    H122384   2.950   5.133  15.050  0.1248 -0.5069  1.4491
  323TIP3    H222385   2.874   5.193  15.167  0.6461  2.1623  0.4779
  324TIP3   OH222386   4.460   3.766   4.592 -0.0106 -0.2255  0.3879
  324TIP3    H122387   4.538   3.715   4.576  0.7717  0.5726  1.4449
  324TIP3    H222388   4.418   3.776   4.507  0.0798 -2.1583  0.0932
  325TIP3   OH222389   4.082   2.417   6.205  0.1240  0.0830 -0.0828
  325TIP3    H122390   4.037   2.347   6.251 -1.2121  2.3020  2.3067
  325TIP3    H222391   4.154   2.442   6.263  0.1656  1.1044 -0.5348
  326TIP3   OH222392   5.653   4.071  13.871 -0.4602 -0.2366  0.2388
  326TIP3    H122393   5.615   4.053  13.784 -0.7382 -0.4876  0.4083
  326TIP3    H222394   5.666   4.166  13.872 -1.0807 -0.1450  0.1666
  327TIP3   OH222395   4.278   5.766  12.459  0.4852  0.0387 -0.5701
  327TIP3    H122396   4.372   5.748  12.462  0.4355 -0.1670 -0.1309
  327TIP3    H222397   4.237   5.679  12.463  0.2672  0.1625 -0.1343
  328TIP3   OH222398   6.389   4.665  16.281 -0.4381 -0.1068  0.2000
  328TIP3    H122399   6.479   4.679  16.253 -1.1562 -0.2279 -2.3827
  328TIP3    H222400   6.373   4.572  16.266 -1.4457  0.2186 -0.9652
  329TIP3   OH222401   0.743   5.162  16.705  0.5358  0.3247  0.5483
  329TIP3    H122402   0.749   5.124  16.792  0.0659  0.7114  0.7550
  329TIP3    H222403   0.833   5.181  16.681  1.1678 -3.2960 -0.6648
  330TIP3   OH222404   1.395   1.600   3.096 -0.0311  0.0920 -0.5831
  330TIP3    H122405   1.325   1.599   3.161  0.1513  1.5330 -0.3321
  330TIP3    H222406   1.473   1.573   3.144 -0.6232 -3.1622 -1.2225
  331TIP3   OH222407   2.281   1.450   4.395  0.2720  0.5871  0.3583
  331TIP3    H122408   2.235   1.468   4.312 -0.6842  0.6348  0.8825
  331TIP3    H222409   2.221   1.483   4.462  1.4423  1.3827  1.0422
  332TIP3   OH222410   3.190   3.081  10.881 -0.5425 -0.3285 -0.2061
  332TIP3    H122411   3.261   3.063  10.942 -1.2921 -0.7251  0.5603
  332TIP3    H222412   3.230   3.071  10.794  0.2999 -0.6631  0.2124
  333TIP3   OH222413   3.101   0.907   4.621  0.2971 -0.5250 -0.6684
  333TIP3    H122414   3.125   0.951   4.702  1.1468  1.4017 -1.8778
  333TIP3    H222415   3.174   0.926   4.561 -0.1193 -2.1850 -1.7917
  334TIP3   OH222416   2.406   0.681  17.053  0.1377  0.1671  0.3242
  334TIP3    H122417   2.366   0.681  17.140 -3.7871 -0.3678 -1.2686
  334TIP3    H222418   2.428   0.590  17.036 -2.7762 -0.5069 -0.5479
  335TIP3   OH222419   1.196   5.369  15.028  0.2937  0.0305  0.2307
  335TIP3    H122420   1.151   5.382  15.111  0.5387 -1.1393  0.5677
  335TIP3    H222421   1.158   5.289  14.991  1.7781 -0.7898  0.3545
  336TIP3   OH222422   4.135   3.659   2.971  0.1160 -0.4394  0.0840
  336TIP3    H122423   4.039   3.658   2.965 -0.0298 -2.7927  1.5538
  336TIP3    H222424   4.157   3.578   3.018  2.6852  1.1940  1.9784
  337TIP3   OH222425   3.323   0.524   2.744 -0.2427  0.3156 -0.0555
  337TIP3    H122426   3.353   0.449   2.796 -0.1312  0.2347 -0.2392
  337TIP3    H222427   3.283   0.583   2.809  1.2065  0.8909  0.3526
  338TIP3   OH222428   2.033   1.859   2.781  0.0765 -0.3261  0.2023
  338TIP3    H122429   2.082   1.917   2.722  0.2845 -0.8099 -0.1053
  338TIP3    H222430   1.951   1.842   2.735 -0.7977  1.1866  1.0949
  339TIP3   OH222431   3.709   5.286   4.858 -0.2108  0.6191  0.5159
  339TIP3    H122432   3.645   5.242   4.802 -1.4692  1.1706  1.4712
  339TIP3    H222433   3.660   5.357   4.900  0.8400  0.6039  1.8462
  340TIP3   OH222434   0.661   5.861  15.570  0.3389 -0.3068  0.0877
  340TIP3    H122435   0.673   5.849  15.664  0.4340  1.6839  0.3570
  340TIP3    H222436   0.570   5.835  15.554  0.4959 -1.2258  0.5949
  341TIP3   OH222437   3.570   0.040  13.188 -0.1342  0.3156  0.0195
  341TIP3    H122438   3.503  -0.023  13.162 -0.8983  1.9951 -2.3886
  341TIP3    H222439   3.522   0.111  13.229  0.6765 -0.3590  2.2797
  342TIP3   OH222440   2.322   5.242  10.581  0.1885  0.6116 -0.0576
  342TIP3    H122441   2.355   5.331  10.565 -1.1626  0.9415 -1.2432
  342TIP3    H222442   2.228   5.254  10.599  0.0336 -0.5489  0.0023
  343TIP3   OH222443   0.884   1.242  11.282 -0.3509 -0.0354 -0.2756
  343TIP3    H122444   0.881   1.324  11.234 -0.9593  0.6790  0.9185
  343TIP3    H222445   0.932   1.182  11.225 -0.9655  0.7815 -1.7106
  344TIP3   OH222446   4.249   3.950  11.840  0.3776 -0.3579 -0.5735
  344TIP3    H122447   4.345   3.954  11.835  0.4499 -0.9248  0.1626
  344TIP3    H222448   4.227   3.996  11.922 -0.0723  0.7302 -1.2776
  345TIP3   OH222449   2.107   1.787   1.700  0.0052 -0.0401  0.2066
  345TIP3    H122450   2.178   1.776   1.763  0.1109 -1.1474 -0.0865
  345TIP3    H222451   2.129   1.868   1.653 -0.9635  1.7770  2.6926
  346TIP3   OH222452   3.142   1.447  14.665 -0.0221 -0.2409 -0.7025
  346TIP3    H122453   3.108   1.362  14.636  0.9506 -1.1530  0.6433
  346TIP3    H222454   3.172   1.430  14.755  0.3020  1.5132 -0.4550
  347TIP3   OH222455   2.619   4.630  16.013  0.1301 -0.2577 -0.3062
  347TIP3    H122456   2.686   4.588  15.959  1.5012  2.3930 -0.8340
  347TIP3    H222457   2.582   4.697  15.957 -1.0739  0.1064  0.8815
  348TIP3   OH222458   4.355   0.533  15.956 -0.2690 -0.2737 -0.1300
  348TIP3    H122459   4.383   0.550  16.047  1.8415  0.5575 -0.8669
  348TIP3    H222460   4.344   0.620  15.918  4.0005 -0.3447 -2.0465
  349TIP3   OH222461   2.088   2.961   2.378 -0.4000  0.2294 -0.1906
  349TIP3    H122462   2.049   2.909   2.308  0.9318 -0.6268 -0.3259
  349TIP3    H222463   2.088   2.904   2.454 -2.2563  1.3110  0.6914
  350TIP3   OH222464   5.315   2.511  11.546  0.0708  0.2169  0.2479
  350TIP3    H122465   5.296   2.477  11.459  0.6118 -0.5051  0.4043
  350TIP3    H222466   5.396   2.562  11.534  1.0574 -1.2016  0.6116
  351TIP3   OH222467   1.796   5.885  14.884 -0.2834  0.3853  0.4445
  351TIP3    H122468   1.802   5.940  14.806  2.3487 -0.7726 -0.2821
  351TIP3    H222469   1.756   5.803  14.853  0.2989  0.1110  0.4059
  352TIP3   OH222470   0.005   0.208  11.546 -0.5165  0.1694 -0.4575
  352TIP3    H122471   0.092   0.205  11.507 -0.0912  1.7406  0.2884
  352TIP3    H222472  -0.054   0.216  11.471  0.0943  0.5851 -0.9036
  353TIP3   OH222473   4.125   4.736  16.713  0.0976 -0.2119  0.3603
  353TIP3    H122474   4.217   4.752  16.734  0.0841 -0.2688  0.4637
  353TIP3    H222475   4.095   4.817  16.672 -0.3446  0.5429  2.0920
  354TIP3   OH222476   1.517   3.165  14.596 -0.0525  0.4882  0.0363
  354TIP3    H122477   1.430   3.132  14.573  0.2314  0.1042 -0.5133
  354TIP3    H222478   1.558   3.092  14.643  0.1821  0.4519 -0.2231
  355TIP3   OH222479   5.095   0.250   4.191 -0.4060 -0.0131  0.4272
  355TIP3    H122480   5.083   0.331   4.241  0.4105  1.1447 -1.1797
  355TIP3    H222481   5.162   0.271   4.126 -0.4794 -1.8715 -0.3204
  356TIP3   OH222482   6.719   1.745  16.359  0.9937  0.8355  0.1466
  356TIP3    H122483   6.626   1.736  16.339  1.4361 -0.3307 -1.6771
  356TIP3    H222484   6.750   1.815  16.302  1.3857  0.6635  0.1403
  357TIP3   OH222485   5.440   5.961  15.247 -0.2433 -0.2311 -0.3035
  357TIP3    H122486   5.422   5.991  15.158  0.2603 -3.1841 -1.5046
  357TIP3    H222487   5.419   5.867  15.245  0.8104 -0.5925  2.4017
  358TIP3   OH222488   5.988   1.614  16.318  0.2889 -0.0883 -0.7054
  358TIP3    H122489   6.069   1.618  16.266  1.0094 -2.3174  0.1141
  358TIP3    H222490   5.920   1.591  16.255  0.8941 -1.3242 -0.9336
  359TIP3   OH222491   3.146   2.279  16.259 -0.2559 -0.1959 -0.5189
  359TIP3    H122492   3.218   2.304  16.201 -1.3373 -0.5656 -2.1038
  359TIP3    H222493   3.067   2.309  16.213 -1.2359 -1.6383  0.1316
  360TIP3   OH222494   1.406   4.805   0.759 -0.1243 -0.5778  0.0422
  360TIP3    H122495   1.370   4.796   0.670  0.9571 -0.3949 -0.4290
  360TIP3    H222496   1.492   4.764   0.754  0.8462  1.3242  0.4322
  361TIP3   OH222497   4.702   2.402  13.098 -0.3948 -0.2569  0.1070
  361TIP3    H122498   4.761   2.353  13.155  0.7426  0.0400 -0.8036
  361TIP3    H222499   4.679   2.340  13.028 -1.6411 -0.5596  0.7517
  362TIP3   OH222500   3.331   2.410  17.038 -0.0463  0.0682 -0.4750
  362TIP3    H122501   3.310   2.502  17.055  0.6981  0.1088  0.2703
  362TIP3    H222502   3.393   2.413  16.965  1.0475  0.2685  0.4306
  363TIP3   OH222503   1.862   1.442  12.905 -0.3235 -0.3098 -0.1538
  363TIP3    H122504   1.841   1.367  12.960  1.0397 -0.8743 -0.3826
  363TIP3    H222505   1.787   1.450  12.846  0.2741 -2.6200 -1.3325
  364TIP3   OH222506   6.143   2.403  16.084  0.3334  0.2105  0.4342
  364TIP3    H122507   6.121   2.354  16.005 -2.4490  2.1543 -0.1167
  364TIP3    H222508   6.238   2.416  16.078  0.7591 -2.7097 -0.6945
  365TIP3   OH222509   1.155   1.328  12.037  0.3744  0.5386 -0.3685
  365TIP3    H122510   1.223   1.265  12.062 -0.2849  0.0554  0.2570
  365TIP3    H222511   1.120   1.295  11.954 -0.4510 -0.3399  0.3034
  366TIP3   OH222512   6.626   5.290  14.879  0.5977 -0.3497  0.1451
  366TIP3    H122513   6.665   5.237  14.949 -0.1211 -0.1962  0.6776
  366TIP3    H222514   6.548   5.329  14.919  0.9605  0.8998 -0.3215
  367TIP3   OH222515   5.038   6.333  14.277 -0.4471 -0.2724  0.3468
  367TIP3    H122516   5.104   6.374  14.221  0.2070  1.2000  2.1067
  367TIP3    H222517   5.007   6.258  14.227  2.4993 -0.9639 -0.5920
  368TIP3   OH222518   6.247   4.257   2.153  0.5101 -0.8487  0.3114
  368TIP3    H122519   6.279   4.331   2.205 -0.0427 -0.1317 -0.3297
  368TIP3    H222520   6.319   4.195   2.151  1.4706  0.2555 -0.2115
  369TIP3   OH222521   0.890   5.740   6.853  0.1451 -0.1120 -0.1926
  369TIP3    H122522   0.876   5.767   6.763 -1.1400 -1.1598 -0.3478
  369TIP3    H222523   0.982   5.715   6.858  0.3840  0.5657 -1.0211
  370TIP3   OH222524   4.723   3.925   5.375  0.0499  0.1921  0.1734
  370TIP3    H122525   4.759   3.995   5.430 -2.0957  0.7394  1.0033
  370TIP3    H222526   4.717   3.849   5.433 -0.5328  0.2450  0.1919
  371TIP3   OH222527   4.623   0.203   6.031  0.3142  0.2463 -0.0890
  371TIP3    H122528   4.659   0.258   6.100 -2.4296  0.5813  1.2020
  371TIP3    H222529   4.553   0.153   6.074  0.8041 -2.1656 -1.8633
  372TIP3   OH222530   2.394   5.771  16.019 -0.3972  0.3829 -0.1488
  372TIP3    H122531   2.426   5.685  15.993 -2.5303 -0.4276 -0.3418
  372TIP3    H222532   2.384   5.818  15.936  1.6170  1.1793  0.0234
  373TIP3   OH222533   5.904   5.386   5.028  0.0667 -0.3190 -0.6216
  373TIP3    H122534   5.871   5.447   4.962 -3.0144 -0.3760  0.7001
  373TIP3    H222535   5.855   5.407   5.107  2.3221 -1.4620  1.2088
  374TIP3   OH222536   5.440   6.691  12.781 -0.2023 -0.3560  0.1273
  374TIP3    H122537   5.420   6.719  12.870 -0.8097 -0.6312  0.0805
  374TIP3    H222538   5.524   6.645  12.788  0.3151  0.5898  0.3669
  375TIP3   OH222539   0.484   6.774   5.274  0.7470 -0.1146 -0.0230
  375TIP3    H122540   0.511   6.699   5.328 -0.0305 -0.7420 -0.4937
  375TIP3    H222541   0.445   6.835   5.336 -1.9033 -1.6404 -0.0385
  376TIP3   OH222542   3.302   1.637  13.860  0.4355  0.4154 -0.4632
  376TIP3    H122543   3.290   1.544  13.879  0.8949  0.9990  3.6277
  376TIP3    H222544   3.214   1.674  13.865  0.2314  0.2789 -2.2445
  377TIP3   OH222545   6.025   6.182   4.438 -0.0566  0.6016  0.6987
  377TIP3    H122546   6.118   6.175   4.459  0.2091 -0.1966 -0.6003
  377TIP3    H222547   6.020   6.253   4.373 -0.0054 -0.8136 -0.9160
  378TIP3   OH222548   4.566   4.123   1.836 -0.7176  0.2906  0.4754
  378TIP3    H122549   4.529   4.124   1.924 -0.6279 -0.0885  0.5179
  378TIP3    H222550   4.613   4.040   1.830 -0.3621  0.5023  0.2204
  379TIP3   OH222551   2.950   3.025   3.611  0.4188 -0.5259 -0.6781
  379TIP3    H122552   2.909   3.011   3.697 -0.5305  0.0970 -1.0134
  379TIP3    H222553   3.035   2.982   3.618  0.3308 -0.5361  0.5572
  380TIP3   OH222554   5.459   1.689  15.328  0.6814  0.2777 -0.0568
  380TIP3    H122555   5.425   1.777  15.344  1.0077  0.1456  1.5473
  380TIP3    H222556   5.385   1.631  15.344  0.9299  0.1603  0.7010
  381TIP3   OH222557   1.333   6.455   4.409 -0.0138 -0.6123  0.0571
  381TIP3    H122558   1.295   6.543   4.412  0.2612 -0.5201  1.8619
  381TIP3    H222559   1.428   6.470   4.418  0.2647 -1.0072 -1.7212
  382TIP3   OH222560   1.810   5.126   5.428  0.1452 -0.0438 -0.9646
  382TIP3    H122561   1.881   5.127   5.364  0.8544  1.0034 -0.2140
  382TIP3    H222562   1.852   5.156   5.509 -0.4943 -2.1980  0.2450
  383TIP3   OH222563   3.608   6.094   1.391  0.1407  0.0488  0.3095
  383TIP3    H122564   3.600   6.067   1.482 -0.3114 -0.3207  0.1661
  383TIP3    H222565   3.619   6.189   1.394 -1.5060  0.2513  0.6775
  384TIP3   OH222566   5.554   3.577   5.237  0.0208  0.7619 -0.1666
  384TIP3    H122567   5.504   3.564   5.319  0.2406 -1.1374 -0.2755
  384TIP3    H222568   5.496   3.544   5.169  0.6256  0.4395 -0.5330
  385TIP3   OH222569   6.231   0.902   6.630 -0.5858  0.4279  0.1577
  385TIP3    H122570   6.253   0.975   6.688  0.0522 -1.0173  1.8192
  385TIP3    H222571   6.316   0.873   6.596 -0.7596  0.0507  0.0458
  386TIP3   OH222572   4.229   0.138  11.235 -0.0654 -0.4341  0.3123
  386TIP3    H122573   4.299   0.191  11.271 -0.5920  0.4361  0.0800
  386TIP3    H222574   4.250   0.129  11.142  1.1475 -2.4489  0.7329
  387TIP3   OH222575   3.648   1.023  14.365 -0.0946 -0.1976  0.0280
  387TIP3    H122576   3.727   0.996  14.318 -0.2658 -0.2479 -0.2336
  387TIP3    H222577   3.645   0.966  14.441  1.5628  1.5505  1.4977
  388TIP3   OH222578   6.077   4.810  13.087 -0.2642 -0.4606 -0.8084
  388TIP3    H122579   5.994   4.764  13.101 -0.4527  0.6153  2.7920
  388TIP3    H222580   6.141   4.755  13.133  0.6283 -0.1978 -1.7321
  389TIP3   OH222581   4.716   0.216  11.279  0.1794  0.1069  0.2048
  389TIP3    H122582   4.663   0.137  11.295  1.0280 -0.3276  0.9325
  389TIP3    H222583   4.805   0.190  11.301  1.1085  0.1647 -3.0775
  390TIP3   OH222584   3.690   5.732  12.652  0.1294  0.3085  0.4182
  390TIP3    H122585   3.634   5.766  12.721 -1.1106  1.7715 -1.2033
  390TIP3    H222586   3.779   5.756  12.678 -0.3060  0.8349  1.4726
  391TIP3   OH222587   3.826   1.389   5.537  0.5376  0.3466 -1.1647
  391TIP3    H122588   3.903   1.346   5.574 -0.9678 -1.5698 -0.1185
  391TIP3    H222589   3.809   1.462   5.597 -0.3457 -1.1900  0.5535
  392TIP3   OH222590   0.760   4.302   5.865 -0.6329  0.5995  0.7574
  392TIP3    H122591   0.760   4.206   5.871  0.1496  0.6404  1.5758
  392TIP3    H222592   0.852   4.325   5.851 -1.0769  1.1238 -1.9698
  393TIP3   OH222593   6.523   1.806   3.112 -0.0170  0.6011  0.0876
  393TIP3    H122594   6.560   1.888   3.080  0.9354 -0.4844 -1.8095
  393TIP3    H222595   6.549   1.802   3.204 -0.9514  2.8432  0.5013
  394TIP3   OH222596   2.610   4.291  14.433  0.0971 -0.7231 -0.0659
  394TIP3    H122597   2.515   4.298  14.436  0.0682 -1.2303  0.4371
  394TIP3    H222598   2.626   4.199  14.410  0.4635 -0.7307  0.2096
  395TIP3   OH222599   2.941   3.415  17.113 -0.3911 -0.2893 -0.4781
  395TIP3    H122600   2.935   3.458  17.028 -1.6972  1.5988  0.4947
  395TIP3    H222601   2.913   3.482  17.176  1.2408 -1.3645  1.5284
  396TIP3   OH222602   5.384   6.553  11.145  0.0860 -0.0387 -0.3841
  396TIP3    H122603   5.438   6.497  11.201  1.1815 -0.3058 -1.6496
  396TIP3    H222604   5.374   6.504  11.064 -1.1510  0.4954 -0.5783
  397TIP3   OH222605   5.061   2.361   3.685  0.0562 -0.1971 -0.5383
  397TIP3    H122606   5.071   2.411   3.604 -2.2414  1.5126  0.1436
  397TIP3    H222607   5.095   2.419   3.753 -0.6137 -0.4557  0.0256
  398TIP3   OH222608   4.631   1.567   4.477 -0.0879 -0.2929  0.3034
  398TIP3    H122609   4.610   1.539   4.566 -3.4075  0.6739 -0.0394
  398TIP3    H222610   4.604   1.493   4.422 -0.8998  0.2789 -0.0729
  399TIP3   OH222611   6.392   6.703   1.708  0.2584  0.0797 -0.4322
  399TIP3    H122612   6.456   6.686   1.777  0.5590 -0.8576 -0.9149
  399TIP3    H222613   6.311   6.724   1.755  0.6535  0.2227  0.1960
  400TIP3   OH222614   4.903   3.487  12.315 -0.1132 -0.6801 -0.0519
  400TIP3    H122615   4.936   3.437  12.389 -0.8015 -0.4996  0.3832
  400TIP3    H222616   4.976   3.543  12.289  1.4504 -3.3495 -1.9127
  401TIP3   OH222617   1.958   3.509  13.406 -0.4252 -0.0177  0.3170
  401TIP3    H122618   1.976   3.550  13.491  0.8382 -0.0858  0.0978
  401TIP3    H222619   1.876   3.462  13.419 -1.2271  1.4873  0.9610
  402TIP3   OH222620   6.585   6.398  14.877  0.4030  0.1067 -0.2239
  402TIP3    H122621   6.634   6.469  14.917 -0.6373  0.5369  0.3202
  402TIP3    H222622   6.538   6.439  14.805 -0.1843 -0.0238  0.0783
  403TIP3   OH222623   6.514   3.378  15.494  0.1418 -0.6369  0.2448
  403TIP3    H122624   6.544   3.295  15.457  1.9438 -0.6786  1.6895
  403TIP3    H222625   6.502   3.361  15.587  0.3106  0.6432  0.5304
  404TIP3   OH222626   0.561   3.150  11.904  0.4222 -0.3080  0.7056
  404TIP3    H122627   0.500   3.109  11.967  1.3631 -1.8494  0.6744
  404TIP3    H222628   0.648   3.131  11.940  0.9147  1.2116  0.3588
  405TIP3   OH222629   0.894   0.144   3.483  0.5026 -0.5023 -0.3233
  405TIP3    H122630   0.863   0.141   3.574  1.1708 -0.7760 -0.1027
  405TIP3    H222631   0.894   0.053   3.455  3.0605 -0.7700  0.3552
  406TIP3   OH222632   1.051   2.413   3.335 -1.1480 -0.4255  0.2586
  406TIP3    H122633   1.005   2.497   3.329  2.3608  1.6052 -1.0291
  406TIP3    H222634   1.099   2.406   3.253  0.9605 -2.2358  1.5426
  407TIP3   OH222635   3.581   6.101  14.230 -0.4644 -0.5156 -0.3750
  407TIP3    H122636   3.504   6.045  14.235 -0.3333 -0.7695 -1.1046
  407TIP3    H222637   3.582   6.133  14.139  0.3220 -0.5670 -0.3926
  408TIP3   OH222638   2.192   0.319  13.924 -0.3597  0.3321  0.3718
  408TIP3    H122639   2.236   0.276  13.851 -0.1751 -0.4878  0.9437
  408TIP3    H222640   2.100   0.292  13.917 -0.4376  0.6460  0.1686
  409TIP3   OH222641   3.177   3.891  15.812 -0.2687  0.7588  0.1770
  409TIP3    H122642   3.159   3.859  15.900 -0.9863 -2.0768 -0.8703
  409TIP3    H222643   3.092   3.891  15.769  0.1013  1.8953 -0.5899
  410TIP3   OH222644   4.647   2.993   0.572  0.9090 -0.1424 -0.5603
  410TIP3    H122645   4.595   2.916   0.595 -2.2314  2.1477  0.7015
  410TIP3    H222646   4.621   3.013   0.482 -0.4024  0.9160  0.0200
  411TIP3   OH222647   0.217   5.583  13.767  0.0778 -0.1384 -0.4084
  411TIP3    H122648   0.182   5.510  13.818  0.4944 -0.7829 -1.0369
  411TIP3    H222649   0.210   5.556  13.676 -0.1064  0.7626 -0.6792
  412TIP3   OH222650   0.135   4.872  16.290  0.6095  0.4748  0.6718
  412TIP3    H122651   0.201   4.941  16.279  0.0038  1.0845  0.7743
  412TIP3    H222652   0.173   4.813  16.356  2.3097 -0.7828 -1.3087
  413TIP3   OH222653   3.032   3.980  14.104  0.1527  0.1299  0.2938
  413TIP3    H122654   3.047   4.072  14.083 -2.2698  0.5359  0.0091
  413TIP3    H222655   3.025   3.977  14.199  2.2096 -0.1569  0.4798
  414TIP3   OH222656   2.856   6.049   5.490  0.6083  0.4550 -0.1212
  414TIP3    H122657   2.861   6.036   5.395  0.1165 -0.5106 -0.0248
  414TIP3    H222658   2.947   6.046   5.519  0.6862 -0.6605 -0.4062
  415TIP3   OH222659   3.869   6.158   4.673  0.3217  0.2963  0.2190
  415TIP3    H122660   3.958   6.168   4.640  0.8672 -2.0943  0.7866
  415TIP3    H222661   3.822   6.117   4.601 -1.0059  3.4324 -0.9003
  416TIP3   OH222662   6.601   6.239   5.930 -0.1109 -0.0415  0.0036
  416TIP3    H122663   6.523   6.229   5.985 -1.0443  2.0515 -0.8196
  416TIP3    H222664   6.664   6.286   5.985  0.0017 -0.3829  0.1691
  417TIP3   OH222665   5.339   6.734  16.276 -0.1082  0.3126  0.1184
  417TIP3    H122666   5.365   6.794  16.207  0.8916 -1.6432 -1.3172
  417TIP3    H222667   5.244   6.745  16.283 -0.4232 -0.1980 -2.3944
  418TIP3   OH222668   1.266   5.157  12.230  0.1773  0.4034 -0.5605
  418TIP3    H122669   1.203   5.090  12.203  1.9064 -1.4532 -0.2427
  418TIP3    H222670   1.215   5.238  12.233 -3.0718 -1.4371  2.9407
  419TIP3   OH222671   2.010   2.336  16.021  0.2885  0.4663 -0.0614
  419TIP3    H122672   2.089   2.332  16.075 -0.2172 -0.8837  0.6292
  419TIP3    H222673   2.035   2.389  15.945  1.2667  1.6996  1.0745
  420TIP3   OH222674   2.278   0.276  16.180 -0.6195 -0.8016 -0.1589
  420TIP3    H122675   2.318   0.283  16.093 -1.5889 -1.5285 -0.6794
  420TIP3    H222676   2.306   0.191  16.212  1.5209  0.3245  1.1995
  421TIP3   OH222677   5.358   2.510  13.958  0.0509  0.2309 -0.1556
  421TIP3    H122678   5.423   2.506  13.888  0.7562 -0.5471  0.5167
  421TIP3    H222679   5.324   2.599  13.954  0.2250  0.2615 -1.3526
  422TIP3   OH222680   1.677   2.613   5.421  0.1410  0.2971 -0.9643
  422TIP3    H122681   1.699   2.686   5.479 -2.1658  1.5174 -1.4828
  422TIP3    H222682   1.758   2.593   5.375  1.1020  1.8420 -0.0423
  423TIP3   OH222683   3.617   0.928   2.911  0.3941  0.5176 -0.2423
  423TIP3    H122684   3.557   0.973   2.852  0.3255 -1.7143 -2.0370
  423TIP3    H222685   3.697   0.981   2.908  0.1830  0.8031 -1.8950
  424TIP3   OH222686   0.257   4.157   5.416  0.1945 -0.1325 -0.2746
  424TIP3    H122687   0.276   4.080   5.363  0.0086 -0.7208  0.4936
  424TIP3    H222688   0.293   4.136   5.502  1.7722  1.3915 -0.5239
  425TIP3   OH222689   2.271   1.359  13.615 -0.4432 -0.4604 -0.1453
  425TIP3    H122690   2.291   1.373  13.708 -0.5185 -4.0098  0.5235
  425TIP3    H222691   2.175   1.354  13.612 -0.3963 -1.4925 -0.1845
  426TIP3   OH222692   4.853   3.507   1.806  0.0668  0.6404 -0.1095
  426TIP3    H122693   4.938   3.548   1.822  0.3860 -0.5801  1.6899
  426TIP3    H222694   4.830   3.467   1.890 -1.6473 -0.2303 -0.9426
  427TIP3   OH222695   5.293   3.611  13.369 -0.3686  0.1375  0.0619
  427TIP3    H122696   5.311   3.704  13.383 -0.8962  0.5604 -1.7652
  427TIP3    H222697   5.350   3.566  13.431 -2.2317  1.6920  3.1451
  428TIP3   OH222698   4.821   5.584  15.046 -0.2530 -0.0781 -0.4074
  428TIP3    H122699   4.908   5.613  15.072 -0.5527  1.2110 -0.7888
  428TIP3    H222700   4.765   5.602  15.122 -0.2168 -0.8528 -0.1821
  429TIP3   OH222701   1.093   2.819   3.613  0.2811  0.0137 -0.0149
  429TIP3    H122702   1.131   2.735   3.640 -1.7269  0.1643  3.9123
  429TIP3    H222703   1.150   2.884   3.654 -1.5822  0.3081  2.3081
  430TIP3   OH222704   1.192   1.836  13.417 -0.3419  0.2885  0.2596
  430TIP3    H122705   1.112   1.786  13.433 -1.7351  2.7190  1.2597
  430TIP3    H222706   1.186   1.861  13.325 -1.1743  1.1496  0.5348
  431TIP3   OH222707   2.264   6.105   0.689 -0.6016  0.0243 -0.4360
  431TIP3    H122708   2.359   6.099   0.701 -0.5614 -0.6220 -1.0434
  431TIP3    H222709   2.234   6.156   0.764  0.0763 -0.8341  0.4512
  432TIP3   OH222710   5.892   2.547  14.531  0.7703  0.2990  0.5456
  432TIP3    H122711   5.807   2.575  14.498 -0.5747 -0.4657  3.0699
  432TIP3    H222712   5.902   2.457  14.500 -0.7776 -0.6454  2.5333
  433TIP3   OH222713   5.472   1.720  13.705  0.4537 -0.3952 -0.0557
  433TIP3    H122714   5.497   1.775  13.631 -1.2535  1.5176  0.6892
  433TIP3    H222715   5.554   1.701  13.750  1.2687  0.1545 -1.2458
  434TIP3   OH222716   5.628   2.722   2.696  0.0224 -0.0344  0.1790
  434TIP3    H122717   5.645   2.658   2.765 -0.9726  0.2748  0.7268
  434TIP3    H222718   5.681   2.798   2.718  0.0585 -0.1110  0.3502
  435TIP3   OH222719   4.168   3.035  16.501 -0.5331  0.3685  0.2604
  435TIP3    H122720   4.216   3.046  16.583 -1.2073  0.2003  0.6798
  435TIP3    H222721   4.170   3.122  16.461 -0.6968  0.5937  0.7306
  436TIP3   OH222722   5.014   4.622  14.142  0.3104  0.2538  0.2429
  436TIP3    H122723   4.960   4.692  14.106 -0.0210  0.2588  0.7487
  436TIP3    H222724   5.101   4.639  14.106 -0.0021  0.2796 -0.5251
  437TIP3   OH222725   0.166   5.945   1.633  0.3208 -0.3284 -0.5961
  437TIP3    H122726   0.116   5.953   1.714 -0.6658  1.0709 -1.3010
  437TIP3    H222727   0.146   5.857   1.600  1.4076 -1.2423  1.0725
  438TIP3   OH222728   0.176   4.964  11.211  0.1630  0.3145  0.2976
  438TIP3    H122729   0.130   5.046  11.191 -2.2439 -1.3559 -1.4884
  438TIP3    H222730   0.230   4.947  11.134 -0.2867 -0.3617  0.1227
  439TIP3   OH222731   3.558   1.707   0.800 -0.5476 -0.1206  0.3785
  439TIP3    H122732   3.637   1.727   0.849 -1.4170 -0.5598  2.0687
  439TIP3    H222733   3.487   1.723   0.863 -1.5585 -3.6786  0.3678
  440TIP3   OH222734   0.927   4.311   2.416  0.7877 -0.1614  0.0149
  440TIP3    H122735   0.843   4.354   2.433  0.6855 -0.5356  0.4661
  440TIP3    H222736   0.946   4.333   2.324  0.2204 -0.0418 -0.0819
  441TIP3   OH222737   4.346   2.459   1.679  0.6051  0.0985  0.2191
  441TIP3    H122738   4.372   2.491   1.765  0.1452 -1.0614  0.8201
  441TIP3    H222739   4.367   2.365   1.681  0.0789 -0.0575 -0.7306
  442TIP3   OH222740   5.559   5.918   0.068  0.2688 -0.4279  0.2148
  442TIP3    H122741   5.502   5.958   0.002  0.9356 -0.8879 -0.6559
  442TIP3    H222742   5.546   5.972   0.147 -0.5054  0.1542 -0.2931
  443TIP3   OH222743   4.888   0.969  12.705  0.0783 -0.9158 -0.2901
  443TIP3    H122744   4.910   0.883  12.669 -0.4205 -0.7567 -1.0036
  443TIP3    H222745   4.798   0.985  12.675  0.9296  0.8620 -2.2048
  444TIP3   OH222746   3.010   3.469  13.976  0.3162  0.3624  0.3841
  444TIP3    H122747   2.940   3.485  14.039 -1.5608  0.4488 -1.6264
  444TIP3    H222748   3.082   3.435  14.029 -1.7681 -1.3141  2.3369
  445TIP3   OH222749   1.585   3.068  16.296 -0.6948 -0.4335  0.5963
  445TIP3    H122750   1.544   3.153  16.315  0.3158  0.3682 -0.6498
  445TIP3    H222751   1.512   3.012  16.269 -1.1578  0.6337 -0.4837
  446TIP3   OH222752   3.139   3.211   3.734  0.0777  0.2954  1.0054
  446TIP3    H122753   3.056   3.175   3.764  0.7451  0.2176  2.9295
  446TIP3    H222754   3.114   3.283   3.676 -1.2923 -0.5556  0.4782
  447TIP3   OH222755   4.226   6.665  14.828 -0.7007  0.0612 -0.0532
  447TIP3    H122756   4.224   6.594  14.763 -0.2504  0.5654 -0.6256
  447TIP3    H222757   4.139   6.705  14.821 -0.0565  1.3157 -1.7359
  448TIP3   OH222758   0.157   2.783  15.125  0.3064 -0.0422  0.3455
  448TIP3    H122759   0.177   2.855  15.065 -0.0212 -0.9240 -0.8573
  448TIP3    H222760   0.082   2.814  15.175 -0.8290 -0.1184 -1.2511
  449TIP3   OH222761   5.145   5.799  16.990  0.0475  0.2341  0.1565
  449TIP3    H122762   5.140   5.757  16.904 -0.7781  0.5430  0.0471
  449TIP3    H222763   5.212   5.749  17.037 -0.1570 -0.5273 -0.3432
  450TIP3   OH222764   6.717   2.129  15.679 -0.1551 -0.4941 -0.4502
  450TIP3    H122765   6.673   2.047  15.701  0.4917 -0.7058  0.0538
  450TIP3    H222766   6.647   2.195  15.686 -0.7209 -1.0119 -1.0373
  451TIP3   OH222767   4.910   2.860   2.824  0.1547  0.2811  0.4231
  451TIP3    H122768   4.945   2.937   2.869  0.2609  2.4672 -3.0510
  451TIP3    H222769   4.973   2.843   2.754 -0.5920 -2.1939  0.2606
  452TIP3   OH222770   0.685   4.449   2.499 -0.0135  0.4349  0.5890
  452TIP3    H122771   0.592   4.466   2.516 -0.1617  0.4703 -0.2244
  452TIP3    H222772   0.731   4.501   2.565 -0.5191  2.1203 -0.3450
  453TIP3   OH222773   1.255   2.566   1.099  0.1032  0.3501  0.1188
  453TIP3    H122774   1.218   2.489   1.056 -2.7999 -0.0159  2.8869
  453TIP3    H222775   1.231   2.639   1.042 -2.0329 -0.2757  0.1256
  454TIP3   OH222776   6.291   5.348   4.187 -0.0699  0.0080 -0.2055
  454TIP3    H122777   6.260   5.400   4.113 -1.1027  0.2537  0.3739
  454TIP3    H222778   6.386   5.350   4.180 -0.1171  1.1775 -0.7434
  455TIP3   OH222779   3.762   5.270  11.531  0.0437 -0.0760  0.1100
  455TIP3    H122780   3.771   5.177  11.552 -1.1347  0.3089  2.5974
  455TIP3    H222781   3.831   5.313  11.581 -1.1768  0.6221  1.2643
  456TIP3   OH222782   0.734   2.425  17.030 -0.3214 -0.9185  0.7938
  456TIP3    H122783   0.645   2.460  17.036  0.2517  0.9463 -0.5478
  456TIP3    H222784   0.748   2.414  16.936  1.1989 -0.2147  0.9120
  457TIP3   OH222785   2.688   0.194   1.763  0.0897  0.0860 -0.1366
  457TIP3    H122786   2.699   0.276   1.810 -2.7570 -0.0837  1.0700
  457TIP3    H222787   2.607   0.206   1.713  0.1891 -1.6274 -0.7840
  458TIP3   OH222788   3.240   5.082  11.843 -0.4576 -0.4617 -0.4998
  458TIP3    H122789   3.284   5.013  11.894  2.4631 -0.1115 -2.2974
  458TIP3    H222790   3.195   5.035  11.773 -1.3591 -0.7092  0.2264
  459TIP3   OH222791   4.636   2.284  17.035 -0.1047 -0.4592 -0.1574
  459TIP3    H122792   4.686   2.305  16.956  2.2869 -0.8623  1.1328
  459TIP3    H222793   4.663   2.351  17.099 -2.2358  0.0613  0.2689
  460TIP3   OH222794   1.155   3.146   2.456 -0.5198 -0.2679 -0.1047
  460TIP3    H122795   1.089   3.208   2.485  0.4077 -0.1241  1.8269
  460TIP3    H222796   1.108   3.063   2.449 -1.1097  0.0238  0.2916
  461TIP3   OH222797   5.576   4.732   4.014 -0.3412 -0.4392  0.4957
  461TIP3    H122798   5.509   4.715   3.948  0.4307  0.4395 -0.5495
  461TIP3    H222799   5.581   4.827   4.019  1.2236 -0.4758  0.1136
  462TIP3   OH222800   2.558   6.450   4.792  0.5971  0.6813  0.7017
  462TIP3    H122801   2.539   6.487   4.878  0.5624  0.8538  0.6190
  462TIP3    H222802   2.578   6.525   4.737  1.0120  0.5407  0.6572
  463TIP3   OH222803   1.845   5.276   6.121  0.2482  0.0962  0.3441
  463TIP3    H122804   1.845   5.273   6.216 -0.4539 -2.2052  0.3335
  463TIP3    H222805   1.764   5.320   6.097 -0.1407 -0.3456  0.8317
  464TIP3   OH222806   5.054   1.389  10.631  0.1155  0.1445 -0.1795
  464TIP3    H122807   5.036   1.410  10.723 -1.5369 -0.0902 -0.4128
  464TIP3    H222808   5.083   1.471  10.592  0.8649  0.2392  0.5414
  465TIP3   OH222809   2.576   0.357   1.931 -0.7017 -0.7085  0.4408
  465TIP3    H122810   2.530   0.430   1.890 -1.3734  0.2029  2.6990
  465TIP3    H222811   2.509   0.289   1.939 -0.9871 -0.3296  1.3679
  466TIP3   OH222812   3.274   0.581  11.006  0.2845 -0.4810  0.0008
  466TIP3    H122813   3.256   0.658  11.060  0.0201 -0.5087 -0.0482
  466TIP3    H222814   3.236   0.602  10.921  0.0958 -0.7218  0.0265
  467TIP3   OH222815   5.572   4.895  16.027 -0.2645  0.3441 -0.4609
  467TIP3    H122816   5.625   4.854  16.095 -2.3053 -0.5750  0.6279
  467TIP3    H222817   5.590   4.843  15.948  0.1121 -0.2170 -0.0161
  468TIP3   OH222818   5.912   0.459  17.043  0.3769 -0.2202  0.2682
  468TIP3    H122819   5.873   0.452  17.131 -3.2105 -2.6920 -1.2776
  468TIP3    H222820   5.971   0.384  17.037  1.0199  0.2413  0.7005
  469TIP3   OH222821   3.131   2.859   4.788  0.0640  0.6010 -0.4731
  469TIP3    H122822   3.176   2.853   4.704  0.7916 -1.8479  0.0059
  469TIP3    H222823   3.071   2.932   4.778 -1.5223 -0.9470 -3.9449
  470TIP3   OH222824   1.544   1.276   3.914 -0.7661 -0.2476 -1.0172
  470TIP3    H122825   1.561   1.349   3.854 -0.9346  0.3375 -0.3763
  470TIP3    H222826   1.468   1.232   3.877 -1.9500  1.1426 -0.3437
  471TIP3   OH222827   4.733   1.189   0.947  0.1818 -0.0569  0.1543
  471TIP3    H122828   4.762   1.155   1.031  2.4034 -0.8118 -0.8468
  471TIP3    H222829   4.750   1.283   0.951 -0.2853  0.0090  0.7375
  472TIP3   OH222830   2.385   3.858   1.048 -0.1915  0.0160  1.0383
  472TIP3    H122831   2.379   3.766   1.075  1.3607 -0.3815  0.1053
  472TIP3    H222832   2.381   3.856   0.953  3.6554  0.4622  0.7079
  473TIP3   OH222833   2.668   0.569  15.795  0.0327  0.4555  0.0357
  473TIP3    H122834   2.694   0.658  15.819  1.2700 -0.0915  0.8220
  473TIP3    H222835   2.655   0.524  15.878  0.1413 -0.2999 -0.3432
  474TIP3   OH222836   4.471   2.243   3.528 -0.3402 -0.2534 -0.1119
  474TIP3    H122837   4.423   2.189   3.465 -0.8016  0.1146 -0.0810
  474TIP3    H222838   4.408   2.259   3.598  0.1139 -0.5147  0.3669
  475TIP3   OH222839   0.014   0.581   2.712 -0.3122  0.3990 -0.4047
  475TIP3    H122840   0.044   0.615   2.796 -1.0150 -1.2641  0.5767
  475TIP3    H222841  -0.066   0.630   2.693  0.2172  1.2552 -0.4564
  476TIP3   OH222842   3.141   3.502   1.155 -0.0736  0.0258 -0.4102
  476TIP3    H122843   3.204   3.473   1.089  0.2176  0.9147 -0.5285
  476TIP3    H222844   3.111   3.587   1.124  0.5564  0.7725  0.9376
  477TIP3   OH222845   0.118   2.270   0.112 -0.2615 -0.2719  0.0358
  477TIP3    H122846   0.090   2.284   0.202  2.4005  0.0561  0.8910
  477TIP3    H222847   0.108   2.356   0.070  0.0469 -0.0072  0.4960
  478TIP3   OH222848   4.844   3.888  11.948 -0.1812 -0.1778 -0.0974
  478TIP3    H122849   4.854   3.977  11.915  0.2576 -0.4966 -0.8430
  478TIP3    H222850   4.756   3.886  11.987  0.1810  0.8553  0.8176
  479TIP3   OH222851   0.237   1.646   1.002  0.2735 -0.1407  0.5305
  479TIP3    H122852   0.313   1.639   0.946  0.2316  2.5599 -0.0007
  479TIP3    H222853   0.166   1.674   0.944 -0.6006 -0.5419  1.3658
  480TIP3   OH222854   1.104   6.453   3.993 -0.0411 -0.4423  0.1764
  480TIP3    H122855   1.089   6.439   3.899 -1.4382 -1.1432  0.4793
  480TIP3    H222856   1.197   6.475   3.999 -0.1333  0.6009 -1.4751
  481TIP3   OH222857   3.365   3.959  11.785 -0.2678  0.0810 -0.3331
  481TIP3    H122858   3.388   4.009  11.707 -0.6565  1.7999  0.6219
  481TIP3    H222859   3.448   3.928  11.820  0.1550  1.5404  0.0114
  482TIP3   OH222860   0.643   0.259   5.294 -0.2947  0.2712 -0.9477
  482TIP3    H122861   0.593   0.339   5.279 -0.2998  0.4600 -0.0139
  482TIP3    H222862   0.578   0.190   5.295 -0.4657  0.4358 -0.3707
  483TIP3   OH222863   3.586   3.219   4.473  0.7507 -0.2182  0.1476
  483TIP3    H122864   3.524   3.211   4.400  0.3892 -1.0631  0.5379
  483TIP3    H222865   3.531   3.230   4.550  1.1257  0.3133  0.3502
  484TIP3   OH222866   2.341   2.350   3.335 -0.1419 -0.6085  0.0940
  484TIP3    H122867   2.433   2.375   3.345 -0.0143 -0.5106 -1.1650
  484TIP3    H222868   2.344   2.254   3.325 -0.0673 -0.5268 -0.8229
  485TIP3   OH222869   6.614   0.359  15.426 -0.0395  0.3452 -0.1330
  485TIP3    H122870   6.544   0.398  15.478  0.3581 -1.4565  1.9161
  485TIP3    H222871   6.578   0.276  15.396  1.1358 -0.5926  0.9313
  486TIP3   OH222872   2.376   0.427   1.167  0.4092  0.3378 -0.5022
  486TIP3    H122873   2.470   0.447   1.169  0.7009 -1.0058  1.2583
  486TIP3    H222874   2.341   0.468   1.245 -0.0917 -0.8054 -0.1092
  487TIP3   OH222875   3.626   3.246  16.528 -0.4194  0.2224 -0.1509
  487TIP3    H122876   3.699   3.191  16.499 -1.2683 -0.3052 -1.4102
  487TIP3    H222877   3.629   3.323  16.470 -1.2774 -0.1554 -0.7300
  488TIP3   OH222878   1.890   5.397   4.727  0.3146 -0.4500  0.2906
  488TIP3    H122879   1.848   5.397   4.813  3.7808 -0.0801  2.1790
  488TIP3    H222880   1.940   5.478   4.724  0.8127 -0.7673 -1.8430
  489TIP3   OH222881   4.229   4.250   1.149  0.3157 -0.0676  0.4527
  489TIP3    H122882   4.298   4.295   1.101  0.0069  0.1419  0.1973
  489TIP3    H222883   4.268   4.227   1.233  0.3270  1.1392  0.8009
  490TIP3   OH222884   5.809   3.662  11.544 -0.7635 -0.4127 -0.2888
  490TIP3    H122885   5.796   3.661  11.449 -0.0932  2.3116 -0.4871
  490TIP3    H222886   5.904   3.658  11.555 -0.6912  1.3853  0.1088
  491TIP3   OH222887   1.051   5.988  16.381 -0.4086  0.2551  0.0409
  491TIP3    H122888   1.101   6.060  16.341  0.7241 -0.2602  0.4723
  491TIP3    H222889   1.118   5.923  16.403 -1.3993 -0.9092 -0.2851
  492TIP3   OH222890   4.894   6.205   3.609  0.0089  0.0924 -0.4264
  492TIP3    H122891   4.968   6.257   3.579  0.7573  0.0331  1.2208
  492TIP3    H222892   4.918   6.177   3.697 -0.8894 -2.0703 -0.8137
  493TIP3   OH222893   2.750   5.616  15.321 -0.4893  0.0748  0.8230
  493TIP3    H122894   2.809   5.541  15.325  0.9471  1.1464  0.6174
  493TIP3    H222895   2.750   5.641  15.229 -0.1103  0.9624  1.0553
  494TIP3   OH222896   5.177   4.095  11.698 -0.1797  0.3029  0.2246
  494TIP3    H122897   5.123   4.149  11.755 -0.4363  0.4700 -0.1689
  494TIP3    H222898   5.262   4.138  11.695 -0.5575  1.0282 -0.5618
  495TIP3   OH222899   2.092   6.616   5.872  0.0119 -0.2332 -0.5405
  495TIP3    H122900   2.017   6.596   5.929 -0.3190 -0.1742 -0.9447
  495TIP3    H222901   2.159   6.554   5.898  0.1668  0.3354  0.4859
  496TIP3   OH222902   4.459   1.910  16.873 -0.0986  0.7238  0.1483
  496TIP3    H122903   4.553   1.902  16.855 -0.5226 -0.9690 -1.6480
  496TIP3    H222904   4.417   1.890  16.790 -2.0756  2.1371  0.7291
  497TIP3   OH222905   0.166   0.595  14.528 -0.0326 -0.0459  0.1926
  497TIP3    H122906   0.194   0.674  14.482 -0.6408 -1.4854 -2.8936
  497TIP3    H222907   0.072   0.605  14.537 -0.2461 -0.7962 -1.0681
  498TIP3   OH222908   1.364   2.719  14.560  0.0735 -0.3097  0.3530
  498TIP3    H122909   1.459   2.709  14.556  0.2107  0.9504 -2.7783
  498TIP3    H222910   1.330   2.635  14.528  0.1867 -0.3184  0.2548
  499TIP3   OH222911   2.080   6.018  13.702 -0.1919  0.2025  0.5441
  499TIP3    H122912   2.130   6.097  13.678  1.9431 -1.3280 -0.3619
  499TIP3    H222913   2.103   5.954  13.635 -3.7464 -0.5571 -0.1458
  500TIP3   OH222914   5.980   1.564   3.629  0.0048 -0.5177  0.2036
  500TIP3    H122915   5.925   1.565   3.707 -2.1161 -1.5702 -1.1901
  500TIP3    H222916   5.955   1.644   3.582 -0.0011 -0.7775 -0.2297
  501TIP3   OH222917   0.441   3.517   5.327  0.2042  0.1503 -0.3203
  501TIP3    H122918   0.479   3.552   5.246 -0.6492  1.4409 -0.1777
  501TIP3    H222919   0.367   3.574   5.347 -0.9116 -1.3967  0.2425
  502TIP3   OH222920   1.890   1.876  12.874  0.2611  0.4832  0.1442
  502TIP3    H122921   1.891   1.874  12.779 -1.2576  1.3699  0.0758
  502TIP3    H222922   1.976   1.911  12.899  1.0200 -0.6439 -0.8457
  503TIP3   OH222923   6.359   0.823   1.338  0.0197  0.2383  1.0250
  503TIP3    H122924   6.344   0.901   1.285 -0.2424 -0.2001  0.4434
  503TIP3    H222925   6.439   0.842   1.386  1.1720  0.0454 -0.7124
  504TIP3   OH222926   1.872   2.159   3.251 -0.3970 -0.0277 -0.4562
  504TIP3    H122927   1.861   2.242   3.203 -0.2104 -0.2218 -0.8426
  504TIP3    H222928   1.942   2.178   3.313 -0.2840  0.0779 -0.6129
  505TIP3   OH222929   1.311   0.175  12.413  0.0133 -0.0771  0.3388
  505TIP3    H122930   1.402   0.155  12.435  0.1266 -0.6087 -0.5656
  505TIP3    H222931   1.265   0.171  12.497  0.6513 -0.7919  0.6650
  506TIP3   OH222932   3.375   3.629  12.793  0.0186  0.3113 -0.2981
  506TIP3    H122933   3.363   3.700  12.730  0.2069  0.9232  0.3362
  506TIP3    H222934   3.458   3.588  12.767  0.8211  1.4487  0.3641
  507TIP3   OH222935   5.885   3.653  15.999  0.4207  0.0347  0.5342
  507TIP3    H122936   5.911   3.737  16.037  1.6620 -0.6645  1.3146
  507TIP3    H222937   5.827   3.676  15.927  1.2299  1.6022  0.3337
  508TIP3   OH222938   0.816   6.767   1.040 -0.4409  0.9238  0.4748
  508TIP3    H122939   0.726   6.782   1.010 -0.1052  0.0562 -1.0446
  508TIP3    H222940   0.862   6.733   0.963  0.9912  0.5718  1.4501
  509TIP3   OH222941   2.627   0.091   5.328 -0.0002  0.1404  0.0046
  509TIP3    H122942   2.559   0.033   5.362 -1.6194  0.5601 -2.2842
  509TIP3    H222943   2.650   0.147   5.402 -0.5785 -1.4074  1.4214
  510TIP3   OH222944   6.489   1.046  16.731  0.1028 -0.6234 -0.3093
  510TIP3    H122945   6.437   1.081  16.658 -0.1466 -0.5464 -0.0973
  510TIP3    H222946   6.430   0.984  16.774 -0.0410 -0.0544  0.3265
  511TIP3   OH222947   4.928   4.992  13.615  0.2596  0.0758 -0.3398
  511TIP3    H122948   4.858   5.030  13.561 -0.5741 -0.3907  0.3906
  511TIP3    H222949   4.955   5.063  13.673 -0.9109 -0.2381  0.6403
  512TIP3   OH222950   6.395   2.347  14.395 -0.6349 -0.0186  0.5115
  512TIP3    H122951   6.480   2.318  14.426 -0.5680 -1.6120 -1.0220
  512TIP3    H222952   6.335   2.327  14.467 -0.0163 -0.6349  0.8662
  513TIP3   OH222953   2.240   2.416   5.835 -0.0261 -0.5054 -0.4619
  513TIP3    H122954   2.196   2.357   5.897  0.6327 -1.8608 -1.2343
  513TIP3    H222955   2.268   2.490   5.888 -1.6605 -0.4482  0.3820
  514TIP3   OH222956   5.850   5.310  15.015  0.1390  0.0186 -0.9603
  514TIP3    H122957   5.813   5.252  15.083  2.1271  0.4144  0.5485
  514TIP3    H222958   5.927   5.349  15.056  0.4280  1.6449 -2.8918
  515TIP3   OH222959   5.106   2.424   6.083  0.0586 -0.3336 -0.2245
  515TIP3    H122960   5.076   2.350   6.136  0.3723 -0.0255  0.3891
  515TIP3    H222961   5.029   2.481   6.077 -0.0763 -0.5327 -0.3848
  516TIP3   OH222962   2.726   0.985  12.011 -0.5147  0.0615  0.4913
  516TIP3    H122963   2.691   0.968  12.099 -1.0969  2.0825  0.7038
  516TIP3    H222964   2.693   1.072  11.989 -0.3149 -0.3792 -1.7291
  517TIP3   OH222965   1.616   0.815   1.049  0.1807 -0.7086  0.2841
  517TIP3    H122966   1.576   0.888   1.095  0.6936  0.2435 -0.7440
  517TIP3    H222967   1.558   0.741   1.066 -0.9760  0.2021  0.3723
  518TIP3   OH222968   2.906   0.300   0.725 -0.3031 -0.2567 -0.0043
  518TIP3    H122969   2.983   0.355   0.714  0.4119 -0.7909  1.8907
  518TIP3    H222970   2.879   0.315   0.816 -1.7266 -0.9830 -0.2826
  519TIP3   OH222971   3.232   3.494  11.765 -1.0522  0.5916  0.4497
  519TIP3    H122972   3.233   3.399  11.780 -0.9405  0.5856  0.4095
  519TIP3    H222973   3.323   3.515  11.741 -0.4854  1.0691  2.7563
  520TIP3   OH222974   5.629   1.020   1.430  0.5534  0.0405  0.1578
  520TIP3    H122975   5.586   1.089   1.379  0.1144 -0.5008 -0.2337
  520TIP3    H222976   5.713   1.006   1.386 -0.2838 -1.1976 -1.1558
  521TIP3   OH222977   6.597   1.908  17.241  0.2140 -0.1433 -0.4312
  521TIP3    H122978   6.654   1.873  17.309  0.6740  3.8890  1.5309
  521TIP3    H222979   6.534   1.963  17.288 -2.8648 -1.1992 -2.9035
  522TIP3   OH222980   6.202   4.745   0.602  0.9439 -0.2927  0.2506
  522TIP3    H122981   6.221   4.801   0.526 -3.9656 -1.5708 -2.3264
  522TIP3    H222982   6.167   4.804   0.668  1.0208  0.3392 -0.2691
  523TIP3   OH222983   6.534   2.791  11.922  0.0100  0.2927 -0.6625
  523TIP3    H122984   6.494   2.756  11.843 -0.2997  0.7995 -0.7316
  523TIP3    H222985   6.569   2.876  11.896  1.7660 -0.4157 -0.7888
  524TIP3   OH222986   4.385   1.897  15.611  0.0309  0.4406 -0.0232
  524TIP3    H122987   4.374   1.803  15.603 -2.1939  0.6396  0.0226
  524TIP3    H222988   4.474   1.914  15.580  0.0615 -1.5289 -1.1571
  525TIP3   OH222989   0.295   5.441  12.481 -0.1306 -0.3948  0.2114
  525TIP3    H122990   0.217   5.422  12.429 -1.5477 -1.0325  2.4360
  525TIP3    H222991   0.341   5.509  12.432 -2.6256  0.7548 -0.6768
  526TIP3   OH222992   3.296   1.742   1.383  0.0529 -0.1646  0.3170
  526TIP3    H122993   3.348   1.806   1.334  0.6666 -0.8486  0.0633
  526TIP3    H222994   3.337   1.658   1.364 -1.0724 -0.7070  0.2201
  527TIP3   OH222995   2.078   1.513   4.572  0.6028  0.0406  0.0454
  527TIP3    H122996   1.986   1.536   4.560  0.3989 -0.4546  0.5929
  527TIP3    H222997   2.084   1.488   4.664  1.1262 -0.6695 -0.1774
  528TIP3   OH222998   0.158   1.154  15.980  0.5933  0.2853  0.6588
  528TIP3    H122999   0.191   1.078  16.028  1.5732 -0.1523 -0.6477
  528TIP3    H223000   0.071   1.128  15.951  0.3023  0.2658  1.5156
  529TIP3   OH223001   2.736   2.348  13.542 -0.2745  0.2247  0.1193
  529TIP3    H123002   2.827   2.370  13.563 -0.0687 -0.7602  0.3536
  529TIP3    H223003   2.744   2.277  13.478 -0.8687 -0.0986  0.3942
  530TIP3   OH223004   2.700   0.433   0.935  0.4928 -0.0872  0.3940
  530TIP3    H123005   2.613   0.400   0.913  0.2677  1.3852 -1.1193
  530TIP3    H223006   2.689   0.476   1.020 -0.6102  1.2262 -0.3683
  531TIP3   OH223007   1.696   3.941   1.934  0.4436 -0.4346  0.1946
  531TIP3    H123008   1.608   3.959   1.967  1.3097  0.3708  2.2207
  531TIP3    H223009   1.714   3.851   1.961 -0.4604 -1.3513 -2.0076
  532TIP3   OH223010   6.197   4.806  16.013  0.3091 -0.1681  0.1556
  532TIP3    H123011   6.166   4.895  15.999  2.8188  0.9834  1.4889
  532TIP3    H223012   6.166   4.783  16.101  1.1431  0.0569  0.5095
  533TIP3   OH223013   6.208   0.173   4.429 -0.4264  0.1836  0.2095
  533TIP3    H123014   6.134   0.160   4.488  0.4732  0.8248  1.5199
  533TIP3    H223015   6.258   0.091   4.434  0.6886  0.9026  1.9061
  534TIP3   OH223016   6.093   3.467  11.875 -0.0142 -0.2127 -0.0568
  534TIP3    H123017   6.097   3.409  11.951  2.0101 -1.2587 -0.8831
  534TIP3    H223018   6.026   3.429  11.819  0.2167 -0.8504  0.0993
  535TIP3   OH223019   2.420   6.413  16.294 -0.2118  0.1252  0.1520
  535TIP3    H123020   2.405   6.361  16.373  0.5333 -0.2110  0.0825
  535TIP3    H223021   2.515   6.419  16.286 -0.2433 -0.6303 -1.2207
  536TIP3   OH223022   3.954   5.721   4.596  0.1711  0.1260  0.2322
  536TIP3    H123023   3.918   5.706   4.683  0.3993  2.9139  0.8965
  536TIP3    H223024   3.878   5.725   4.538 -0.1437  0.3945  0.6639
  537TIP3   OH223025   0.622   2.299   5.010  0.6234 -0.2146 -0.0102
  537TIP3    H123026   0.709   2.308   4.971  0.8587  0.3904  0.6362
  537TIP3    H223027   0.567   2.358   4.959  1.0178  0.8864  0.7977
  538TIP3   OH223028   4.976   2.909   5.292 -0.3304 -0.0100  0.6569
  538TIP3    H123029   4.927   2.885   5.370 -0.2455  1.5504  1.2228
  538TIP3    H223030   4.929   2.867   5.220 -1.8318  0.5042  1.3019
  539TIP3   OH223031   1.816   5.408  14.507 -0.5776 -0.1982 -0.8286
  539TIP3    H123032   1.870   5.431  14.583 -0.6584  0.1053 -0.8632
  539TIP3    H223033   1.726   5.425  14.536 -0.6334 -0.4153 -0.8744
  540TIP3   OH223034   3.195   3.106   5.440 -0.1302  0.2143  0.0437
  540TIP3    H123035   3.134   3.047   5.484  1.9201 -1.0156  1.3482
  540TIP3    H223036   3.227   3.163   5.510 -0.6447  1.6664 -0.8577
  541TIP3   OH223037   3.992   3.152   0.581  0.4040 -0.2908  0.4558
  541TIP3    H123038   3.966   3.080   0.638 -1.7657  0.6588  0.7571
  541TIP3    H223039   4.059   3.199   0.631  1.0183 -1.4069  0.7206
  542TIP3   OH223040   4.835   1.684   2.971 -0.1536 -0.3943 -0.2021
  542TIP3    H123041   4.817   1.591   2.964  0.5685 -0.5760  0.2658
  542TIP3    H223042   4.857   1.712   2.882 -1.4077 -0.4295 -0.5497
  543TIP3   OH223043   3.797   1.628   6.987 -0.3142  0.0512  0.1604
  543TIP3    H123044   3.832   1.541   6.969 -0.8388  0.1359 -1.4653
  543TIP3    H223045   3.868   1.688   6.961 -1.1402  0.1812 -2.0476
  544TIP3   OH223046   3.719   3.671  15.000 -0.1074 -0.8360 -0.2792
  544TIP3    H123047   3.737   3.629  15.084  0.9576 -0.6195 -0.3917
  544TIP3    H223048   3.721   3.599  14.937 -2.5861 -1.2896  0.0470
  545TIP3   OH223049   6.182   6.082  12.105  0.0732 -0.6884  0.3387
  545TIP3    H123050   6.173   6.106  12.013  3.3944 -2.5663 -0.6358
  545TIP3    H223051   6.272   6.104  12.127 -0.7382  0.1218  3.3651
  546TIP3   OH223052   1.106   1.238   5.790  0.4789  0.1016 -0.4827
  546TIP3    H123053   1.100   1.229   5.885  0.4187  0.8963 -0.4070
  546TIP3    H223054   1.197   1.220   5.769  0.5228  0.0693 -0.2579
  547TIP3   OH223055   4.418   1.904  16.342 -0.1447 -0.0028 -0.4758
  547TIP3    H123056   4.352   1.883  16.276  0.6019 -0.7274 -0.9925
  547TIP3    H223057   4.496   1.856  16.316 -0.0617 -0.9890  1.3909
  548TIP3   OH223058   5.254   3.258   5.415 -0.4678  0.1374  0.1392
  548TIP3    H123059   5.159   3.265   5.408 -0.5478 -0.9083 -0.0254
  548TIP3    H223060   5.268   3.183   5.473  0.2604  0.7822  0.8118
  549TIP3   OH223061   3.549   2.372   2.864 -0.4908 -0.1628 -0.7449
  549TIP3    H123062   3.618   2.339   2.807 -0.5824 -0.6473 -0.5756
  549TIP3    H223063   3.596   2.420   2.933 -0.3868  0.5394 -1.2940
  550TIP3   OH223064   3.783   4.193   1.004 -0.2455 -0.7568 -0.8014
  550TIP3    H123065   3.775   4.110   1.050  1.4820 -1.8982 -2.4107
  550TIP3    H223066   3.876   4.201   0.984 -0.3073  1.7673 -0.3998
  551TIP3   OH223067   6.437   6.192   6.162 -0.0638 -0.3026 -0.3498
  551TIP3    H123068   6.431   6.103   6.196 -0.8563  0.2711  1.0984
  551TIP3    H223069   6.347   6.223   6.159  0.1014  0.1096 -1.8633
  552TIP3   OH223070   4.824   1.606  15.664  0.1923  0.0889  0.3083
  552TIP3    H123071   4.746   1.586  15.612  0.8507 -1.4579 -0.1661
  552TIP3    H223072   4.870   1.673  15.614  0.0431 -0.2681 -0.3174
  553TIP3   OH223073   6.413   5.902  17.114  0.1914 -0.4631 -0.0770
  553TIP3    H123074   6.490   5.880  17.061  0.3992 -0.6015  0.2773
  553TIP3    H223075   6.373   5.818  17.135  2.1227 -0.7690  2.9831
  554TIP3   OH223076   6.515   1.931   0.766 -0.6431  0.6733  0.2420
  554TIP3    H123077   6.545   1.891   0.685  0.5149  2.5559 -0.3205
  554TIP3    H223078   6.545   1.872   0.835 -0.3500 -0.2039 -0.6180
  555TIP3   OH223079   4.243   1.268   1.543 -0.5052  0.1292  0.3996
  555TIP3    H123080   4.275   1.224   1.622  0.2071 -1.6869 -0.8664
  555TIP3    H223081   4.148   1.255   1.546 -0.3992 -0.6239  0.5371
  556TIP3   OH223082   6.533   0.044   5.686  0.2949  0.1450 -0.0922
  556TIP3    H123083   6.601   0.089   5.737  0.7619 -0.7842  0.1335
  556TIP3    H223084   6.576  -0.037   5.656 -0.3642  0.0893 -0.9079
  557TIP3   OH223085   4.401   0.495  13.597 -0.5451  0.2630 -0.4089
  557TIP3    H123086   4.362   0.583  13.604 -1.8188 -0.3240  0.1739
  557TIP3    H223087   4.326   0.436  13.595  0.2227 -0.7315 -2.8034
  558TIP3   OH223088   6.502   2.879   2.438  0.1274  0.0586  0.0511
  558TIP3    H123089   6.490   2.963   2.481  3.9537  0.9685 -0.3273
  558TIP3    H223090   6.493   2.897   2.345 -0.6611 -0.3281  0.0438
  559TIP3   OH223091   3.010   1.508  15.259  0.0429 -0.4184  0.1442
  559TIP3    H123092   3.103   1.526  15.275 -0.4065  2.7398 -0.1425
  559TIP3    H223093   2.971   1.507  15.346  0.0360  0.6171  0.1693
  560TIP3   OH223094   2.030   4.414  16.455  0.1502 -0.0364  0.0769
  560TIP3    H123095   2.012   4.417  16.549  1.9194  1.5169  0.4286
  560TIP3    H223096   2.016   4.322  16.432  2.0698 -1.0708  2.4367
  561TIP3   OH223097   6.782   6.094  13.903  0.5304 -0.1177 -0.0909
  561TIP3    H123098   6.734   6.116  13.823 -0.9328 -2.1066  0.1745
  561TIP3    H223099   6.757   6.004  13.923  2.2651 -0.3002  1.6323
  562TIP3   OH223100   2.280   5.871   0.919 -0.1293  0.3546  0.1281
  562TIP3    H123101   2.346   5.815   0.879 -0.8433 -0.8998  0.6593
  562TIP3    H223102   2.232   5.813   0.978 -1.5150  1.3000 -0.0314
  563TIP3   OH223103   1.696   4.838  14.216 -0.0675  0.3225 -0.7192
  563TIP3    H123104   1.678   4.749  14.188 -1.5315  0.3432  0.0594
  563TIP3    H223105   1.780   4.859  14.176  0.8373 -1.7732 -0.0347
  564TIP3   OH223106   2.872   0.762   4.077 -0.3094  0.0508  0.2425
  564TIP3    H123107   2.909   0.849   4.063  1.3131 -0.5801  0.3519
  564TIP3    H223108   2.779   0.777   4.092 -0.1484  1.7110 -0.2490
  565TIP3   OH223109   2.254   0.074  12.576 -0.3696  0.1627 -0.3144
  565TIP3    H123110   2.275   0.149  12.521  0.8247  0.6383  0.7322
  565TIP3    H223111   2.241   0.111  12.663 -0.7007 -0.7438  0.0331
  566TIP3   OH223112   5.485   0.614   4.568  0.1383  0.3526 -0.6972
  566TIP3    H123113   5.434   0.540   4.535  3.0312 -0.8396 -3.0523
  566TIP3    H223114   5.538   0.578   4.638  0.6503  0.4799 -1.0084
  567TIP3   OH223115   5.980   0.261  12.518  0.3892 -0.6402 -0.7308
  567TIP3    H123116   6.018   0.334  12.567 -1.5047  0.1641 -0.3567
  567TIP3    H223117   5.980   0.188  12.579 -1.2514  0.1468  0.2670
  568TIP3   OH223118   4.077   3.676   5.821  0.0439  0.7838  0.3511
  568TIP3    H123119   4.105   3.587   5.844  2.6331  1.1350 -1.0513
  568TIP3    H223120   4.008   3.664   5.756  1.1001 -0.2634 -0.6217
  569TIP3   OH223121   3.726   0.494  15.538  0.3162  0.3596 -0.7149
  569TIP3    H123122   3.679   0.411  15.536  0.7158 -0.0045  1.7248
  569TIP3    H223123   3.678   0.547  15.601  1.1988  1.2440 -0.7665
  570TIP3   OH223124   2.925   2.276   3.030 -0.3988  0.5960 -0.3112
  570TIP3    H123125   3.009   2.247   3.067 -1.3949  0.8418  2.3735
  570TIP3    H223126   2.950   2.329   2.955  1.7461 -1.0418 -0.8579
  571TIP3   OH223127   5.510   4.215   3.915  0.1715  0.4947 -0.1627
  571TIP3    H123128   5.545   4.300   3.890  0.3505  0.3714 -0.3286
  571TIP3    H223129   5.432   4.236   3.966  1.6186  0.8524  2.0513
  572TIP3   OH223130   4.815   4.818   3.961  0.5855 -0.5984 -0.1770
  572TIP3    H123131   4.731   4.790   3.998 -0.1480  0.5532 -0.9008
  572TIP3    H223132   4.800   4.909   3.934  1.9110 -0.5443 -0.7902
  573TIP3   OH223133   5.103   6.336  12.294 -0.2086  0.9294 -0.8358
  573TIP3    H123134   5.084   6.395  12.221  3.3675 -1.0258 -3.6404
  573TIP3    H223135   5.099   6.248  12.256 -0.7793 -0.4112  2.0372
  574TIP3   OH223136   4.376   6.052   2.006  0.3760 -0.0876  0.6925
  574TIP3    H123137   4.385   6.087   2.095  1.6378 -2.0795  1.4324
  574TIP3    H223138   4.395   5.958   2.015 -3.1013 -1.1284 -1.0887
  575TIP3   OH223139   5.918   2.437   3.064  0.4041 -0.2423  0.1113
  575TIP3    H123140   5.972   2.445   2.986  0.6416  1.0151  0.3912
  575TIP3    H223141   5.861   2.361   3.047  0.9983 -0.4614 -0.9310
  576TIP3   OH223142   0.858   5.339   3.413  0.5661  0.2142  0.1005
  576TIP3    H123143   0.934   5.324   3.470 -1.0363 -1.0077  2.0062
  576TIP3    H223144   0.806   5.405   3.458 -1.1144 -1.3235  0.5104
  577TIP3   OH223145   5.287   4.705  16.677 -0.2087  0.0225  0.1735
  577TIP3    H123146   5.338   4.782  16.653  1.0431 -0.9249 -0.2665
  577TIP3    H223147   5.245   4.729  16.760  1.5002  0.5784  0.9100
  578TIP3   OH223148   5.020   1.867   3.106  0.4615 -0.0731  0.9051
  578TIP3    H123149   4.956   1.813   3.059  0.0089  0.6868  0.6386
  578TIP3    H223150   5.071   1.804   3.157  2.1056 -1.1921 -1.8743
  579TIP3   OH223151   3.894   1.515   3.512  0.2978 -0.4800  0.0850
  579TIP3    H123152   3.861   1.426   3.496 -0.7107 -0.0810 -0.1088
  579TIP3    H223153   3.840   1.571   3.457  2.2083  0.0857 -1.3095
  580TIP3   OH223154   4.038   5.742  15.552 -0.0212 -0.2085  0.5787
  580TIP3    H123155   4.017   5.828  15.587 -0.3754 -0.8859  2.1383
  580TIP3    H223156   3.993   5.681  15.611 -0.3569 -1.4463 -0.8802
  581TIP3   OH223157   6.299   6.013   4.124  0.1966 -0.2611 -0.7084
  581TIP3    H123158   6.342   5.968   4.052  0.2507  0.4764 -1.1444
  581TIP3    H223159   6.210   5.977   4.124  0.6470 -1.4138 -0.1253
  582TIP3   OH223160   4.074   4.573   4.679 -0.2645 -0.4504 -0.1464
  582TIP3    H123161   4.043   4.565   4.589  1.1949 -0.5714 -0.6592
  582TIP3    H223162   4.169   4.581   4.671 -0.2163  0.9568  1.2948
  583TIP3   OH223163   4.219   0.828   1.106  0.0503 -0.1060 -0.0998
  583TIP3    H123164   4.179   0.885   1.171  2.2039  1.1247  0.2574
  583TIP3    H223165   4.193   0.739   1.132 -3.0040  0.6056 -0.4021
  584TIP3   OH223166   2.211   5.700   1.659 -0.1620  0.2666  0.7686
  584TIP3    H123167   2.224   5.790   1.687 -0.3573  0.8800 -0.9934
  584TIP3    H223168   2.125   5.700   1.616 -0.3722 -0.8704  1.1444
  585TIP3   OH223169   4.619   6.080   0.144  0.1887 -0.5284 -0.0577
  585TIP3    H123170   4.649   6.169   0.124  2.1864 -0.1696  3.5811
  585TIP3    H223171   4.626   6.033   0.062 -1.0946  2.6363 -2.1838
  586TIP3   OH223172   0.104   5.055   2.848 -0.1652 -0.3577  0.2679
  586TIP3    H123173   0.147   5.012   2.922  2.6851  0.4572 -0.7676
  586TIP3    H223174   0.136   5.146   2.851 -1.6772  0.2447 -0.7392
  587TIP3   OH223175   2.288   6.643  14.763 -0.0133  0.1258  0.2525
  587TIP3    H123176   2.375   6.675  14.789  0.7897 -1.3110 -0.5027
  587TIP3    H223177   2.307   6.569  14.705 -1.7523  0.7392 -1.1729
  588TIP3   OH223178   0.017   5.379  13.834  0.1483  0.1095  0.2103
  588TIP3    H123179   0.001   5.315  13.765  0.2149  0.4712 -0.1487
  588TIP3    H223180  -0.070   5.405  13.864  0.1227 -0.7648  0.9526
  589TIP3   OH223181   0.896   3.430  13.321 -0.2939  0.5952  0.3906
  589TIP3    H123182   0.855   3.476  13.395  2.2493  3.4748  0.1963
  589TIP3    H223183   0.860   3.473  13.243  1.2171  1.5388  0.1699
  590TIP3   OH223184   3.852   5.390  16.216 -0.4023  0.1191 -0.0550
  590TIP3    H123185   3.767   5.397  16.173 -0.5899 -0.3311  0.2482
  590TIP3    H223186   3.900   5.468  16.185 -0.4028 -0.3717 -1.3733
  591TIP3   OH223187   0.879   3.281   1.376 -0.0300  0.2477  0.0437
  591TIP3    H123188   0.854   3.222   1.448 -0.1949  1.4938  1.0398
  591TIP3    H223189   0.942   3.341   1.416  0.8262  0.1946 -1.1951
  592TIP3   OH223190   1.549   2.263  14.477 -0.0888  0.7295 -0.2907
  592TIP3    H123191   1.560   2.172  14.449  1.0912  0.7645 -0.0180
  592TIP3    H223192   1.494   2.258  14.555 -0.1753  0.2622 -0.3803
  593TIP3   OH223193   4.032   0.208  14.939 -0.2009  0.3155 -0.1217
  593TIP3    H123194   4.127   0.208  14.948 -0.0747  0.1874 -1.2560
  593TIP3    H223195   4.010   0.297  14.913 -0.6678  0.9922  2.3325
  594TIP3   OH223196   0.575   4.749  11.241 -0.0952 -0.0966 -0.3653
  594TIP3    H123197   0.630   4.812  11.287 -0.8946 -0.2111  0.8052
  594TIP3    H223198   0.552   4.791  11.159  1.2526  0.1861 -0.6098
  595TIP3   OH223199   5.374   3.436  11.825 -0.1226  0.3011 -0.0231
  595TIP3    H123200   5.429   3.384  11.765  0.1095  0.4088  0.0970
  595TIP3    H223201   5.424   3.516  11.841  0.0567  0.0449  0.7342
  596TIP3   OH223202   5.361   6.331  13.507 -0.1805 -0.4310  0.5272
  596TIP3    H123203   5.288   6.269  13.512  0.9852 -1.7818  1.8328
  596TIP3    H223204   5.436   6.282  13.540  1.1696  1.1629 -0.0356
  597TIP3   OH223205   5.658   0.022  14.189 -0.0754  0.1719 -0.6399
  597TIP3    H123206   5.733   0.050  14.136 -1.0246 -0.1638 -2.2197
  597TIP3    H223207   5.583   0.029  14.130 -1.1536 -0.4514  0.6060
  598TIP3   OH223208   0.280   0.827  14.432 -0.3226 -0.5802 -0.0456
  598TIP3    H123209   0.286   0.825  14.337 -0.8527 -3.7226 -0.1041
  598TIP3    H223210   0.369   0.809  14.463 -0.6414 -2.3266 -0.0532
  599TIP3   OH223211   0.512   3.089  14.551  0.1322  0.0497 -0.2619
  599TIP3    H123212   0.422   3.057  14.554  0.1938 -0.2545 -1.3360
  599TIP3    H223213   0.519   3.148  14.625 -1.3391  1.0630 -0.8906
  600TIP3   OH223214   2.489   6.497  11.301  0.1369  0.3464  0.0575
  600TIP3    H123215   2.519   6.447  11.225  2.5003 -0.3767  1.3532
  600TIP3    H223216   2.466   6.583  11.265  0.2955 -0.2676 -1.5975
  601TIP3   OH223217   0.627   3.418  12.548  0.1551  0.6898 -0.7484
  601TIP3    H123218   0.605   3.492  12.491 -1.2113 -0.8428 -2.3262
  601TIP3    H223219   0.550   3.407  12.604  0.1171  0.1364 -0.9013
  602TIP3   OH223220   4.500   5.871  13.627  0.1367  0.2490 -0.6101
  602TIP3    H123221   4.579   5.926  13.626  0.0658  0.4711 -3.2470
  602TIP3    H223222   4.529   5.786  13.594 -0.2110 -0.6407  1.2477
  603TIP3   OH223223   6.098   1.278  17.200  0.0018 -0.3133 -1.2611
  603TIP3    H123224   6.094   1.256  17.293  0.1500  2.6101 -0.4781
  603TIP3    H223225   6.191   1.283  17.180 -0.0307 -0.8248 -1.5450
  604TIP3   OH223226   6.194   0.673  15.984  0.4234 -0.8305 -0.9717
  604TIP3    H123227   6.202   0.582  16.011 -2.8872 -1.0710 -0.2963
  604TIP3    H223228   6.117   0.705  16.031 -1.0121  1.0722 -4.2404
  605TIP3   OH223229   1.516   3.521   0.305 -0.0526  0.5309 -0.2688
  605TIP3    H123230   1.602   3.544   0.269 -0.0758  1.0192 -0.0290
  605TIP3    H223231   1.517   3.558   0.393 -0.0003 -0.6312  0.2360
  606TIP3   OH223232   6.038   0.448  15.360  0.1493 -0.0408 -0.1241
  606TIP3    H123233   5.991   0.369  15.334  0.0770  0.0216 -0.1839
  606TIP3    H223234   6.015   0.513  15.293  0.0818  0.0778  0.0123
  607TIP3   OH223235   2.997   4.647  15.629 -0.0681  0.3135 -0.3438
  607TIP3    H123236   3.084   4.663  15.593  0.2525  2.3475  1.2015
  607TIP3    H223237   2.950   4.729  15.617 -1.1056 -0.1140  0.6132
  608TIP3   OH223238   0.968   5.657   4.998  0.4310  0.0573  0.3204
  608TIP3    H123239   0.899   5.627   4.940  0.4617 -0.3251  0.4791
  608TIP3    H223240   1.049   5.628   4.956  0.4074 -1.2987  1.1468
  609TIP3   OH223241   5.525   1.701  15.676 -0.1605  1.0302 -0.2901
  609TIP3    H123242   5.585   1.742  15.614  0.2409 -1.0253 -1.3281
  609TIP3    H223243   5.446   1.685  15.625  0.2586 -0.9011 -0.3903
  610TIP3   OH223244   2.612   2.847   2.098  0.4388  0.2064 -0.1885
  610TIP3    H123245   2.646   2.822   2.185  2.7770  0.6361 -0.9070
  610TIP3    H223246   2.681   2.821   2.037 -0.0820  2.0693 -1.6762
  611TIP3   OH223247   4.789   1.092  14.755 -0.4113  0.2835 -0.0874
  611TIP3    H123248   4.781   1.063  14.845  0.7672  0.3583  0.0470
  611TIP3    H223249   4.863   1.043  14.720 -1.2055 -0.1768 -1.1959
  612TIP3   OH223250   3.062   1.771   5.699  1.0312 -0.7804 -0.6534
  612TIP3    H123251   3.039   1.709   5.769 -0.2938  0.1941 -0.2024
  612TIP3    H223252   2.979   1.796   5.660  1.5572  0.5606 -0.9689
  613TIP3   OH223253   0.712   2.989   3.954  0.1012 -0.2659  0.2684
  613TIP3    H123254   0.761   2.968   4.034  1.0673  0.0699 -0.2142
  613TIP3    H223255   0.746   2.928   3.889 -0.8550 -0.6989  0.1660
  614TIP3   OH223256   4.131   3.779   3.485 -0.3377  0.3773 -0.6381
  614TIP3    H123257   4.203   3.740   3.534 -0.1246 -0.1150 -1.3420
  614TIP3    H223258   4.165   3.863   3.455 -1.2291  1.7881  2.0044
  615TIP3   OH223259   0.801   3.248  13.782  0.2615  0.6588 -0.1264
  615TIP3    H123260   0.769   3.250  13.872  0.5808  0.4624 -0.0059
  615TIP3    H223261   0.895   3.262  13.790  0.4142 -0.2003 -0.3649
  616TIP3   OH223262   5.188   6.731  10.680  0.4725  0.1222  0.3054
  616TIP3    H123263   5.262   6.711  10.737  1.3047  0.4141 -0.6358
  616TIP3    H223264   5.126   6.659  10.695  1.2369 -0.4886  0.6155
  617TIP3   OH223265   0.478   2.598   4.289  0.4404  0.5239  0.2977
  617TIP3    H123266   0.397   2.550   4.305  0.2666  0.8820  0.5085
  617TIP3    H223267   0.479   2.667   4.356  0.7940  0.6782  0.1374
  618TIP3   OH223268   2.864   3.583   1.776 -0.4889 -0.2832  0.3228
  618TIP3    H123269   2.856   3.673   1.745 -0.6692 -0.1355  0.8041
  618TIP3    H223270   2.833   3.585   1.866 -2.9693 -1.3156 -0.4180
  619TIP3   OH223271   3.015   5.228   2.646  0.1115 -0.9640  0.0312
  619TIP3    H123272   2.929   5.199   2.616 -0.4824  1.3583 -0.7141
  619TIP3    H223273   2.997   5.301   2.705  1.5398  0.5090 -1.2351
  620TIP3   OH223274   4.849   6.362   0.179  0.0723  0.4579 -0.4691
  620TIP3    H123275   4.801   6.417   0.241 -0.7892  0.0008 -0.7094
  620TIP3    H223276   4.856   6.415   0.100 -0.1500  0.4852 -0.4720
  621TIP3   OH223277   4.237   1.127   2.526 -0.1141  0.6333  0.5118
  621TIP3    H123278   4.275   1.105   2.611  0.4815  0.9958  0.3462
  621TIP3    H223279   4.204   1.217   2.537 -0.7570  0.3922  0.5956
  622TIP3   OH223280   1.834   6.523   5.936  0.3164  0.0970 -0.0672
  622TIP3    H123281   1.853   6.442   5.888  0.3082 -0.6258  1.1211
  622TIP3    H223282   1.758   6.560   5.891 -0.8155 -1.5013  0.4790
  623TIP3   OH223283   1.973   4.095  16.751  0.5151  0.0029  0.5303
  623TIP3    H123284   1.932   4.161  16.808 -2.1826 -1.4387  0.4471
  623TIP3    H223285   2.067   4.108  16.763  0.0745  2.4216  2.1503
  624TIP3   OH223286   0.602   6.286  14.694 -0.4827  0.4368  0.0574
  624TIP3    H123287   0.548   6.291  14.773 -0.7844 -0.6964 -0.0533
  624TIP3    H223288   0.684   6.247  14.725  0.4109  2.3990  0.2771
  625TIP3   OH223289   2.068   6.553  15.269 -0.5731  0.1432  0.4539
  625TIP3    H123290   2.148   6.555  15.216 -1.0814  1.3637 -0.3137
  625TIP3    H223291   2.084   6.620  15.336  0.3064 -1.7748  2.2869
  626TIP3   OH223292   3.622   4.569   6.465 -0.2245  0.5469 -0.0956
  626TIP3    H123293   3.626   4.664   6.456 -0.8120  0.7157  1.1615
  626TIP3    H223294   3.528   4.550   6.473 -0.2460 -0.3362 -2.0308
  627TIP3   OH223295   5.036   1.590   2.190 -0.1854  0.1437  0.6241
  627TIP3    H123296   5.049   1.658   2.256  2.7424 -0.0873  0.3997
  627TIP3    H223297   4.989   1.521   2.236  1.6610  0.0453  2.5225
  628TIP3   OH223298   1.479   1.387  14.387  0.4119  0.2833  0.0125
  628TIP3    H123299   1.573   1.406  14.384 -0.0638  3.1151 -0.0305
  628TIP3    H223300   1.449   1.430  14.467 -0.7883 -1.0112  0.2857
  629TIP3   OH223301   6.750   0.281  16.256  0.0043 -0.4982  0.5629
  629TIP3    H123302   6.817   0.302  16.321 -0.8120  0.7535  1.0385
  629TIP3    H223303   6.667   0.294  16.301 -0.5812 -0.8739 -0.3619
  630TIP3   OH223304   1.394   0.334  13.125 -0.3617  0.1400  0.6815
  630TIP3    H123305   1.433   0.419  13.145 -0.3122  0.1714  0.4546
  630TIP3    H223306   1.464   0.285  13.082  0.1631 -0.6286  2.3230
  631TIP3   OH223307   4.555   3.965   4.779  0.0153 -0.3247  0.4362
  631TIP3    H123308   4.507   3.894   4.736  0.3843 -0.2317 -0.1445
  631TIP3    H223309   4.646   3.952   4.752  0.0959  0.3238  0.3818
  632TIP3   OH223310   6.607   4.949  14.405  0.4311  0.6200  0.3605
  632TIP3    H123311   6.572   4.883  14.464 -0.3603 -0.1813 -0.9607
  632TIP3    H223312   6.531   4.984  14.359  1.0094  1.3072 -0.1045
  633TIP3   OH223313   5.226   3.028   0.269  0.0310  0.2748  0.8508
  633TIP3    H123314   5.249   3.046   0.361 -0.8353  1.1928  0.9014
  633TIP3    H223315   5.164   3.097   0.246 -0.8458 -0.7698 -0.0006
  634TIP3   OH223316   2.454   1.817  15.896  0.5107  0.3805  0.4368
  634TIP3    H123317   2.495   1.899  15.871  0.8616 -0.4716 -2.0803
  634TIP3    H223318   2.468   1.759  15.821 -1.9643 -1.1587  1.0243
  635TIP3   OH223319   5.442   3.968  16.105 -0.4223 -0.0169 -0.1716
  635TIP3    H123320   5.378   4.034  16.130  0.3574  1.4562 -1.8525
  635TIP3    H223321   5.389   3.893  16.078 -1.4098  0.6682 -0.2083
  636TIP3   OH223322   0.129   2.147   1.336  0.0812 -0.0730  0.3704
  636TIP3    H123323   0.079   2.095   1.273  0.2158 -0.3772  0.5097
  636TIP3    H223324   0.218   2.110   1.332  0.2278  0.2798  0.3250
  637TIP3   OH223325   1.759   1.210   0.172 -0.1993  0.2285  0.0963
  637TIP3    H123326   1.745   1.155   0.249 -1.0143  1.6457  0.9978
  637TIP3    H223327   1.842   1.179   0.135  0.9184  0.3945  2.3207
  638TIP3   OH223328   2.866   3.146   0.073  0.4616  0.0457  0.1185
  638TIP3    H123329   2.934   3.149   0.006 -0.5982  1.7524 -0.9651
  638TIP3    H223330   2.906   3.185   0.150  0.1852  3.0714 -1.1339
  639TIP3   OH223331   2.487   5.967  17.142  0.6976 -0.3345 -0.3719
  639TIP3    H123332   2.435   5.890  17.166  0.3917 -0.3679 -1.1143
  639TIP3    H223333   2.450   6.039  17.193  1.2323 -0.7468  0.6172
  640TIP3   OH223334   0.307   0.307   1.067 -0.5440 -0.4167  0.0677
  640TIP3    H123335   0.249   0.381   1.083  0.6689  0.5358  0.2123
  640TIP3    H223336   0.302   0.255   1.146  0.4755  0.8540  1.0158
  641TIP3   OH223337   2.652   4.967  15.404  0.2262  0.0318 -0.0961
  641TIP3    H123338   2.601   5.045  15.430  2.3104  0.6631  2.4899
  641TIP3    H223339   2.675   4.984  15.312 -0.9178  1.5626 -0.1541
  642TIP3   OH223340   4.161   6.213   5.400  0.8591 -0.0302 -0.5478
  642TIP3    H123341   4.226   6.269   5.444  1.3334 -0.2686 -0.9324
  642TIP3    H223342   4.078   6.233   5.443  1.0504  0.8625 -0.5846
  643TIP3   OH223343   0.365   3.741  12.894 -0.0209  0.5237 -0.1798
  643TIP3    H123344   0.405   3.775  12.974  0.9893  0.0967 -0.4805
  643TIP3    H223345   0.289   3.797  12.879 -0.7360  0.0894  1.5282
  644TIP3   OH223346   4.480   5.351  13.356 -0.5510  0.1505 -0.8618
  644TIP3    H123347   4.514   5.273  13.399 -1.1168 -0.1185 -0.9021
  644TIP3    H223348   4.465   5.324  13.265 -1.2584  0.1533 -0.7457
  645TIP3   OH223349   1.863   5.682  13.082 -0.1392 -0.7628  0.0290
  645TIP3    H123350   1.957   5.661  13.081  0.2560  0.6621  2.1457
  645TIP3    H223351   1.859   5.775  13.103 -2.0626 -0.9124  0.5265
  646TIP3   OH223352   3.964   4.635   2.968 -0.1408  0.2596 -0.0046
  646TIP3    H123353   3.962   4.554   2.916  1.2079 -1.0674  1.8599
  646TIP3    H223354   4.027   4.691   2.924  1.8222 -1.2779  0.7124
  647TIP3   OH223355   5.224   0.550  14.468  0.6722 -0.5572 -0.3834
  647TIP3    H123356   5.286   0.520  14.534 -0.2181  0.3651  0.9530
  647TIP3    H223357   5.167   0.475  14.452  1.3878 -1.0314 -0.6964
  648TIP3   OH223358   4.014   2.710   4.075  0.8683 -0.0157 -0.4815
  648TIP3    H123359   4.026   2.642   4.142  1.2202  0.2361 -0.2872
  648TIP3    H223360   3.935   2.757   4.102  0.3468 -0.6441 -0.8741
  649TIP3   OH223361   2.409   2.697  13.409  0.0423 -0.2065  0.1998
  649TIP3    H123362   2.360   2.714  13.489  1.7087  2.2586  0.8136
  649TIP3    H223363   2.365   2.749  13.342  0.0979 -0.3019  0.0900
  650TIP3   OH223364   1.010   2.015   1.127  0.0056 -0.5027 -0.0961
  650TIP3    H123365   1.020   1.927   1.163  0.4039 -0.4877 -0.1673
  650TIP3    H223366   0.989   2.070   1.203  1.3755 -0.3769  0.2209
  651TIP3   OH223367   4.924   1.355  15.193 -0.0050 -0.3498  0.7831
  651TIP3    H123368   5.016   1.344  15.168  0.0751 -1.9127  1.6474
  651TIP3    H223369   4.927   1.384  15.284 -0.3779  0.9567  0.4093
  652TIP3   OH223370   4.096   1.313   2.785  0.4527 -0.0970 -0.2665
  652TIP3    H123371   4.147   1.235   2.808  1.6389  0.7663  0.1642
  652TIP3    H223372   4.156   1.365   2.731  0.5068  1.5120  1.2531
  653TIP3   OH223373   5.561   0.786  16.059  0.9401  0.0838 -0.0180
  653TIP3    H123374   5.507   0.715  16.094  0.1688  0.5443 -0.2521
  653TIP3    H223375   5.503   0.862  16.057  0.6692 -0.0950 -3.0923
  654TIP3   OH223376   5.558   4.466   2.364 -0.0425  0.2488  0.0842
  654TIP3    H123377   5.475   4.475   2.317 -0.4919 -0.7119  0.6680
  654TIP3    H223378   5.624   4.456   2.295 -0.2250  2.1274 -0.4341
  655TIP3   OH223379   2.472   3.446  13.854 -0.0524 -0.2031  0.0965
  655TIP3    H123380   2.498   3.367  13.901  2.1722  0.5357  0.2164
  655TIP3    H223381   2.534   3.452  13.782 -1.6799  0.1939 -1.3432
  656TIP3   OH223382   4.939   2.205  10.837  0.7150 -0.3567  0.3701
  656TIP3    H123383   4.983   2.132  10.881 -0.0107 -0.0231  1.6895
  656TIP3    H223384   4.847   2.179  10.835  0.2873  0.9348  1.7519
  657TIP3   OH223385   2.531   2.159   3.854 -0.0407 -0.1362  0.2263
  657TIP3    H123386   2.555   2.126   3.767 -0.4283  0.9441 -0.3174
  657TIP3    H223387   2.463   2.098   3.884  1.1016 -1.3593  0.4187
  658TIP3   OH223388   4.548   5.977   4.819  0.0809  0.3076  0.1548
  658TIP3    H123389   4.570   6.051   4.763  0.8933  0.3087  0.4691
  658TIP3    H223390   4.573   5.900   4.767 -1.0881  0.2313 -0.3161
  659TIP3   OH223391   2.025   2.480  11.060  0.2815  0.1263  0.3367
  659TIP3    H123392   2.019   2.547  10.992  1.0302  0.7912  0.9088
  659TIP3    H223393   2.063   2.404  11.016  4.9724  1.8661  0.8162
  660TIP3   OH223394   5.983   0.161  16.092 -0.2793  0.1265 -0.1527
  660TIP3    H123395   5.899   0.190  16.055 -0.3763 -0.8750 -0.7652
  660TIP3    H223396   6.042   0.234  16.075 -0.6943  0.2923 -0.9770
  661TIP3   OH223397   2.491   3.416  15.172 -0.1035  0.2926  0.0975
  661TIP3    H123398   2.411   3.371  15.200 -0.2744 -0.2761 -1.2063
  661TIP3    H223399   2.488   3.411  15.076  1.0945  0.9829  0.0103
  662TIP3   OH223400   2.383   1.749  13.045  0.1582  0.4786 -0.9542
  662TIP3    H123401   2.411   1.840  13.058  1.4050 -0.1145  0.9168
  662TIP3    H223402   2.440   1.715  12.977  0.6050  0.7276 -0.7102
  663TIP3   OH223403   0.068   3.940   5.573 -0.3383  0.9410  0.3569
  663TIP3    H123404   0.036   3.866   5.521 -1.3465  0.3149  1.8097
  663TIP3    H223405  -0.004   3.960   5.633  0.7041  1.7834  1.3591
  664TIP3   OH223406   4.055   3.229   5.556 -0.3507  0.1166  0.2787
  664TIP3    H123407   3.992   3.235   5.628  0.4750  0.2982  1.0010
  664TIP3    H223408   4.139   3.251   5.596  0.1114  0.3025 -0.7612
  665TIP3   OH223409   6.342   6.229  12.334  0.1085 -0.3251 -0.0718
  665TIP3    H123410   6.374   6.314  12.302 -1.2825  0.1205 -0.3601
  665TIP3    H223411   6.389   6.215  12.416  0.4441  0.6771 -0.0746
  666TIP3   OH223412   5.210   6.434   0.454  0.4981 -0.3686 -0.2281
  666TIP3    H123413   5.173   6.445   0.366  1.6391 -1.4107 -0.8696
  666TIP3    H223414   5.141   6.391   0.504 -0.2828  0.5348 -0.5101
  667TIP3   OH223415   0.890   0.705  12.977  0.3873  0.0394 -0.4772
  667TIP3    H123416   0.843   0.754  12.909 -0.1120 -0.3290 -0.4012
  667TIP3    H223417   0.921   0.773  13.037  0.1405  0.3033 -0.6435
  668TIP3   OH223418   1.989   5.465  13.612 -0.3048  0.2049 -0.3019
  668TIP3    H123419   2.084   5.474  13.608 -0.4569  1.7947 -1.1475
  668TIP3    H223420   1.957   5.521  13.541 -1.8080 -1.8621 -1.3619
  669TIP3   OH223421   5.030   6.257   0.577  0.0395 -0.1772  0.2071
  669TIP3    H123422   4.951   6.284   0.624  0.7219  1.8231  0.2863
  669TIP3    H223423   5.000   6.186   0.520 -2.1666  1.4864 -0.8620
  670TIP3   OH223424   5.186   6.601  10.387 -0.4293 -0.0375  0.4170
  670TIP3    H123425   5.155   6.661  10.454  0.0849  0.1622  0.4839
  670TIP3    H223426   5.127   6.526  10.392  0.0846 -0.3963  1.6534
  671TIP3   OH223427   6.545   3.520  16.153  0.0406 -0.2768 -0.5478
  671TIP3    H123428   6.450   3.527  16.157  0.0732 -0.1645  2.2058
  671TIP3    H223429   6.575   3.549  16.240  2.7470  1.8540 -2.0064
  672TIP3   OH223430   2.141   5.390   1.232  0.4828  0.1532  0.1443
  672TIP3    H123431   2.190   5.347   1.162  0.3342 -1.3144  0.9058
  672TIP3    H223432   2.208   5.421   1.293  0.6124  1.4348 -0.6028
  673TIP3   OH223433   1.503   1.097   5.532 -0.1179 -0.4889  0.0452
  673TIP3    H123434   1.554   1.031   5.486 -1.0043 -0.0579 -1.6653
  673TIP3    H223435   1.530   1.180   5.492  0.2941  0.1087  1.4998
  674TIP3   OH223436   6.687   0.592  12.323 -0.1057  0.2855  0.3331
  674TIP3    H123437   6.771   0.553  12.350 -0.6239  0.0401  1.6923
  674TIP3    H223438   6.632   0.516  12.301 -0.1536  0.4187 -0.0133
  675TIP3   OH223439   4.970   3.249   4.187 -0.8444 -0.3403 -0.1780
  675TIP3    H123440   4.997   3.265   4.096 -1.4374  2.5452  0.0512
  675TIP3    H223441   4.882   3.213   4.180 -0.4041 -1.3469 -0.7441
  676TIP3   OH223442   2.710   4.866   4.114  0.5617 -0.4776 -0.0476
  676TIP3    H123443   2.642   4.830   4.171  0.9030 -1.2298 -0.1091
  676TIP3    H223444   2.664   4.933   4.063 -0.3897 -1.6818 -0.8328
  677TIP3   OH223445   3.783   5.193   2.074  0.0713  0.1582  0.8045
  677TIP3    H123446   3.818   5.198   1.985 -0.8834 -1.2521  0.3127
  677TIP3    H223447   3.860   5.195   2.131  0.8475 -1.2702 -0.1599
  678TIP3   OH223448   6.261   4.107   0.004  0.1109  0.0091 -0.2313
  678TIP3    H123449   6.298   4.077   0.087 -1.2113 -2.1873 -0.3545
  678TIP3    H223450   6.201   4.037  -0.022 -0.7435  1.3959 -2.2323
  679TIP3   OH223451   1.531   2.608   1.143 -0.0064  0.0691 -0.2626
  679TIP3    H123452   1.441   2.586   1.121 -0.0654 -0.8328  0.8200
  679TIP3    H223453   1.543   2.575   1.232  1.3666  0.2653 -0.3545
  680TIP3   OH223454   3.847   4.551  15.293  0.1395  0.0718  0.1809
  680TIP3    H123455   3.808   4.590  15.215  1.4256 -1.4889 -1.3286
  680TIP3    H223456   3.927   4.602  15.306  0.4670 -0.3425 -0.1833
  681TIP3   OH223457   4.676   0.768  16.221  0.2986  0.5812  0.0477
  681TIP3    H123458   4.737   0.694  16.227 -1.5076 -1.0349 -0.7433
  681TIP3    H223459   4.615   0.755  16.293  0.9494  2.3023  0.9577
  682TIP3   OH223460   3.532   2.652   6.354 -0.1415 -0.0175  0.5050
  682TIP3    H123461   3.469   2.722   6.337 -1.3004 -1.1682 -0.1198
  682TIP3    H223462   3.540   2.651   6.450 -0.1023  0.9458  0.5265
  683TIP3   OH223463   6.019   1.545   2.360 -0.4655 -0.5087  0.1926
  683TIP3    H123464   6.084   1.475   2.361 -0.9891 -0.9951  0.6919
  683TIP3    H223465   6.008   1.566   2.267  0.2380 -0.5749  0.0918
  684TIP3   OH223466   6.201   2.725  11.973 -0.4497  0.7679 -0.1874
  684TIP3    H123467   6.230   2.695  12.059 -0.1675  1.1777 -0.1396
  684TIP3    H223468   6.274   2.703  11.915 -0.4471  0.9152 -0.2388
  685TIP3   OH223469   5.348   3.297  13.106 -0.3928  0.4528  0.3050
  685TIP3    H123470   5.331   3.390  13.089  1.2867  1.3000  2.7882
  685TIP3    H223471   5.287   3.274  13.176 -0.8930 -0.3971 -0.3878
  686TIP3   OH223472   1.324   4.986  11.837 -0.1435 -0.6032  0.2715
  686TIP3    H123473   1.230   4.969  11.836 -0.3228  0.3430 -0.4353
  686TIP3    H223474   1.334   5.066  11.785  1.0925 -0.9158  0.0055
  687TIP3   OH223475   5.178   1.547   5.190 -0.0848 -0.1788 -0.0255
  687TIP3    H123476   5.095   1.580   5.156  0.1466 -0.5862 -1.0454
  687TIP3    H223477   5.174   1.561   5.284 -0.4457  1.7025 -0.2901
  688TIP3   OH223478   3.905   3.605  11.881 -0.2653 -0.3539  0.5442
  688TIP3    H123479   3.897   3.517  11.917  2.4096  0.2651  2.9904
  688TIP3    H223480   3.996   3.630  11.896 -0.9229  2.8846  0.0186
  689TIP3   OH223481   6.614   6.408   4.913 -0.0235  0.1323  0.3967
  689TIP3    H123482   6.667   6.485   4.935 -0.0439  0.4230 -0.5499
  689TIP3    H223483   6.529   6.425   4.953  0.5395 -0.2840  1.8255
  690TIP3   OH223484   4.283   4.623  12.355 -0.2458  0.1790 -0.4372
  690TIP3    H123485   4.215   4.690  12.353 -1.0400 -0.5221  1.1168
  690TIP3    H223486   4.350   4.657  12.415 -0.6309 -0.3694  0.3222
  691TIP3   OH223487   2.460   5.115  11.352 -0.0800 -0.3731  0.0826
  691TIP3    H123488   2.510   5.070  11.284  0.6171 -0.8823  0.9313
  691TIP3    H223489   2.394   5.051  11.379  1.0218 -0.9778  1.4132
  692TIP3   OH223490   1.930   3.441   4.730  0.2973  0.0431 -0.1983
  692TIP3    H123491   1.853   3.395   4.763 -1.2620  1.8278 -1.1343
  692TIP3    H223492   1.898   3.488   4.653  2.0724  1.7226  0.0204
  693TIP3   OH223493   6.243   1.959   3.500 -0.1098  0.2614  0.1651
  693TIP3    H123494   6.319   2.017   3.493  1.1172 -1.2930  0.2318
  693TIP3    H223495   6.219   1.939   3.410 -0.4029  0.6810  0.1458
  694TIP3   OH223496   2.125   6.261   3.161  0.0058  0.7933  1.0926
  694TIP3    H123497   2.042   6.283   3.117  0.5220  1.7750  0.5629
  694TIP3    H223498   2.178   6.220   3.092  0.3152  1.0781  1.1584
  695TIP3   OH223499   2.313   5.738   0.209  0.0939 -0.6208  0.3066
  695TIP3    H123500   2.336   5.743   0.116  0.8505 -0.7609  0.4750
  695TIP3    H223501   2.218   5.736   0.210  0.0743 -0.5494 -0.4649
  696TIP3   OH223502   6.561   3.884   3.175 -0.1089  0.5982  0.1544
  696TIP3    H123503   6.491   3.871   3.239  0.2976 -2.1811  0.1649
  696TIP3    H223504   6.532   3.834   3.098  1.7713 -0.5925  0.1529
  697TIP3   OH223505   4.062   4.688   2.179 -0.2066 -0.2820  0.4089
  697TIP3    H123506   4.121   4.626   2.222  1.0652  2.0759  2.2793
  697TIP3    H223507   4.006   4.720   2.249 -0.0518  1.5142 -0.2312
  698TIP3   OH223508   5.019   1.878  12.448  0.0155 -0.4344 -0.0038
  698TIP3    H123509   4.968   1.845  12.375  0.2008  1.8849 -1.2790
  698TIP3    H223510   5.110   1.859  12.424  0.0735  0.2899 -0.4025
  699TIP3   OH223511   6.352   1.596  11.801  0.0855  0.3586  0.2110
  699TIP3    H123512   6.435   1.621  11.762  0.0900  0.1799  0.1050
  699TIP3    H223513   6.364   1.612  11.895  0.8263 -1.2243  0.4162
  700TIP3   OH223514   4.664   5.884  12.937  0.5266  0.0028 -0.7055
  700TIP3    H123515   4.718   5.943  12.990  1.5237 -0.3721 -1.2793
  700TIP3    H223516   4.582   5.932  12.925  0.5929  0.4452  0.4591
  701TIP3   OH223517   3.092   6.127  14.368 -0.4581 -0.2127 -0.2993
  701TIP3    H123518   3.019   6.187  14.385  1.4793  1.9660  0.9641
  701TIP3    H223519   3.124   6.151  14.282  1.3024  1.8244  0.8319
  702TIP3   OH223520   0.454   0.817  14.891 -0.0298  0.3304 -0.2652
  702TIP3    H123521   0.451   0.806  14.986 -1.1942  1.1439 -0.1879
  702TIP3    H223522   0.546   0.829  14.871  0.6271 -2.6873  0.4002
  703TIP3   OH223523   3.354   3.992  16.079 -0.3647  0.2882  0.2909
  703TIP3    H123524   3.273   3.944  16.095 -0.3414  0.3214  0.5112
  703TIP3    H223525   3.338   4.040  15.997 -0.3287 -0.2215 -0.0183
  704TIP3   OH223526   5.861   0.890   2.197  0.1016 -0.0511 -0.6978
  704TIP3    H123527   5.922   0.869   2.268  0.3003  1.6744 -0.3365
  704TIP3    H223528   5.776   0.860   2.229 -0.0644  1.9634  0.9094
  705TIP3   OH223529   0.802   2.780   1.728 -0.3882 -0.3595 -0.5920
  705TIP3    H123530   0.767   2.765   1.815  2.5051 -0.0853  0.7346
  705TIP3    H223531   0.881   2.726   1.724  0.8997  1.4961 -2.0832
  706TIP3   OH223532   0.996   1.447   1.999 -0.6324  0.0110 -0.5855
  706TIP3    H123533   1.044   1.457   1.916 -2.4831  0.5286 -1.6552
  706TIP3    H223534   0.906   1.468   1.976 -0.9762  1.5827  1.8810
  707TIP3   OH223535   4.302   2.745   1.580  0.0037 -0.1447  0.1123
  707TIP3    H123536   4.373   2.708   1.632  0.5513  0.0532 -0.4647
  707TIP3    H223537   4.239   2.674   1.570 -0.8366  0.2340  2.2621
  708TIP3   OH223538   1.067   2.094  15.651  0.4017  0.7330  0.1851
  708TIP3    H123539   1.007   2.111  15.578  0.4335 -0.9014 -0.2563
  708TIP3    H223540   1.062   2.173  15.705 -3.1470  0.2281  0.8469
  709TIP3   OH223541   5.199   5.265  11.791 -0.7388 -0.5781 -0.2091
  709TIP3    H123542   5.249   5.346  11.803 -0.6519 -0.8924  2.1080
  709TIP3    H223543   5.266   5.198  11.774 -0.7526 -0.3189 -1.3659
  710TIP3   OH223544   3.638   1.841  12.362  0.2630 -0.0224  0.4180
  710TIP3    H123545   3.636   1.933  12.387 -1.0932 -0.3768  1.6942
  710TIP3    H223546   3.569   1.832  12.296  0.7569 -0.0273 -0.1068
  711TIP3   OH223547   1.043   3.034  12.694 -0.0960 -0.5096  0.2195
  711TIP3    H123548   1.006   2.960  12.742  0.8460 -0.9069  0.3644
  711TIP3    H223549   1.058   3.000  12.605 -1.1103 -0.0113 -0.1592
  712TIP3   OH223550   4.729   3.220   0.006  0.1078 -0.2262  0.4921
  712TIP3    H123551   4.655   3.162  -0.017  1.5375 -2.4112  1.0789
  712TIP3    H223552   4.691   3.283   0.068 -1.7392  0.1382 -0.9149
  713TIP3   OH223553   3.619   6.019  13.658 -0.1966 -0.2954 -0.0221
  713TIP3    H123554   3.583   6.107  13.669  1.6169  0.4363  0.5360
  713TIP3    H223555   3.714   6.033  13.652 -0.0290 -1.9363 -3.0257
  714TIP3   OH223556   0.621   2.792  14.629 -0.0276 -0.0558 -0.0924
  714TIP3    H123557   0.545   2.850  14.637 -2.1576 -2.6339 -0.2440
  714TIP3    H223558   0.602   2.738  14.552  1.5197 -1.3756  0.3964
  715TIP3   OH223559   0.976   6.137  14.662 -0.2059 -0.1709  0.1086
  715TIP3    H123560   0.902   6.104  14.713 -0.4035  1.4389  0.9338
  715TIP3    H223561   0.945   6.135  14.571 -1.1708  0.1924  0.4100
  716TIP3   OH223562   3.141   2.703  11.198 -0.1434 -0.1770 -0.5991
  716TIP3    H123563   3.226   2.709  11.154 -0.1941  0.8572 -0.5720
  716TIP3    H223564   3.077   2.704  11.126 -0.1479 -0.6801 -0.6053
  717TIP3   OH223565   1.446   4.472  15.797  0.2146  0.2251  0.3147
  717TIP3    H123566   1.482   4.541  15.741  0.5872 -0.2736 -0.0785
  717TIP3    H223567   1.352   4.473  15.779  0.4619 -0.7079 -1.2506
  718TIP3   OH223568   3.165   3.731  13.502  0.2688  0.7058  0.0600
  718TIP3    H123569   3.188   3.818  13.470 -1.5578  0.6737 -1.5001
  718TIP3    H223570   3.100   3.748  13.571 -0.8937  0.5911 -0.9738
  719TIP3   OH223571   5.856   5.222   3.931  0.2447  0.2058 -0.1872
  719TIP3    H123572   5.837   5.226   3.837 -0.1889  2.2710 -0.0526
  719TIP3    H223573   5.846   5.130   3.953 -1.6184 -0.0459 -1.7844
  720TIP3   OH223574   4.504   3.069  15.187 -0.5120  0.5972 -0.1259
  720TIP3    H123575   4.431   3.046  15.244 -1.4287  3.0129 -0.2342
  720TIP3    H223576   4.575   3.090  15.247 -0.7115  0.7602  0.0534
  721TIP3   OH223577   6.699   5.224  14.347  0.0591 -0.1661 -0.1851
  721TIP3    H123578   6.665   5.136  14.365 -0.4929 -0.1465 -1.0364
  721TIP3    H223579   6.789   5.210  14.320 -0.4657 -0.6537 -1.8021
  722TIP3   OH223580   6.082   0.474  12.708  0.1586  0.2544 -0.1433
  722TIP3    H123581   6.139   0.437  12.775  0.4587 -0.3368 -0.7187
  722TIP3    H223582   5.993   0.450  12.736  0.2388  0.4770  0.3189
  723TIP3   OH223583   1.425   4.808  11.479  0.2203  0.5556 -0.4506
  723TIP3    H123584   1.483   4.788  11.405  0.3019  0.4658 -0.3619
  723TIP3    H223585   1.419   4.903  11.479  2.6166  0.8134  1.2330
  724TIP3   OH223586   4.950   3.795   4.032 -0.7433 -0.1882  0.4218
  724TIP3    H123587   4.911   3.781   4.118  0.2198  1.3519  1.1382
  724TIP3    H223588   4.900   3.867   3.994 -1.3195 -1.0100 -0.4499
  725TIP3   OH223589   4.043   5.759  16.250 -0.0007 -0.1252 -0.8607
  725TIP3    H123590   4.011   5.694  16.187  1.4651 -2.4729  0.6343
  725TIP3    H223591   4.118   5.716  16.292 -0.1385  1.7981  1.5989
  726TIP3   OH223592   1.144   0.311  14.483  0.0382  0.6154 -0.2040
  726TIP3    H123593   1.169   0.289  14.393 -0.6497 -0.6972 -0.1132
  726TIP3    H223594   1.100   0.395  14.476  0.2843  0.6870 -1.0483
  727TIP3   OH223595   3.241   0.787  13.289 -0.4366 -0.3775 -0.7164
  727TIP3    H123596   3.324   0.744  13.309  0.2066  0.9977 -0.3282
  727TIP3    H223597   3.201   0.804  13.374 -0.0010  1.0617 -0.7788
  728TIP3   OH223598   0.779   6.152  15.042  0.1327  0.3479  0.3630
  728TIP3    H123599   0.715   6.172  15.111  0.6670 -1.8004  1.5712
  728TIP3    H223600   0.814   6.238  15.017 -1.7513  1.3946  1.1048
  729TIP3   OH223601   3.473   4.920  17.157 -0.4768 -0.9596  0.0951
  729TIP3    H123602   3.502   4.915  17.249 -0.9766 -0.1512  0.3075
  729TIP3    H223603   3.552   4.944  17.108 -0.6036  0.5649  0.5804
  730TIP3   OH223604   6.587   5.794   5.300 -0.1765  0.3445 -0.0110
  730TIP3    H123605   6.650   5.866   5.294 -0.5901  0.9129  1.7532
  730TIP3    H223606   6.640   5.717   5.323  0.0656  0.4617 -0.1775
  731TIP3   OH223607   4.445   4.396   0.951  0.0566  0.1010 -0.1982
  731TIP3    H123608   4.357   4.433   0.941 -0.7069 -1.3687  0.6789
  731TIP3    H223609   4.498   4.469   0.982 -1.3525  0.5567  1.2874
  732TIP3   OH223610   1.251   1.872   4.788  0.3128  0.3897  1.2165
  732TIP3    H123611   1.205   1.798   4.827  0.7805 -0.2861  0.5161
  732TIP3    H223612   1.182   1.924   4.747  0.0981 -0.3323  0.6314
  733TIP3   OH223613   1.955   4.312   5.739  0.0670 -0.6286  0.0419
  733TIP3    H123614   1.922   4.317   5.649  1.2758 -0.5992 -0.4212
  733TIP3    H223615   2.025   4.377   5.743  0.3579 -0.9715  0.8508
  734TIP3   OH223616   2.696   4.004  15.584 -0.3532 -1.1962  0.0639
  734TIP3    H123617   2.666   4.095  15.574 -0.7254 -1.2754  0.4438
  734TIP3    H223618   2.707   3.973  15.494  3.0337  0.2580 -0.1935
  735TIP3   OH223619   6.603   3.792  13.810 -0.0027  0.4181 -0.1214
  735TIP3    H123620   6.669   3.858  13.835  1.0749 -1.3684  2.1316
  735TIP3    H223621   6.638   3.710  13.844 -2.3697 -0.9738 -0.8516
  736TIP3   OH223622   4.990   4.676   2.287  0.2997  0.2421  0.0258
  736TIP3    H123623   5.012   4.699   2.196  0.6419  0.4817  0.1668
  736TIP3    H223624   4.918   4.735   2.310 -0.4955 -0.5220 -0.4258
  737TIP3   OH223625   0.735   1.059   1.653  0.4624  0.1179 -0.2760
  737TIP3    H123626   0.650   1.039   1.614  1.5616 -0.7065 -2.3657
  737TIP3    H223627   0.742   1.154   1.648 -0.9614  0.3737  1.4106
  738TIP3   OH223628   1.692   6.195  15.993  0.0013 -0.3258  0.3520
  738TIP3    H123629   1.772   6.145  15.975  0.8967  0.6173  1.5178
  738TIP3    H223630   1.622   6.142  15.957  1.0839 -1.5937  0.0360
  739TIP3   OH223631   3.508   4.635  12.978  0.5121 -0.2104  1.0981
  739TIP3    H123632   3.426   4.641  13.028 -0.3791 -1.5573 -0.1034
  739TIP3    H223633   3.487   4.673  12.892  0.9888 -0.9887  0.6229
  740TIP3   OH223634   6.225   1.153   3.985 -0.5976  0.2037  0.4531
  740TIP3    H123635   6.289   1.171   3.916 -0.3397  1.7657  1.0704
  740TIP3    H223636   6.277   1.148   4.065 -1.1854  0.9866  0.8904
  741TIP3   OH223637   3.164   1.548  15.611  0.1276 -0.0032 -0.2275
  741TIP3    H123638   3.207   1.462  15.606  0.3031  0.1334 -1.4374
  741TIP3    H223639   3.196   1.595  15.534 -0.1654  1.0623  0.2851
  742TIP3   OH223640   3.475   1.560  13.224 -0.7479 -0.0824 -0.6434
  742TIP3    H123641   3.557   1.522  13.192 -0.0956  1.3920 -0.8321
  742TIP3    H223642   3.450   1.622  13.156  0.7372  3.2258  1.5684
  743TIP3   OH223643   6.561   1.848   5.459 -0.0981  0.3999 -0.3152
  743TIP3    H123644   6.632   1.880   5.515 -1.4662  2.8553  0.1546
  743TIP3    H223645   6.574   1.894   5.376  1.0111 -2.0530 -1.5919
  744TIP3   OH223646   6.065   3.374  14.317  0.7803 -0.2721 -0.0854
  744TIP3    H123647   6.024   3.410  14.395  0.0911 -1.8243  0.3129
  744TIP3    H223648   6.020   3.291  14.302  1.5139 -0.4353 -1.6142
  745TIP3   OH223649   5.976   0.744   1.746  0.1356 -0.6504 -0.2951
  745TIP3    H123650   6.030   0.764   1.670 -1.0823 -0.2740 -1.1095
  745TIP3    H223651   5.948   0.654   1.732  0.1372 -0.6736 -0.1482
  746TIP3   OH223652   3.904   6.667  13.284 -0.3064  0.2564 -0.2956
  746TIP3    H123653   3.821   6.681  13.239 -0.3933  0.7458  0.0104
  746TIP3    H223654   3.895   6.715  13.366  0.3004  0.3528 -0.2861
  747TIP3   OH223655   2.081   4.686  16.617  0.1164 -0.3850  0.1244
  747TIP3    H123656   2.131   4.610  16.586  0.0111 -0.9900  1.3826
  747TIP3    H223657   1.992   4.653  16.630  0.1806 -0.1907  1.1540
  748TIP3   OH223658   4.679   0.638   0.117  0.0439  0.7776 -0.2069
  748TIP3    H123659   4.640   0.560   0.079 -1.0878  1.7833 -1.2029
  748TIP3    H223660   4.687   0.699   0.043 -0.5789  2.1707  0.8279
  749TIP3   OH223661   0.840   3.278  14.859  0.0946  0.1811 -0.4213
  749TIP3    H123662   0.763   3.231  14.827  0.8652 -0.5538 -1.2618
  749TIP3    H223663   0.844   3.357  14.805 -0.0477  0.2053 -0.3966
  750TIP3   OH223664   0.579   6.298   3.617 -0.3030 -0.0803 -0.2647
  750TIP3    H123665   0.656   6.303   3.674 -1.0029  1.0797  0.6367
  750TIP3    H223666   0.572   6.386   3.579 -0.5184 -0.5129 -1.2497
  751TIP3   OH223667   4.851   3.620  16.549 -0.1794 -0.7150 -0.2742
  751TIP3    H123668   4.809   3.620  16.635 -1.3469 -1.3954 -0.8251
  751TIP3    H223669   4.884   3.531  16.539 -0.3483 -0.7327 -0.6765
  752TIP3   OH223670   1.604   2.065   5.329 -0.0885 -0.4635 -0.1501
  752TIP3    H123671   1.544   1.992   5.313 -0.9601  0.1173  0.3938
  752TIP3    H223672   1.569   2.137   5.276 -0.6697  0.2748  1.1703
  753TIP3   OH223673   2.753   1.691  14.481 -0.4997  0.0419  0.0346
  753TIP3    H123674   2.838   1.667  14.444 -0.0803  2.7597 -1.0027
  753TIP3    H223675   2.699   1.714  14.405 -1.3130  0.7888  0.8054
  754TIP3   OH223676   1.194   2.717   6.532 -0.6239  0.2547  0.2684
  754TIP3    H123677   1.190   2.807   6.564  2.4590  0.6020 -0.0229
  754TIP3    H223678   1.222   2.726   6.440 -0.4886 -0.9719  0.1768
  755TIP3   OH223679   0.801   5.010   4.705 -0.0953  0.2376  0.5301
  755TIP3    H123680   0.808   5.079   4.639 -1.4464  0.1848  0.2951
  755TIP3    H223681   0.813   5.055   4.789  0.4591  0.5029  0.3152
  756TIP3   OH223682   4.182   2.874   4.921  0.1150  0.5944 -0.3357
  756TIP3    H123683   4.112   2.816   4.950  0.9475 -0.4161 -0.3026
  756TIP3    H223684   4.230   2.824   4.856  1.3902  0.8899  0.3451
  757TIP3   OH223685   1.390   2.352   3.817 -0.3311  0.0162  0.0692
  757TIP3    H123686   1.482   2.363   3.792 -0.3580 -1.0945 -0.5449
  757TIP3    H223687   1.368   2.263   3.792 -0.9981 -0.4385  2.0996
  758TIP3   OH223688   6.578   1.599   1.555  0.1943 -0.5965 -0.0621
  758TIP3    H123689   6.610   1.513   1.528  1.1258 -0.4243  0.4841
  758TIP3    H223690   6.656   1.654   1.558 -0.0740 -0.2622  1.6492
  759TIP3   OH223691   3.219   2.005  16.880  0.7869  0.5560  0.1680
  759TIP3    H123692   3.153   2.057  16.834 -1.1047 -0.2066  1.8734
  759TIP3    H223693   3.196   2.013  16.972  1.5724 -1.7858  0.6266
  760TIP3   OH223694   3.787   6.002  15.842  0.4290 -0.2615 -0.2462
  760TIP3    H123695   3.862   6.019  15.785  1.5777  0.7448  1.4765
  760TIP3    H223696   3.823   6.005  15.931 -1.4099 -1.1212  0.5830
  761TIP3   OH223697   3.241   5.790  11.693 -0.1765 -0.0730 -0.1603
  761TIP3    H123698   3.313   5.746  11.647  0.3093  0.1067  0.4091
  761TIP3    H223699   3.162   5.750  11.657  0.0457  1.6645 -2.8517
  762TIP3   OH223700   3.038   0.516   3.527  0.4371  0.0186 -0.1432
  762TIP3    H123701   2.988   0.590   3.492  0.5716  0.3532  0.3512
  762TIP3    H223702   3.120   0.555   3.556  0.2299 -0.1926  0.7768
  763TIP3   OH223703   6.319   2.022   5.467  0.1168  0.2226 -0.4659
  763TIP3    H123704   6.410   1.993   5.458  0.4955  1.4728 -0.8312
  763TIP3    H223705   6.314   2.102   5.416 -1.2100  0.1614 -0.4627
  764TIP3   OH223706   1.901   4.896  14.043  0.0527 -0.2284 -0.1145
  764TIP3    H123707   1.846   4.895  13.965  2.0020  0.0700 -1.5562
  764TIP3    H223708   1.936   4.985  14.047  1.1023 -0.6404  0.2592
  765TIP3   OH223709   1.622   3.014   5.463  0.0601  0.1116 -0.2066
  765TIP3    H123710   1.564   3.003   5.538  0.4278  0.8440  0.1969
  765TIP3    H223711   1.702   2.967   5.488 -0.3153 -0.8138 -0.7204
  766TIP3   OH223712   6.500   3.749  15.658  0.2444  0.2373 -0.1285
  766TIP3    H123713   6.536   3.711  15.578 -1.7938 -0.2012 -0.9130
  766TIP3    H223714   6.411   3.715  15.662  0.9446 -1.6653  3.5983
  767TIP3   OH223715   5.595   5.672   2.007 -0.4884  0.6455  0.6338
  767TIP3    H123716   5.533   5.661   2.079  0.6561 -0.5538  1.4917
  767TIP3    H223717   5.661   5.732   2.041 -0.6308  1.1102  0.1007
  768TIP3   OH223718   2.883   6.056  11.901 -0.4987 -0.4552  0.3561
  768TIP3    H123719   2.965   6.009  11.916  0.7571  1.3942 -0.3992
  768TIP3    H223720   2.876   6.117  11.974  0.0085  0.9714 -0.7473
  769TIP3   OH223721   5.675   0.656  14.079 -0.2314 -0.3375  0.4732
  769TIP3    H123722   5.642   0.604  14.152 -1.2821  0.2093  0.3960
  769TIP3    H223723   5.704   0.591  14.015 -0.1633 -0.8172  0.9806
  770TIP3   OH223724   2.133   4.699  16.048  0.2034  0.0131 -0.8623
  770TIP3    H123725   2.092   4.777  16.010  0.4808  0.4700 -0.2412
  770TIP3    H223726   2.059   4.648  16.082  0.0505  0.2070 -0.8997
  771TIP3   OH223727   3.850   3.669  13.181 -0.1769  0.3178 -0.0262
  771TIP3    H123728   3.926   3.724  13.202 -1.4597  1.8532  0.8159
  771TIP3    H223729   3.830   3.623  13.263  1.1080 -1.7876 -0.8178
  772TIP3   OH223730   4.903   5.955  13.406 -0.3057  0.1558 -0.6876
  772TIP3    H123731   4.988   5.986  13.374  0.1421  0.7289  0.9748
  772TIP3    H223732   4.910   5.860  13.403  0.9652  0.1619  0.7590
  773TIP3   OH223733   5.245   3.000   5.518 -0.2503  0.2054  0.1603
  773TIP3    H123734   5.171   3.031   5.570 -0.3331 -0.3172  0.3616
  773TIP3    H223735   5.207   2.931   5.462 -0.3075  1.1942 -1.0599
  774TIP3   OH223736   3.568   1.495   1.890 -0.0874 -0.6218  0.0101
  774TIP3    H123737   3.632   1.455   1.949  0.0510 -1.8567 -0.9252
  774TIP3    H223738   3.522   1.559   1.944  0.2517 -1.4732  1.3570
  775TIP3   OH223739   1.146   6.057  14.056 -0.0940 -0.0300  0.5239
  775TIP3    H123740   1.200   6.108  13.995 -1.7826  1.8410  0.4799
  775TIP3    H223741   1.161   5.966  14.031  1.2868  0.5473 -0.9313
  776TIP3   OH223742   6.476   0.050   2.294  0.3443  0.4538 -0.0235
  776TIP3    H123743   6.454   0.125   2.239  0.9201  1.0439  0.5395
  776TIP3    H223744   6.464  -0.026   2.237 -1.6094  0.8494 -0.2028
  777TIP3   OH223745   3.845   0.393  12.248 -0.4838 -0.0400  0.1653
  777TIP3    H123746   3.818   0.336  12.177 -0.0802 -2.4749  1.8365
  777TIP3    H223747   3.793   0.473  12.236  0.5677  0.2827 -3.5706
  778TIP3   OH223748   6.783   3.262   2.090 -0.6955  0.7641 -0.6218
  778TIP3    H123749   6.787   3.229   2.000  1.2010 -0.3817 -0.1861
  778TIP3    H223750   6.735   3.344   2.084 -0.1174  1.0043 -2.7917
  779TIP3   OH223751   2.756   5.953   2.016 -0.0711  0.8058  0.5414
  779TIP3    H123752   2.841   5.997   2.028 -0.1945  0.9623  0.8699
  779TIP3    H223753   2.766   5.902   1.936  0.4020  0.6655  0.6900
  780TIP3   OH223754   3.356   4.786  15.700  0.2133 -0.2791 -0.2454
  780TIP3    H123755   3.429   4.834  15.662  2.0513 -1.4675  1.5696
  780TIP3    H223756   3.385   4.694  15.699 -0.8853 -0.6738  1.3017
  781TIP3   OH223757   0.751   1.103   4.873 -0.2354 -0.6931 -0.6689
  781TIP3    H123758   0.808   1.051   4.929 -2.5499 -2.4562  0.1803
  781TIP3    H223759   0.808   1.133   4.802  2.3136 -0.0765  1.4933
  782TIP3   OH223760   0.808   2.927   2.954 -0.1831  0.4421 -0.0504
  782TIP3    H123761   0.719   2.920   2.987 -0.3944 -0.4294 -0.7499
  782TIP3    H223762   0.863   2.893   3.024 -0.6631 -1.8852 -0.7257
  783TIP3   OH223763   4.767   1.639   5.898 -0.0467 -0.1000  0.6320
  783TIP3    H123764   4.817   1.557   5.899  1.6623  0.7695 -2.0274
  783TIP3    H223765   4.747   1.656   5.990 -0.5624 -3.4933  1.2693
  784TIP3   OH223766   3.047   1.961   1.153  0.3757  0.1423 -0.1296
  784TIP3    H123767   3.089   2.022   1.093 -1.5538  0.7840 -0.8979
  784TIP3    H223768   3.080   1.875   1.127  2.1154  0.6861  0.1081
  785TIP3   OH223769   5.654   6.194  12.685  0.2485  0.2057  0.1858
  785TIP3    H123770   5.728   6.137  12.665 -1.0568 -1.9695  1.1612
  785TIP3    H223771   5.693   6.273  12.720  2.1600  0.0653 -1.4454
  786TIP3   OH223772   0.121   0.145  12.403 -0.2617 -0.3714  0.0640
  786TIP3    H123773   0.175   0.066  12.397  3.2543  1.9083 -1.4508
  786TIP3    H223774   0.102   0.168  12.313 -0.7616  0.7820  0.4464
  787TIP3   OH223775   4.903   3.652   3.416  0.1726  0.4227  0.2032
  787TIP3    H123776   4.895   3.677   3.324 -1.1564  0.2253  0.2480
  787TIP3    H223777   4.822   3.683   3.456  1.3267  1.7557  1.6277
  788TIP3   OH223778   5.361   4.673  15.214 -0.0949 -0.0338  0.1917
  788TIP3    H123779   5.397   4.587  15.192 -1.1981 -0.5666  0.3656
  788TIP3    H223780   5.306   4.696  15.139  0.3453  0.6209  0.0606
  789TIP3   OH223781   2.401   3.397  15.499  0.1781 -0.1215  0.4269
  789TIP3    H123782   2.351   3.378  15.579  0.8268 -0.6009  0.7282
  789TIP3    H223783   2.399   3.492  15.492  0.6098 -0.0287  1.3592
  790TIP3   OH223784   2.368   6.234   6.348 -0.7835 -0.2373  0.0946
  790TIP3    H123785   2.363   6.216   6.441 -0.0458  1.3431  0.4723
  790TIP3    H223786   2.441   6.181   6.317 -0.6108 -0.2701  0.5516
  791TIP3   OH223787   1.278   4.248   4.748  0.2285  0.5319  0.3433
  791TIP3    H123788   1.213   4.198   4.797 -0.3386  1.6051  0.7131
  791TIP3    H223789   1.358   4.243   4.801  0.0389  0.4324  0.6194
  792TIP3   OH223790   0.480   3.952  17.164  0.0180 -0.4813  0.2943
  792TIP3    H123791   0.553   3.919  17.111  0.0834 -0.8223  0.5878
  792TIP3    H223792   0.482   3.898  17.243  0.7785  0.9202  1.2736
  793TIP3   OH223793   1.717   0.362   3.824  0.0458 -0.3732  0.9694
  793TIP3    H123794   1.724   0.278   3.780 -0.7773  0.5820 -1.1385
  793TIP3    H223795   1.804   0.377   3.863  0.9282 -1.1549 -0.6154
  794TIP3   OH223796   0.376   5.720  13.355 -0.6360  0.0219  0.0210
  794TIP3    H123797   0.376   5.651  13.421  2.0747  1.7046  2.0191
  794TIP3    H223798   0.404   5.677  13.274  0.8053 -1.3232  1.1655
  795TIP3   OH223799   3.928   1.462  11.926 -0.1795  0.1920 -0.3315
  795TIP3    H123800   3.922   1.556  11.946 -0.5701  0.0825  0.0742
  795TIP3    H223801   3.921   1.418  12.011 -3.5589 -0.3391 -0.7338
  796TIP3   OH223802   1.451   0.015   4.026 -0.0763 -0.8088 -0.3452
  796TIP3    H123803   1.426  -0.015   3.939 -0.4570  0.1033 -0.5615
  796TIP3    H223804   1.457   0.110   4.018  1.1582 -0.8137  0.3059
  797TIP3   OH223805   2.460   0.450  16.928  0.8789  0.1574  0.3140
  797TIP3    H123806   2.420   0.371  16.894 -2.6060  1.7786  0.2240
  797TIP3    H223807   2.521   0.478  16.859  0.7226 -1.3810 -0.4850
  798TIP3   OH223808   5.860   5.282   4.615 -0.2398  0.6829 -0.6166
  798TIP3    H123809   5.786   5.224   4.633  0.4170  0.8140  3.2101
  798TIP3    H223810   5.932   5.224   4.595 -0.4309  0.3716 -0.4015
  799TIP3   OH223811   6.365   6.538   3.208 -1.0008  0.7600  0.0911
  799TIP3    H123812   6.324   6.457   3.237 -0.4507  1.2234  2.3396
  799TIP3    H223813   6.446   6.509   3.166 -1.8089  0.0689 -1.0773
  800TIP3   OH223814   4.177   6.437   1.254 -0.2006 -0.7005  0.1712
  800TIP3    H123815   4.103   6.382   1.228  0.4197 -1.0199 -0.9935
  800TIP3    H223816   4.157   6.523   1.216 -0.5177 -0.4765  0.8353
  801TIP3   OH223817   2.097   6.493   0.687 -0.5332 -0.8132 -0.2377
  801TIP3    H123818   2.062   6.566   0.738 -1.5763 -0.9401 -0.7487
  801TIP3    H223819   2.152   6.445   0.749 -1.9900 -1.1299  0.8794
  802TIP3   OH223820   0.809   2.387   2.119 -0.5877  0.0990 -0.5237
  802TIP3    H123821   0.808   2.314   2.057  1.2220  1.1237 -1.8915
  802TIP3    H223822   0.899   2.390   2.151 -0.4295  2.0958 -1.0215
  803TIP3   OH223823   5.101   0.120   3.824 -0.0941 -0.2314  0.2880
  803TIP3    H123824   5.032   0.118   3.891 -0.5652 -0.9913 -0.2123
  803TIP3    H223825   5.130   0.212   3.823 -1.6292  0.2804 -0.0224
  804TIP3   OH223826   5.057   1.248  13.450  0.2838  0.4391 -0.0009
  804TIP3    H123827   4.997   1.174  13.437  0.0184  0.4828  0.9058
  804TIP3    H223828   5.058   1.262  13.544  0.5896  1.3837 -0.1295
  805TIP3   OH223829   1.786   4.621   6.347  0.2061  0.1341  0.1287
  805TIP3    H123830   1.768   4.709   6.314 -0.8264  0.5007  1.5749
  805TIP3    H223831   1.711   4.568   6.321 -0.4941  0.3651  1.5608
  806TIP3   OH223832   5.025   2.877  14.546 -0.2443 -0.4509  0.0422
  806TIP3    H123833   4.996   2.967  14.560  0.9822  0.2387 -1.5108
  806TIP3    H223834   4.947   2.824  14.559 -1.0330  0.8417  0.7948
  807TIP3   OH223835   5.097   1.571   5.568  0.5886  1.0592 -0.5712
  807TIP3    H123836   5.147   1.498   5.531  0.0601  0.9208 -1.0122
  807TIP3    H223837   5.084   1.546   5.660  1.4086  1.1415 -0.4238
  808TIP3   OH223838   2.368   4.986   4.068  0.3529 -0.4558  0.3547
  808TIP3    H123839   2.274   4.967   4.068  0.4630 -1.0423  1.0138
  808TIP3    H223840   2.403   4.935   3.995  0.0358  0.4831 -0.4793
  809TIP3   OH223841   0.211   4.466  11.433  0.0096  0.2994  0.2504
  809TIP3    H123842   0.222   4.554  11.399 -1.6673  0.3983 -0.1195
  809TIP3    H223843   0.251   4.409  11.367 -2.6864  0.5306 -1.7108
  810TIP3   OH223844   5.802   3.151  15.626 -0.4178  0.2743  0.0679
  810TIP3    H123845   5.825   3.122  15.538 -0.8443  0.2012 -0.0238
  810TIP3    H223846   5.796   3.246  15.619 -0.4367  0.2697  0.0188
  811TIP3   OH223847   6.107   5.194   5.600  0.0416  0.1335  0.5629
  811TIP3    H123848   6.166   5.180   5.674 -0.0634 -0.2272  0.5779
  811TIP3    H223849   6.028   5.230   5.639  0.8944  2.4128  0.3609
  812TIP3   OH223850   4.678   6.363  13.852  0.3223 -0.5446 -0.3953
  812TIP3    H123851   4.586   6.347  13.833  0.2492 -0.1903 -0.3480
  812TIP3    H223852   4.723   6.351  13.768  0.4371 -2.1747 -0.1287
  813TIP3   OH223853   1.406   1.570   5.033 -0.4214  0.0540 -0.2003
  813TIP3    H123854   1.404   1.662   5.056  1.5363 -0.2196  1.2134
  813TIP3    H223855   1.496   1.542   5.050 -1.3101 -2.4541  0.8313
  814TIP3   OH223856   4.183   6.418   1.638  0.1083  0.3247  0.0339
  814TIP3    H123857   4.208   6.367   1.716  0.8040  0.6124  0.0081
  814TIP3    H223858   4.251   6.398   1.574  0.9145  1.9581  0.3249
  815TIP3   OH223859   5.354   6.051  10.624 -0.2273 -0.0553 -0.5199
  815TIP3    H123860   5.271   6.086  10.591 -0.7554  1.7057  2.3276
  815TIP3    H223861   5.334   6.017  10.711  1.7475 -1.0774 -0.4004
  816TIP3   OH223862   1.866   3.360   5.896 -0.2664 -0.1693  0.3072
  816TIP3    H123863   1.942   3.308   5.872 -0.6678 -1.5897  1.9375
  816TIP3    H223864   1.901   3.427   5.955  0.2385  1.4877 -1.7412
  817TIP3   OH223865   0.528   0.650   1.548 -0.3333  0.1144  0.7579
  817TIP3    H123866   0.505   0.729   1.500 -0.9636 -0.0862  0.7184
  817TIP3    H223867   0.458   0.588   1.526  0.8326 -0.8850 -0.2465
  818TIP3   OH223868   2.674   2.506   2.675 -0.1453 -0.2010 -0.7332
  818TIP3    H123869   2.643   2.460   2.597  0.6638  0.8628 -1.7094
  818TIP3    H223870   2.627   2.464   2.747 -3.1708  0.6535 -2.0093
  819TIP3   OH223871   2.982   4.502  14.488 -0.0293 -0.4506 -0.4953
  819TIP3    H123872   2.897   4.505  14.531  0.2012 -1.0422  0.0179
  819TIP3    H223873   2.974   4.430  14.424 -0.1293 -0.0671 -0.9169
  820TIP3   OH223874   0.721   3.582   3.705 -0.7114 -0.3200 -0.1625
  820TIP3    H123875   0.644   3.531   3.678 -1.0386  0.1954 -0.2203
  820TIP3    H223876   0.684   3.657   3.752 -0.2020 -0.5641  0.6579
  821TIP3   OH223877   4.418   0.061  12.811 -0.2460 -0.6661 -0.2076
  821TIP3    H123878   4.392  -0.028  12.786  0.8418 -0.8162 -0.8614
  821TIP3    H223879   4.509   0.068  12.783 -0.9188  1.3945 -2.1755
  822TIP3   OH223880   2.502   6.080   5.916 -0.4045 -0.0441  0.1694
  822TIP3    H123881   2.565   6.076   5.844 -0.0201 -3.1594  0.5637
  822TIP3    H223882   2.450   6.000   5.908 -0.6962 -0.2435  3.0499
  823TIP3   OH223883   0.741   6.665  12.148  0.2243  0.5892 -0.1579
  823TIP3    H123884   0.655   6.632  12.122  0.5948 -0.6290  0.1025
  823TIP3    H223885   0.729   6.698  12.237 -0.2583  1.6630 -0.5926
  824TIP3   OH223886   0.975   3.591   6.231 -0.0837  0.7057 -0.0545
  824TIP3    H123887   1.026   3.668   6.255  0.3419  0.1933  0.7431
  824TIP3    H223888   0.904   3.625   6.176 -0.9809  1.9395  1.7534
  825TIP3   OH223889   4.350   3.527   2.601 -0.6744  0.0538 -0.2307
  825TIP3    H123890   4.353   3.612   2.644 -0.9769 -0.4319  0.7686
  825TIP3    H223891   4.355   3.463   2.672  1.5506 -0.7989 -1.0613
  826TIP3   OH223892   1.589   4.078   0.806 -0.3463 -0.4907  0.4455
  826TIP3    H123893   1.682   4.054   0.801 -0.0824  0.3280  1.1534
  826TIP3    H223894   1.578   4.112   0.895 -0.8597  1.3393 -0.2856
  827TIP3   OH223895   3.448   5.703   5.620 -0.2546 -0.1517  0.4790
  827TIP3    H123896   3.505   5.775   5.592  0.7369 -1.8120 -2.0756
  827TIP3    H223897   3.507   5.638   5.658 -0.1369 -2.2656 -2.9632
  828TIP3   OH223898   3.228   1.841   4.209 -0.0884 -0.3046 -0.2199
  828TIP3    H123899   3.309   1.838   4.261 -0.1949  1.2482  0.0578
  828TIP3    H223900   3.234   1.764   4.152  1.6332 -0.1639 -0.2728
  829TIP3   OH223901   2.124   2.262   4.102 -0.4294 -0.6467  0.0822
  829TIP3    H123902   2.154   2.173   4.123 -0.8140 -0.9184 -0.5006
  829TIP3    H223903   2.029   2.255   4.098 -0.4122 -0.4373 -0.9489
  830TIP3   OH223904   6.422   5.666   4.130 -0.2122  0.0658  0.4285
  830TIP3    H123905   6.444   5.590   4.076 -1.3234  0.8675 -1.2554
  830TIP3    H223906   6.460   5.740   4.083 -0.0383  0.6604  1.4891
  831TIP3   OH223907   2.560   5.733  13.943  0.5657 -0.8053 -0.3097
  831TIP3    H123908   2.501   5.658  13.928  1.0015 -1.3688  0.7107
  831TIP3    H223909   2.589   5.723  14.033 -0.5941  1.4897  0.3775
  832TIP3   OH223910   4.008   1.772   0.164 -0.5620 -0.0519 -0.1936
  832TIP3    H123911   4.059   1.837   0.212 -0.4604 -1.4866  1.7777
  832TIP3    H223912   4.068   1.739   0.096 -0.1837  0.9538 -0.3644
  833TIP3   OH223913   2.700   3.727  16.223  0.2631 -0.4491  0.0885
  833TIP3    H123914   2.756   3.796  16.257 -1.3369  1.5752 -1.1075
  833TIP3    H223915   2.744   3.697  16.143 -0.2371  1.0687 -0.7984
  834TIP3   OH223916   0.288   6.519  12.767 -0.2690  0.0190  0.0008
  834TIP3    H123917   0.220   6.482  12.823 -0.2793 -1.6489 -1.0321
  834TIP3    H223918   0.369   6.479  12.799  0.1133  1.1741  0.5380
  835TIP3   OH223919   0.755   3.846  13.427  0.1473  0.1570 -0.6193
  835TIP3    H123920   0.811   3.911  13.382  0.8545 -0.6241 -0.8947
  835TIP3    H223921   0.816   3.795  13.480 -0.6267  0.8036  0.9689
  836TIP3   OH223922   4.110   1.700  12.108  0.1637 -0.2210 -0.5980
  836TIP3    H123923   4.027   1.738  12.137  0.5976  0.1391  0.2076
  836TIP3    H223924   4.104   1.700  12.012 -0.7488 -0.1753 -0.5522
  837TIP3   OH223925   5.865   4.974   4.936  0.5475  0.7418  0.0135
  837TIP3    H123926   5.783   5.000   4.895 -0.5382 -1.8237  0.3985
  837TIP3    H223927   5.933   5.006   4.877 -0.6512  3.1321 -0.1861
  838TIP3   OH223928   6.496   1.438   3.215 -0.0704  0.5619 -0.1637
  838TIP3    H123929   6.507   1.529   3.242  0.1204 -0.1070  2.3051
  838TIP3    H223930   6.556   1.426   3.142 -1.2106  2.7692 -1.5643
  839TIP3   OH223931   5.404   4.055   1.116  0.0877 -0.1077  0.5799
  839TIP3    H123932   5.312   4.081   1.119  0.0376 -0.0800 -0.6573
  839TIP3    H223933   5.448   4.129   1.074  0.4908 -0.5871  0.1414
  840TIP3   OH223934   6.254   5.734  10.939 -0.1508 -0.4085 -0.0517
  840TIP3    H123935   6.287   5.644  10.945  1.8730  0.4065  2.8542
  840TIP3    H223936   6.331   5.789  10.947 -1.4926  1.6321 -0.4020
  841TIP3   OH223937   4.186   3.296  16.898 -0.4107  0.2090 -0.0180
  841TIP3    H123938   4.190   3.203  16.920  1.5210  0.4420  0.8012
  841TIP3    H223939   4.097   3.323  16.921 -1.5661 -1.7590 -1.8126
  842TIP3   OH223940   2.380   4.797  11.400  0.2475 -0.2237 -0.0070
  842TIP3    H123941   2.316   4.781  11.330  0.8672 -0.1963 -0.5943
  842TIP3    H223942   2.327   4.803  11.480 -0.9097  3.0148 -0.8565
  843TIP3   OH223943   0.287   3.469  13.159  0.3365 -0.3584  0.4378
  843TIP3    H123944   0.226   3.433  13.223 -3.4034  2.0415 -1.3474
  843TIP3    H223945   0.302   3.559  13.188  0.6511 -0.0361 -0.6535
  844TIP3   OH223946   0.959   6.116  15.952 -0.1912 -0.0771  0.1398
  844TIP3    H123947   0.893   6.131  15.884 -0.0443 -0.2463 -0.0419
  844TIP3    H223948   0.908   6.108  16.033 -0.2103  2.9374  0.5400
  845TIP3   OH223949   2.773   4.088  16.577  0.4090 -0.3027  0.3438
  845TIP3    H123950   2.681   4.061  16.581 -0.5359  2.2971 -1.5063
  845TIP3    H223951   2.794   4.116  16.666 -0.3702 -1.4530  0.9152
  846TIP3   OH223952   5.731   1.417  15.172 -0.2345 -0.1542  0.0993
  846TIP3    H123953   5.706   1.464  15.092  1.9889  1.3569  0.2309
  846TIP3    H223954   5.740   1.326  15.144  1.0492  0.4358 -1.5357
  847TIP3   OH223955   4.014   1.766  11.833  0.2376  0.3967  0.0906
  847TIP3    H123956   4.088   1.742  11.778 -0.3041 -0.6382 -0.2099
  847TIP3    H223957   3.937   1.746  11.780 -0.2695  1.5393  0.3659
  848TIP3   OH223958   4.659   6.324   2.634  0.8271 -0.6570  0.1892
  848TIP3    H123959   4.614   6.337   2.550 -0.2411 -0.4364  0.7750
  848TIP3    H223960   4.749   6.352   2.618  0.5790 -0.4062 -0.8206
  849TIP3   OH223961   6.467   0.307  14.518 -0.2631 -0.2167  0.0308
  849TIP3    H123962   6.456   0.329  14.425 -0.5569 -1.1945 -0.1817
  849TIP3    H223963   6.518   0.226  14.517 -0.8997 -0.6378  0.6853
  850TIP3   OH223964   2.940   0.935   5.388  0.1800 -0.5339 -0.1705
  850TIP3    H123965   2.867   0.913   5.330  0.0885 -0.1379 -0.2100
  850TIP3    H223966   3.013   0.881   5.357 -0.0238 -0.7336 -0.2999
  851TIP3   OH223967   3.916   2.872   3.590 -0.0789 -0.4489 -0.2724
  851TIP3    H123968   3.883   2.854   3.678  0.9070  1.2686  0.4931
  851TIP3    H223969   3.857   2.938   3.555  0.0309 -0.5035 -0.5658
  852TIP3   OH223970   0.311   0.815   0.824 -0.2465 -0.2695  0.2969
  852TIP3    H123971   0.373   0.887   0.815 -0.8637  0.2590  0.1346
  852TIP3    H223972   0.365   0.738   0.837  0.4703  0.0687 -0.5412
  853TIP3   OH223973   4.615   0.026  14.358 -0.3144  0.3225  0.0525
  853TIP3    H123974   4.690   0.072  14.397 -0.5717  0.0969  0.8447
  853TIP3    H223975   4.597   0.074  14.277  0.5373  0.5190 -0.0339
  854TIP3   OH223976   6.299   2.477  11.760  0.0595  0.6168 -0.7090
  854TIP3    H123977   6.310   2.435  11.845 -1.1655  1.1324 -0.2642
  854TIP3    H223978   6.204   2.479  11.747  0.2536 -0.0462 -2.4037
  855TIP3   OH223979   0.371   3.691   0.378  0.2184 -0.0930 -0.2898
  855TIP3    H123980   0.350   3.600   0.359  0.2187 -0.3211  0.7279
  855TIP3    H223981   0.301   3.741   0.338 -1.0325 -0.6971  1.0494
  856TIP3   OH223982   6.656   2.837  15.242 -0.6387  0.2247  0.3701
  856TIP3    H123983   6.652   2.886  15.324 -0.1339  0.7909  0.0686
  856TIP3    H223984   6.625   2.899  15.176 -0.4208 -0.0142  0.0435
  857TIP3   OH223985   5.796   2.258   3.502 -0.3750  0.0392  0.2257
  857TIP3    H123986   5.729   2.203   3.463 -0.6348  0.8289 -0.4719
  857TIP3    H223987   5.814   2.325   3.436 -0.8868  1.4605  1.4532
  858TIP3   OH223988   4.313   5.552   6.032  0.6933 -0.5075  0.2096
  858TIP3    H123989   4.283   5.589   6.115 -1.6992 -0.1305 -0.7602
  858TIP3    H223990   4.358   5.471   6.057 -0.5071 -0.7160  1.8431
  859TIP3   OH223991   4.124   2.325  11.238  0.3211  0.6764 -0.0282
  859TIP3    H123992   4.170   2.392  11.288  0.3271  0.2896  0.4843
  859TIP3    H223993   4.037   2.362  11.223  0.0638  0.4749  0.9375
  860TIP3   OH223994   5.240   2.252  12.514 -0.0368 -0.1225  0.1258
  860TIP3    H123995   5.251   2.179  12.575 -0.6578 -0.1592  0.2050
  860TIP3    H223996   5.150   2.242  12.482 -0.1103  0.5872  0.1054
  861TIP3   OH223997   0.129   1.413   0.195 -0.2259 -0.3365  0.0338
  861TIP3    H123998   0.190   1.364   0.250 -0.8123 -1.7030 -0.4949
  861TIP3    H223999   0.159   1.396   0.105  1.3400  2.6794 -0.1420
  862TIP3   OH224000   3.743   5.269   1.266 -0.3107 -0.0239  0.1746
  862TIP3    H124001   3.673   5.299   1.323  0.6101  0.2801  1.1693
  862TIP3    H224002   3.787   5.349   1.237 -0.1173 -0.2326 -0.1168
  863TIP3   OH224003   6.578   5.115   5.592  0.4748  0.0534 -0.2821
  863TIP3    H124004   6.507   5.090   5.533  0.5095 -0.6517 -0.0322
  863TIP3    H224005   6.535   5.139   5.674  0.3926  1.4531 -0.7037
  864TIP3   OH224006   3.236   5.071  16.207 -0.1921 -0.0476  0.1113
  864TIP3    H124007   3.322   5.098  16.238 -0.9709  2.5437  0.1749
  864TIP3    H224008   3.231   5.105  16.117 -1.1408 -0.1965  0.0964
  865TIP3   OH224009   6.401   3.864  14.850  0.1744 -0.2405 -0.5788
  865TIP3    H124010   6.446   3.893  14.929 -0.6478 -0.7359  0.0864
  865TIP3    H224011   6.431   3.774  14.837  1.4287  0.3054 -1.6814
  866TIP3   OH224012   0.995   2.497  12.364  0.5338 -0.2616  0.3166
  866TIP3    H124013   0.903   2.471  12.367  0.6456 -0.7245 -0.0846
  866TIP3    H224014   1.009   2.547  12.444 -0.2378  0.3844  0.0650
  867TIP3   OH224015   1.873   1.808   0.701  0.4789  0.0010  0.4931
  867TIP3    H124016   1.943   1.832   0.762  2.3236  1.3896 -1.9752
  867TIP3    H224017   1.910   1.735   0.650 -0.8843 -0.9047  0.7581
  868TIP3   OH224018   4.309   3.317  16.141  0.1985 -0.1808  0.2707
  868TIP3    H124019   4.310   3.231  16.099 -2.2802 -0.1395  0.0095
  868TIP3    H224020   4.244   3.367  16.092 -1.3959  0.5037  2.8907
  869TIP3   OH224021   6.653   2.557   5.348 -0.4577 -0.3410  0.4976
  869TIP3    H124022   6.660   2.569   5.443 -0.3266 -2.0453  0.7271
  869TIP3    H224023   6.743   2.539   5.320 -0.4829  0.2317  0.0269
  870TIP3   OH224024   3.007   2.391   1.998 -0.2392 -0.2504  0.2319
  870TIP3    H124025   3.014   2.481   1.967 -2.2129  0.1595  0.7847
  870TIP3    H224026   2.967   2.344   1.925  4.6322 -1.8295 -1.7973
  871TIP3   OH224027   5.047   4.691   1.967  0.3626 -0.1588  0.2780
  871TIP3    H124028   5.051   4.597   1.981  0.5995 -0.2893 -0.5877
  871TIP3    H224029   4.982   4.703   1.898 -0.1026  0.3704  0.7909
  872TIP3   OH224030   3.086   1.204  16.628 -0.0575 -0.2310 -0.1028
  872TIP3    H124031   3.081   1.123  16.679  0.3233 -0.5077 -0.5035
  872TIP3    H224032   3.024   1.262  16.671 -1.6503 -1.3145 -0.8698
  873TIP3   OH224033   6.728   2.831   5.800  0.0916 -0.5551  0.8201
  873TIP3    H124034   6.761   2.745   5.826 -0.2547 -0.9885 -0.1334
  873TIP3    H224035   6.806   2.880   5.776  0.1899 -1.0744  0.0370
  874TIP3   OH224036   2.687   5.800  13.250 -0.9036 -0.2622  0.1008
  874TIP3    H124037   2.676   5.741  13.175 -1.3572  0.6335 -0.5629
  874TIP3    H224038   2.643   5.881  13.223  1.8537  1.3108 -0.0691
  875TIP3   OH224039   4.100   4.881  14.945 -0.1162 -0.0903  0.1275
  875TIP3    H124040   4.097   4.878  14.849 -0.5223  0.0121  0.1364
  875TIP3    H224041   4.166   4.947  14.965  0.3846 -0.5241 -0.0806
  876TIP3   OH224042   2.469   6.003  14.058  0.1511 -0.2733  0.0673
  876TIP3    H124043   2.429   6.009  14.145  1.1385 -0.0661  0.5206
  876TIP3    H224044   2.564   6.000  14.076  0.4138  0.7634 -1.0477
  877TIP3   OH224045   3.737   4.955  15.997  0.6601 -0.3792  0.5505
  877TIP3    H124046   3.754   4.972  15.904 -0.7987 -0.1222  0.3014
  877TIP3    H224047   3.674   4.883  15.997 -0.0616  0.2230  1.2840
  878TIP3   OH224048   1.260   1.830   4.314 -0.2809  0.5727  0.3869
  878TIP3    H124049   1.213   1.751   4.339 -2.2094  2.0406  1.7178
  878TIP3    H224050   1.202   1.875   4.253  0.3952  1.3406  0.2824
  879TIP3   OH224051   4.937   2.622  15.621 -0.2116  0.2369 -0.0497
  879TIP3    H124052   4.852   2.584  15.598 -0.2115  0.9425 -1.2809
  879TIP3    H224053   4.916   2.692  15.683 -0.0353 -3.2628  4.5198
  880TIP3   OH224054   4.221   5.266  15.552 -0.3595 -0.0275 -0.4995
  880TIP3    H124055   4.240   5.360  15.549 -0.8787  0.1726  1.2473
  880TIP3    H224056   4.277   5.228  15.485  1.7167  1.2569  0.4017
  881TIP3   OH224057   2.666   2.370   3.979  0.0885  0.4876 -0.2970
  881TIP3    H124058   2.619   2.296   3.942 -0.1213  0.5305 -0.1142
  881TIP3    H224059   2.613   2.446   3.956  1.2507  0.8201 -2.1636
  882TIP3   OH224060   3.353   3.618  12.263  0.1553 -0.1720  0.3282
  882TIP3    H124061   3.304   3.573  12.195 -0.3013 -0.2711  0.7206
  882TIP3    H224062   3.288   3.669  12.312  0.7750  1.7093 -0.6970
  883TIP3   OH224063   0.525   4.377  12.506  0.1505 -0.1247 -0.5662
  883TIP3    H124064   0.498   4.302  12.453  0.8099 -0.1504 -0.8757
  883TIP3    H224065   0.568   4.338  12.582 -0.2187 -0.0734 -0.3280
  884TIP3   OH224066   3.026   0.175  11.200  0.0148 -0.5287 -0.2821
  884TIP3    H124067   3.095   0.230  11.238 -0.3730 -0.1554 -0.1131
  884TIP3    H224068   3.069   0.091  11.183 -0.1440 -1.2110  2.3290
  885TIP3   OH224069   5.039   6.165  10.949  0.0490  0.1635  0.3318
  885TIP3    H124070   5.112   6.128  10.899 -1.1669 -2.5478  0.3867
  885TIP3    H224071   4.995   6.089  10.987 -3.0310  1.6318  0.0015
  886TIP3   OH224072   4.877   1.954   2.220  0.1547 -0.0051 -0.6763
  886TIP3    H124073   4.803   1.963   2.161  1.2389  1.2163 -1.9403
  886TIP3    H224074   4.951   1.932   2.163  0.9736 -0.1722  0.4047
  887TIP3   OH224075   4.778   2.653   3.994  0.6799  0.4246  0.5780
  887TIP3    H124076   4.692   2.664   4.035  0.0646 -2.9301  0.4274
  887TIP3    H224077   4.831   2.608   4.059  0.9933 -1.2333 -0.7613
  888TIP3   OH224078   5.194   0.425   6.312 -0.4259  0.1249  0.1984
  888TIP3    H124079   5.199   0.520   6.325 -0.8703  0.1360  0.3211
  888TIP3    H224080   5.184   0.389   6.400 -1.1976  0.0384  0.0880
  889TIP3   OH224081   1.961   6.701  11.249 -0.6816 -0.3010 -0.3087
  889TIP3    H124082   1.907   6.634  11.206  2.5345 -2.9007 -0.7049
  889TIP3    H224083   2.019   6.732  11.179 -0.3301  0.9495  0.5195
  890TIP3   OH224084   1.757   0.695  13.576  0.4144  0.2063  0.0988
  890TIP3    H124085   1.785   0.604  13.564 -0.0482 -0.0039  0.5906
  890TIP3    H224086   1.825   0.746  13.531  0.6174 -0.3795 -0.2839
  891TIP3   OH224087   3.565   5.049   1.620  0.2157 -0.0793 -0.4592
  891TIP3    H124088   3.502   4.980   1.600 -0.1502  0.1576 -0.1535
  891TIP3    H224089   3.610   5.019   1.699  2.4376 -1.5358 -2.1501
  892TIP3   OH224090   2.500   6.769   0.903  0.0640  0.2554 -0.9344
  892TIP3    H124091   2.596   6.774   0.902  0.0979 -0.1825 -0.2441
  892TIP3    H224092   2.477   6.765   0.996 -0.4372 -2.8385 -1.0961
  893TIP3   OH224093   1.117   2.240   2.354 -0.1330 -0.2265  0.3173
  893TIP3    H124094   1.151   2.310   2.298 -1.6547 -0.6713 -1.2527
  893TIP3    H224095   1.184   2.228   2.421  2.0191  0.0586 -1.6475
  894TIP3   OH224096   5.647   2.567  10.465  0.0206  0.2180  0.2764
  894TIP3    H124097   5.723   2.530  10.421 -2.2371 -1.4057 -2.6798
  894TIP3    H224098   5.615   2.496  10.522 -0.0587  0.3781  0.4326
  895TIP3   OH224099   1.569   3.105   5.185  0.4047 -0.1742 -0.2324
  895TIP3    H124100   1.560   3.086   5.278  1.4003 -0.7974 -0.2504
  895TIP3    H224101   1.661   3.131   5.175  0.3548 -0.2927 -1.0666
  896TIP3   OH224102   6.094   5.954  11.803 -0.3290  0.2124 -0.0874
  896TIP3    H124103   6.066   5.920  11.718 -0.0330 -1.5009  0.4524
  896TIP3    H224104   6.187   5.936  11.807 -0.4208 -0.1544  0.7738
  897TIP3   OH224105   6.768   3.155   1.020 -0.2616 -0.0843  0.3181
  897TIP3    H124106   6.743   3.245   0.997  0.4394  0.1919  0.5734
  897TIP3    H224107   6.819   3.165   1.101  0.0776 -0.6760  0.1851
  898TIP3   OH224108   6.594   0.297  11.379 -0.0586 -1.0059  0.2467
  898TIP3    H124109   6.503   0.282  11.353 -0.1262  3.0314 -2.7933
  898TIP3    H224110   6.588   0.365  11.446  0.5956  1.5057 -2.0631
  899TIP3   OH224111   1.617   6.277  13.892  0.2108  0.3042  0.7709
  899TIP3    H124112   1.604   6.188  13.925  0.2736  0.0761  0.1915
  899TIP3    H224113   1.630   6.330  13.971 -0.7963 -0.0318  1.1740
  900TIP3   OH224114   4.083   5.079  14.615 -0.1910 -0.0636 -0.1835
  900TIP3    H124115   4.116   5.129  14.689  1.5996  0.6083 -1.3679
  900TIP3    H224116   4.109   5.129  14.538 -0.1279 -1.7906 -1.3592
  901TIP3   OH224117   1.057   1.986  10.482 -0.0919 -0.2371  0.5264
  901TIP3    H124118   1.136   2.029  10.515  0.3096  0.2063 -0.9236
  901TIP3    H224119   0.994   2.057  10.472 -0.0157 -0.2555 -0.1651
  902TIP3   OH224120   2.982   2.571   5.747  0.1411  0.3666  0.2474
  902TIP3    H124121   2.934   2.565   5.665 -0.4432 -2.9349  0.6849
  902TIP3    H224122   3.074   2.572   5.721 -0.0230 -1.0682 -0.4911
  903TIP3   OH224123   6.534   3.220   0.745 -0.0791 -0.4944 -0.0719
  903TIP3    H124124   6.448   3.186   0.773 -0.9284  0.4949 -1.3575
  903TIP3    H224125   6.540   3.306   0.786 -0.6358  0.3002 -1.6005
  904TIP3   OH224126   4.821   4.232   1.972  0.1752  0.0809 -0.2937
  904TIP3    H124127   4.827   4.166   2.042  1.7743 -0.4326 -0.8697
  904TIP3    H224128   4.772   4.189   1.902  0.2330 -0.0903 -0.2288
  905TIP3   OH224129   1.603   2.907   1.173  0.3455 -0.4147  0.0288
  905TIP3    H124130   1.542   2.945   1.109  0.9519 -0.6864 -0.7093
  905TIP3    H224131   1.649   2.838   1.126  0.8627 -0.5637  0.7324
  906TIP3   OH224132   5.468   4.574   1.710  0.6539  0.1193  0.2205
  906TIP3    H124133   5.478   4.594   1.803  2.8378  1.2695 -0.2038
  906TIP3    H224134   5.512   4.490   1.698 -0.4536 -0.4994  0.3612
  907TIP3   OH224135   2.933   1.045   4.044  0.4354  0.1344 -0.6191
  907TIP3    H124136   2.842   1.073   4.052  0.4163 -0.4779  2.0680
  907TIP3    H224137   2.983   1.126   4.035 -0.2852  0.5073 -1.4021
  908TIP3   OH224138   2.020   1.678  17.161 -0.1209  0.4824  0.0239
  908TIP3    H124139   2.062   1.605  17.115  0.6843 -0.3813  1.9755
  908TIP3    H224140   2.008   1.745  17.094 -1.3364 -1.5785 -1.9635
  909TIP3   OH224141   1.752   1.295   3.124 -0.2158  0.3947  0.6367
  909TIP3    H124142   1.812   1.241   3.073  2.7632  1.7916  2.3600
  909TIP3    H224143   1.681   1.317   3.063  0.6170 -1.9343 -1.3301
  910TIP3   OH224144   3.295   6.660  11.432  0.2653 -0.1121 -0.7179
  910TIP3    H124145   3.207   6.686  11.405 -0.0838  0.6976  1.0478
  910TIP3    H224146   3.323   6.597  11.366 -1.3368  0.1849 -1.7245
  911TIP3   OH224147   5.368   2.058   5.819 -0.6296 -0.3146 -0.0359
  911TIP3    H124148   5.391   2.073   5.911  1.2254 -0.2797 -0.4529
  911TIP3    H224149   5.301   2.123   5.801 -0.5836  0.0926  1.1362
  912TIP3   OH224150   0.297   3.726  13.911  0.2882 -0.3168 -0.3700
  912TIP3    H124151   0.309   3.785  13.836  2.0410 -0.0807  0.0637
  912TIP3    H224152   0.269   3.643  13.871 -0.7458  0.3516 -1.1030
  913TIP3   OH224153   1.945   2.809   3.298  0.2076 -0.3942  0.2768
  913TIP3    H124154   1.968   2.900   3.282 -0.7610 -0.0227  0.9306
  913TIP3    H224155   1.981   2.791   3.385  1.0503 -0.8784 -0.1549
  914TIP3   OH224156   0.970   1.994   2.804 -0.5037  0.5613 -0.1562
  914TIP3    H124157   0.999   1.912   2.844 -1.5036 -0.4447 -1.4253
  914TIP3    H224158   0.951   1.971   2.713 -2.3409  1.8362 -0.1401
  915TIP3   OH224159   5.066   5.689  15.146 -0.3218  0.5746  0.7883
  915TIP3    H124160   5.155   5.712  15.172 -0.7154  1.9126  1.0363
  915TIP3    H224161   5.034   5.766  15.099 -1.0638 -0.2134 -0.0251
  916TIP3   OH224162   4.943   0.041   6.298  0.2929 -0.6115 -0.0456
  916TIP3    H124163   4.988   0.097   6.234 -0.2262  2.0155  1.7473
  916TIP3    H224164   4.994   0.051   6.378 -2.3377  1.0728  1.5734
  917TIP3   OH224165   3.259   1.691   5.160  0.2487 -0.7325 -0.2392
  917TIP3    H124166   3.203   1.614   5.162  0.2699 -0.7992 -1.5683
  917TIP3    H224167   3.203   1.762   5.191  0.3025 -1.2981  1.2328
  918TIP3   OH224168   5.277   6.701  15.389  0.3495  0.4126 -0.4690
  918TIP3    H124169   5.314   6.689  15.477 -0.0781  1.7002 -0.0889
  918TIP3    H224170   5.182   6.705  15.403  0.3665  3.3880 -0.5539
  919TIP3   OH224171   1.731   1.498  16.210  0.2491 -0.1396  0.0729
  919TIP3    H124172   1.637   1.487  16.221  0.2026  1.0141  1.1360
  919TIP3    H224173   1.767   1.410  16.216 -0.5903 -0.4140  1.7293
  920TIP3   OH224174   6.421   3.247   4.130 -1.0530 -0.0862 -0.1377
  920TIP3    H124175   6.446   3.250   4.223 -0.1473 -0.1239 -0.3772
  920TIP3    H224176   6.475   3.178   4.093  1.2374  2.2320 -1.4607
  921TIP3   OH224177   5.054   3.151  15.423  0.1625 -0.1032 -0.1033
  921TIP3    H124178   4.969   3.175  15.461  0.1089 -1.1922  0.5086
  921TIP3    H224179   5.099   3.234  15.411 -0.3749  0.3834  1.0451
  922TIP3   OH224180   5.826   5.675   0.221 -0.1966 -0.3196 -0.3314
  922TIP3    H124181   5.759   5.724   0.268 -0.6305 -0.6907 -0.5637
  922TIP3    H224182   5.839   5.724   0.140  0.9866  0.6650  0.4096
  923TIP3   OH224183   4.596   2.129   1.380  0.2850  0.5088 -0.6418
  923TIP3    H124184   4.643   2.206   1.412  0.8363 -0.0454 -0.0948
  923TIP3    H224185   4.613   2.061   1.445 -2.8460  0.7733  0.6278
  924TIP3   OH224186   0.720   2.242  11.424  0.0945 -0.0564 -0.3531
  924TIP3    H124187   0.638   2.279  11.391  1.3086  1.2610 -2.1081
  924TIP3    H224188   0.756   2.310  11.482  1.3601  0.7512 -1.9947
  925TIP3   OH224189   2.494   6.548   0.014  0.6640 -0.6277  0.2397
  925TIP3    H124190   2.457   6.615   0.071 -0.9486 -0.0635 -1.3768
  925TIP3    H224191   2.576   6.587  -0.017  0.6900 -0.2223  0.7856
  926TIP3   OH224192   4.002   2.113  16.911  0.3462 -0.2837  0.4905
  926TIP3    H124193   4.018   2.077  16.823  1.2081  1.0407  0.0755
  926TIP3    H224194   4.012   2.038  16.970  0.8033 -0.9810 -0.4439
  927TIP3   OH224195   2.358   5.610  13.721  0.2509 -0.6147  0.5059
  927TIP3    H124196   2.388   5.701  13.724 -0.3121 -0.4097 -0.0097
  927TIP3    H224197   2.375   5.581  13.631  0.5446 -1.0599  0.7004
  928TIP3   OH224198   4.688   4.463   2.024  0.1664  0.8475  0.3647
  928TIP3    H124199   4.720   4.408   1.953 -0.3406  0.8030  0.1657
  928TIP3    H224200   4.762   4.471   2.084 -0.0878 -0.9708  0.9713
  929TIP3   OH224201   1.491   1.370  17.005  0.3348  0.4851 -0.5852
  929TIP3    H124202   1.495   1.278  17.032 -0.9170  1.0539  1.8535
  929TIP3    H224203   1.572   1.408  17.037  0.2169  0.5190 -0.3256
  930TIP3   OH224204   5.804   0.769  11.142 -0.3927 -0.5134  0.0615
  930TIP3    H124205   5.808   0.681  11.105  0.0776 -0.1708 -0.7391
  930TIP3    H224206   5.827   0.758  11.235 -2.1054 -1.4566  0.3960
  931TIP3   OH224207   3.451   2.208   0.671 -0.8162 -0.2981  0.2898
  931TIP3    H124208   3.524   2.198   0.610 -0.7853  1.4364  0.0009
  931TIP3    H224209   3.492   2.238   0.752 -1.1766  0.3768  0.2248
  932TIP3   OH224210   0.077   1.246   4.908  0.5375 -0.0483  0.0938
  932TIP3    H124211  -0.002   1.192   4.910  0.6017 -0.1471  1.5272
  932TIP3    H224212   0.068   1.299   4.829 -0.3804 -0.8956 -0.3967
  933TIP3   OH224213   4.505   3.474  14.154 -0.0306 -0.6902  0.5221
  933TIP3    H124214   4.565   3.538  14.190 -1.0426  0.5096  0.1436
  933TIP3    H224215   4.474   3.424  14.229  0.5490 -0.5513  0.8558
  934TIP3   OH224216   0.541   5.946  11.086 -0.4543 -0.1148  0.3685
  934TIP3    H124217   0.556   6.014  11.021 -1.4106 -0.0507  0.2089
  934TIP3    H224218   0.588   5.870  11.053 -1.0254 -0.1143 -0.4478
  935TIP3   OH224219   1.208   3.252   0.612 -0.0831 -0.0816 -0.1766
  935TIP3    H124220   1.272   3.211   0.554  0.6889  0.9875 -0.1118
  935TIP3    H224221   1.252   3.332   0.643 -1.5508  0.8328 -0.3676
  936TIP3   OH224222   6.076   3.259   1.445  0.4387  0.2661 -0.1629
  936TIP3    H124223   6.150   3.210   1.410  0.7761  1.0388 -0.5447
  936TIP3    H224224   6.112   3.345   1.466 -0.1770  0.4002  0.3874
  937TIP3   OH224225   1.304   3.196   1.027  0.4289  0.1560  0.0696
  937TIP3    H124226   1.247   3.264   1.064 -1.3247 -0.2605 -1.7058
  937TIP3    H224227   1.379   3.245   0.994  0.3569  0.9287  0.9851
  938TIP3   OH224228   5.247   2.560  13.263 -0.3808  0.0979  0.0888
  938TIP3    H124229   5.326   2.507  13.258 -1.0038 -0.7529 -1.2271
  938TIP3    H224230   5.270   2.642  13.220 -0.3056 -0.2925 -0.6377
  939TIP3   OH224231   2.516   1.974  13.133 -0.3573 -0.2211  0.3197
  939TIP3    H124232   2.611   1.978  13.142 -0.3999  2.4569  0.2834
  939TIP3    H224233   2.483   2.026  13.207 -1.7174  0.0576 -0.4530
  940TIP3   OH224234   5.494   4.963   3.134  0.9370 -0.1494 -0.6778
  940TIP3    H124235   5.418   5.005   3.093  1.0599  0.8240  0.0567
  940TIP3    H224236   5.511   5.016   3.212  1.4713 -1.2347 -0.0401
  941TIP3   OH224237   0.783   1.317  13.887  0.0205 -0.1894  0.0818
  941TIP3    H124238   0.768   1.406  13.919  1.6420  0.2035 -0.1659
  941TIP3    H224239   0.858   1.285  13.938 -0.7315 -1.5490  0.3883
  942TIP3   OH224240   0.838   2.624  15.582 -0.3753 -0.0088 -0.5220
  942TIP3    H124241   0.916   2.671  15.552  0.7898 -1.4336  0.1405
  942TIP3    H224242   0.766   2.686  15.569  0.8372  1.3076 -1.2629
  943TIP3   OH224243   0.098   2.341  15.790  0.5141  0.0092 -0.0918
  943TIP3    H124244   0.034   2.280  15.754  0.4624  0.0271 -0.0299
  943TIP3    H224245   0.157   2.285  15.841 -0.3501  0.1766  1.1398
  944TIP3   OH224246   0.749   4.506  13.201 -0.4891 -0.0756 -0.9632
  944TIP3    H124247   0.677   4.444  13.188 -1.4415  0.8734 -0.3590
  944TIP3    H224248   0.711   4.578  13.251  1.2337 -0.2683  0.8018
  945TIP3   OH224249   4.148   3.604  13.369  0.4759  0.3123  0.0578
  945TIP3    H124250   4.078   3.566  13.423  0.2591  0.0436 -0.4070
  945TIP3    H224251   4.190   3.528  13.329 -0.0875  0.5534 -1.0452
  946TIP3   OH224252   2.982   6.611   1.981  0.3624 -0.2463  0.4916
  946TIP3    H124253   3.003   6.632   1.890  1.1656 -0.5553  0.5962
  946TIP3    H224254   2.903   6.661   2.000  0.8743  0.7864 -0.0026
  947TIP3   OH224255   4.634   5.374   3.826 -0.4227 -0.7940  0.4603
  947TIP3    H124256   4.666   5.409   3.909 -1.6447  1.8010 -0.0760
  947TIP3    H224257   4.540   5.387   3.829 -0.3679  0.6914 -1.8545
  948TIP3   OH224258   3.101   0.593  17.176 -0.2817 -0.1231 -0.3536
  948TIP3    H124259   3.194   0.578  17.191 -0.7650 -3.5201  0.0203
  948TIP3    H224260   3.091   0.591  17.081  0.0866  1.3104 -0.4573
  949TIP3   OH224261   4.947   1.227   0.537  0.5645 -0.1996  0.5565
  949TIP3    H124262   4.886   1.294   0.568  0.7353 -0.1927  0.8818
  949TIP3    H224263   4.921   1.211   0.447 -0.1942 -0.5044  0.8211
  950TIP3   OH224264   0.873   6.705  14.964  0.4767 -0.3267 -0.5716
  950TIP3    H124265   0.849   6.679  14.874  0.4954 -1.7765 -0.1930
  950TIP3    H224266   0.952   6.757  14.954 -1.3970  2.5774 -1.6630
  951TIP3   OH224267   4.830   1.231  14.385 -0.2697  0.1625  0.1918
  951TIP3    H124268   4.837   1.225  14.290  3.3549  0.4254  0.3016
  951TIP3    H224269   4.816   1.141  14.414  2.5052 -0.5858 -0.5126
  952TIP3   OH224270   3.139   5.767  14.248  0.0304  0.0804 -0.5214
  952TIP3    H124271   3.067   5.758  14.185 -1.0413 -1.4644  0.8151
  952TIP3    H224272   3.163   5.677  14.269 -1.0392  0.3951  2.7166
  953TIP3   OH224273   3.898   1.019   1.924  0.1365  0.4095 -0.2544
  953TIP3    H124274   3.953   0.966   1.868  0.9209  0.2790  0.6278
  953TIP3    H224275   3.811   1.014   1.884  0.6619  0.2654 -1.4053
  954TIP3   OH224276   2.689   6.482  15.297 -0.0329  0.0209 -0.7914
  954TIP3    H124277   2.717   6.501  15.207 -4.5502 -0.4886 -2.5517
  954TIP3    H224278   2.667   6.567  15.334 -1.7498 -0.0312 -1.6159
  955TIP3   OH224279   3.147   2.188   4.691 -0.3649  0.0828 -0.1357
  955TIP3    H124280   3.054   2.174   4.709 -0.3552 -1.1925 -0.9653
  955TIP3    H224281   3.169   2.124   4.623  1.1570  0.2457  0.1525
  956TIP3   OH224282   6.715   6.242   4.168 -0.1352 -0.1099  0.2399
  956TIP3    H124283   6.686   6.160   4.207 -0.0812 -0.7472 -1.0157
  956TIP3    H224284   6.635   6.292   4.154 -0.2178 -0.1645  0.5064
  957TIP3   OH224285   0.618   1.286   0.063 -0.1212  0.1618 -0.0917
  957TIP3    H124286   0.672   1.230   0.119  0.3399  0.1000 -0.5961
  957TIP3    H224287   0.543   1.231   0.041  0.0499 -0.0627 -0.1212
  958TIP3   OH224288   3.423   4.471   3.080  0.5752 -0.3973 -0.1459
  958TIP3    H124289   3.514   4.453   3.102  0.5537 -0.5550 -0.1857
  958TIP3    H224290   3.373   4.425   3.146  0.5329  0.0848  0.1600
  959TIP3   OH224291   5.898   2.440   6.410  0.1204  0.4769  0.2389
  959TIP3    H124292   5.861   2.466   6.325 -1.8490 -1.7353  0.3245
  959TIP3    H224293   5.823   2.410   6.461  1.7270 -2.2374  1.2193
  960TIP3   OH224294   2.503   6.674   0.586 -0.4059  0.8205 -0.3707
  960TIP3    H124295   2.563   6.739   0.623  0.7987  0.5381 -1.7319
  960TIP3    H224296   2.540   6.654   0.499 -1.4938 -0.6892 -0.5240
  961TIP3   OH224297   0.795   4.072   2.180  0.2126 -0.5661  0.6467
  961TIP3    H124298   0.737   4.012   2.134  1.6401 -1.4972  0.0172
  961TIP3    H224299   0.735   4.134   2.223 -1.3268 -2.4737  1.4429
  962TIP3   OH224300   3.663   3.749  16.953 -0.0164  0.2377 -0.6382
  962TIP3    H124301   3.643   3.813  17.021 -0.8878 -1.1326  0.4455
  962TIP3    H224302   3.661   3.799  16.871 -0.8013  1.5629  0.1591
  963TIP3   OH224303   5.389   3.825   2.771 -0.1882  0.0702 -0.1910
  963TIP3    H124304   5.293   3.821   2.775 -0.1123 -0.8989  1.2179
  963TIP3    H224305   5.415   3.852   2.860  0.8585  0.0820 -0.4949
  964TIP3   OH224306   4.964   4.475  15.915  0.1834  0.1941 -0.2518
  964TIP3    H124307   4.944   4.564  15.944  0.4998  0.7329 -1.6011
  964TIP3    H224308   5.059   4.472  15.910  0.1405  0.1472 -1.2632
  965TIP3   OH224309   3.901   6.361  16.187  0.4305  0.1290 -0.6038
  965TIP3    H124310   3.904   6.334  16.278  1.2732  1.6706 -0.1313
  965TIP3    H224311   3.972   6.313  16.145 -0.3317 -1.0325 -0.6063
  966TIP3   OH224312   3.455   6.323  14.252 -0.4362 -0.0523  0.0290
  966TIP3    H124313   3.523   6.256  14.253  0.4231  0.7830 -0.7055
  966TIP3    H224314   3.465   6.369  14.335  0.0162  0.1729 -0.1471
  967TIP3   OH224315   3.611   5.983  16.189  0.5877 -0.7321 -0.3914
  967TIP3    H124316   3.582   5.926  16.260  0.0205 -0.2232 -0.1954
  967TIP3    H224317   3.631   6.066  16.232 -2.4413  0.5149 -1.0884
  968TIP3   OH224318   0.255   6.092   2.870 -0.1970  0.3987 -0.0602
  968TIP3    H124319   0.224   6.024   2.811 -2.1624 -0.4718  1.8461
  968TIP3    H224320   0.273   6.167   2.813 -0.4430 -0.8853 -1.9066
  969TIP3   OH224321   6.207   2.887   6.012  0.1086 -0.1815  0.5648
  969TIP3    H124322   6.167   2.963   6.055 -0.0509  0.0916 -0.0556
  969TIP3    H224323   6.293   2.918   5.982  0.4380 -0.5223  1.1461
  970TIP3   OH224324   5.117   1.362   5.841  0.2364 -0.2656  0.0388
  970TIP3    H124325   5.154   1.383   5.927 -1.4566  0.6217  0.6165
  970TIP3    H224326   5.023   1.380   5.851 -0.7282 -3.9586 -0.7896
  971TIP3   OH224327   5.778   4.172   2.303  0.9462 -0.0775 -0.2586
  971TIP3    H124328   5.754   4.202   2.215  0.6354  1.4403  0.3011
  971TIP3    H224329   5.696   4.138   2.340  0.7523  0.5624 -0.0828
  972TIP3   OH224330   4.155   5.223  13.832 -0.0515 -0.2763 -0.1486
  972TIP3    H124331   4.196   5.310  13.834  0.0463 -0.3426  0.7723
  972TIP3    H224332   4.228   5.162  13.840 -0.2614 -0.4062  0.8556
  973TIP3   OH224333   4.452   0.896   3.392 -0.3909 -0.2400 -0.0293
  973TIP3    H124334   4.457   0.929   3.482  0.1859  1.2397 -0.5638
  973TIP3    H224335   4.362   0.915   3.365 -2.1332 -4.8118  1.6341
  974TIP3   OH224336   6.227   1.425   1.013  0.2301 -0.4772  0.2242
  974TIP3    H124337   6.238   1.463   1.100  2.0642  1.2311 -0.6746
  974TIP3    H224338   6.160   1.358   1.025  0.2907 -0.1851  2.8991
  975TIP3   OH224339   2.556   5.135   0.894  0.1540  0.0432 -0.0906
  975TIP3    H124340   2.619   5.069   0.865  1.1216  1.1144 -0.4879
  975TIP3    H224341   2.582   5.154   0.984  0.5080  0.5944 -0.3040
  976TIP3   OH224342   0.840   4.186  11.936  0.3329  0.1835  0.4336
  976TIP3    H124343   0.786   4.265  11.936 -0.0116 -0.0342  1.3148
  976TIP3    H224344   0.827   4.149  12.024 -0.0393 -1.2115 -0.1885
  977TIP3   OH224345   4.104   5.794  14.409  0.9548  0.0834  0.1903
  977TIP3    H124346   4.176   5.853  14.431  1.3765 -0.6610  0.8671
  977TIP3    H224347   4.027   5.850  14.408  1.3485  0.6587  0.7667
  978TIP3   OH224348   5.982   1.728  12.193  0.3352  0.5088  0.1888
  978TIP3    H124349   5.997   1.801  12.252 -1.2044 -0.5617  2.0199
  978TIP3    H224350   5.898   1.748  12.150  1.4034  1.2475 -1.6731
  979TIP3   OH224351   1.586   5.424  13.742  0.4533 -0.2200 -0.1465
  979TIP3    H124352   1.599   5.340  13.699  0.0688 -1.4834  2.0606
  979TIP3    H224353   1.669   5.442  13.787  0.2328  0.1422  0.1241
  980TIP3   OH224354   4.143   4.314   0.157  0.3591  0.3694 -0.1889
  980TIP3    H124355   4.135   4.219   0.147 -1.8596  0.5252 -0.4027
  980TIP3    H224356   4.236   4.329   0.172  0.6263 -1.9172  0.7953
  981TIP3   OH224357   3.197   3.483  14.866  0.3048  0.0336  0.0634
  981TIP3    H124358   3.279   3.482  14.816  0.5443  0.4094  0.4354
  981TIP3    H224359   3.155   3.399  14.845  0.9039 -0.2724  0.0588
  982TIP3   OH224360   0.909   0.765   0.722  0.0473  0.0603 -0.3491
  982TIP3    H124361   0.983   0.815   0.688  0.4026 -0.2523 -0.0415
  982TIP3    H224362   0.933   0.674   0.706  0.6521 -0.1548  1.5798
  983TIP3   OH224363   5.260   1.569  14.571  0.3453  0.5759 -0.2220
  983TIP3    H124364   5.282   1.492  14.625 -0.1806  1.2296  0.9581
  983TIP3    H224365   5.317   1.638  14.604  0.4499  0.8367 -0.9374
  984TIP3   OH224366   3.809   2.407  10.745  0.3779  0.0734 -0.1399
  984TIP3    H124367   3.825   2.457  10.665 -0.0628  0.2040 -0.1503
  984TIP3    H224368   3.732   2.354  10.725  0.2427  0.1358  0.2096
  985TIP3   OH224369   1.058   4.440  16.649  0.7334 -0.2644  0.4402
  985TIP3    H124370   1.078   4.531  16.673  0.1684 -0.5048  1.9722
  985TIP3    H224371   0.991   4.447  16.581  1.9404  0.4644 -0.7262
  986TIP3   OH224372   4.111   4.965  10.534 -0.0095 -0.1932 -0.2961
  986TIP3    H124373   4.044   4.925  10.589  0.2185  0.2065  0.2793
  986TIP3    H224374   4.092   5.059  10.536  0.6011 -0.0684 -0.0794
  987TIP3   OH224375   3.990   2.765   3.286 -0.1011  0.1378 -0.1321
  987TIP3    H124376   3.992   2.816   3.367  0.8899  0.4428 -0.3336
  987TIP3    H224377   4.046   2.813   3.225 -1.0869  0.0857 -1.1153
  988TIP3   OH224378   5.960   5.603  12.769  0.0947  0.5945  0.8963
  988TIP3    H124379   5.958   5.680  12.713  2.2806  0.5209  0.6259
  988TIP3    H224380   5.924   5.532  12.715  0.4404  0.9022  0.2556
  989TIP3   OH224381   5.243   2.553   5.513  0.3920  0.0978  0.4021
  989TIP3    H124382   5.201   2.467   5.513  0.7186 -0.0665  1.2037
  989TIP3    H224383   5.179   2.612   5.552  0.5435  0.0278  0.7585
  990TIP3   OH224384   6.228   0.154   1.228  0.4663 -0.0165 -0.3211
  990TIP3    H124385   6.237   0.241   1.190 -2.3668 -0.1714 -1.6124
  990TIP3    H224386   6.179   0.167   1.309 -1.0653 -0.4542 -1.1364
  991TIP3   OH224387   4.234   5.699   1.850 -0.0354 -0.5488 -0.2302
  991TIP3    H124388   4.253   5.728   1.761 -1.8325 -1.1284 -0.8465
  991TIP3    H224389   4.300   5.631   1.868  1.8991  1.2448 -0.1306
  992TIP3   OH224390   4.048   1.242   2.051 -0.4270  0.3724 -0.1833
  992TIP3    H124391   4.023   1.215   2.139 -1.2458  1.1234 -0.1739
  992TIP3    H224392   4.028   1.166   1.996 -1.3198  0.4176  0.0643
  993TIP3   OH224393   5.688   2.315   6.519 -0.0490  0.1852  0.5478
  993TIP3    H124394   5.631   2.257   6.468  0.9692 -1.6140  1.3373
  993TIP3    H224395   5.638   2.334   6.598  0.2225 -1.0088  1.0300
  994TIP3   OH224396   3.302   4.787  13.746  0.2637 -0.2739  0.2368
  994TIP3    H124397   3.214   4.816  13.765 -0.6323 -2.2715 -0.5226
  994TIP3    H224398   3.330   4.840  13.671 -1.0846 -0.9364 -0.7769
  995TIP3   OH224399   4.496   2.172   5.785  0.1929 -0.2134  0.0902
  995TIP3    H124400   4.470   2.099   5.841  0.2941  0.4425  1.0140
  995TIP3    H224401   4.413   2.217   5.766 -0.0143 -1.1520 -1.3542
  996TIP3   OH224402   1.280   4.816   2.407 -0.2597 -0.3383 -0.5921
  996TIP3    H124403   1.248   4.905   2.424  0.4133 -0.4809  1.7817
  996TIP3    H224404   1.214   4.759   2.446 -1.0749 -0.9803 -2.7649
  997TIP3   OH224405   5.649   5.855   1.378 -0.5028  0.1472  0.3412
  997TIP3    H124406   5.614   5.768   1.359  0.2496 -0.4185  1.3906
  997TIP3    H224407   5.724   5.838   1.435  1.1369  1.3375 -1.3444
  998TIP3   OH224408   5.632   6.116   2.100  0.4253 -0.6279 -0.2582
  998TIP3    H124409   5.577   6.082   2.030  0.3598 -1.9171  0.4055
  998TIP3    H224410   5.628   6.211   2.088 -0.7719 -0.7558 -1.0944
  999TIP3   OH224411   2.178   1.067   0.842 -0.0083 -0.2874 -0.5636
  999TIP3    H124412   2.117   1.063   0.915  1.1647 -0.9834  0.4250
  999TIP3    H224413   2.123   1.058   0.764 -1.3494  1.0995  0.1743
 1000TIP3   OH224414   5.413   4.505   3.210 -0.1071  0.7013 -0.1890
 1000TIP3    H124415   5.412   4.421   3.256 -0.7629  0.8078 -0.0044
 1000TIP3    H224416   5.375   4.487   3.124 -0.6246  0.8865 -0.0035
 1001TIP3   OH224417   4.050   0.595  13.760  0.5137  0.0091  0.0634
 1001TIP3    H124418   4.089   0.618  13.844  1.9897 -3.5316  0.5436
 1001TIP3    H224419   4.016   0.507  13.774  0.1613 -0.3953 -2.8576
 1002TIP3   OH224420   4.264   5.527  14.795 -0.2267  0.1537  0.2326
 1002TIP3    H124421   4.301   5.586  14.861  0.5939  1.5731 -1.4016
 1002TIP3    H224422   4.340   5.498  14.744 -0.8362 -0.8760 -0.1236
 1003TIP3   OH224423   4.615   4.539  14.124  0.0530  0.4120  0.1987
 1003TIP3    H124424   4.677   4.469  14.140 -2.1513 -2.4382 -2.4746
 1003TIP3    H224425   4.626   4.561  14.031 -0.3330  2.6426  0.6055
 1004TIP3   OH224426   1.438   0.021   1.364  0.0250  0.4027  0.3208
 1004TIP3    H124427   1.358   0.003   1.414 -0.0483 -1.3435 -0.3379
 1004TIP3    H224428   1.436   0.115   1.347 -2.2501  0.2876 -0.2892
 1005TIP3   OH224429   3.418   1.664  16.494  0.1135  0.3591  0.2347
 1005TIP3    H124430   3.424   1.755  16.465 -0.1608  0.2667 -0.1299
 1005TIP3    H224431   3.384   1.669  16.584  0.9516  0.6484  0.5366
 1006TIP3   OH224432   3.084   4.219  14.945  0.3057  0.6466  0.2886
 1006TIP3    H124433   3.172   4.198  14.975  0.8497  1.2969 -0.7844
 1006TIP3    H224434   3.039   4.135  14.942  0.7437  0.3642  1.2790
 1007TIP3   OH224435   2.231   2.015   0.019 -0.0278 -0.1899  0.2442
 1007TIP3    H124436   2.151   1.966   0.039 -0.3753  0.5557  0.7256
 1007TIP3    H224437   2.200   2.099  -0.013  0.5528  0.3360  1.0222
 1008TIP3   OH224438   0.583   1.529   2.503 -0.8727 -0.1211  0.1723
 1008TIP3    H124439   0.554   1.620   2.511  1.5274  1.0316 -2.4033
 1008TIP3    H224440   0.670   1.527   2.543 -0.1311 -0.7434 -1.3672
 1009TIP3   OH224441   2.833   0.756   5.148 -0.4208  0.3837 -0.3114
 1009TIP3    H124442   2.773   0.682   5.159 -0.1070  0.1671 -0.0688
 1009TIP3    H224443   2.779   0.823   5.106 -0.4719 -0.2946 -1.3716
 1010TIP3   OH224444   0.688   1.895   4.238  0.6060  0.4997 -0.2397
 1010TIP3    H124445   0.719   1.945   4.163 -0.6943 -0.8205 -1.7448
 1010TIP3    H224446   0.642   1.958   4.292  1.0187  1.3614 -0.8723
 1011TIP3   OH224447   0.139   3.980  15.469  0.0541  0.5163 -0.2545
 1011TIP3    H124448   0.054   4.025  15.463  0.2600  0.8053 -1.2694
 1011TIP3    H224449   0.201   4.042  15.430  0.8845  0.6600  1.2367
 1012TIP3   OH224450   1.871   5.084  13.100  0.0789 -1.0614 -0.8465
 1012TIP3    H124451   1.779   5.082  13.072 -0.0502  1.8737 -0.9030
 1012TIP3    H224452   1.905   5.166  13.065  1.6162 -0.1419  2.4398
 1013TIP3   OH224453   1.129   5.507  13.908 -0.3001  0.9325  0.2229
 1013TIP3    H124454   1.195   5.451  13.866  0.1793  1.7348 -0.1252
 1013TIP3    H224455   1.108   5.573  13.841 -1.0182  1.0357  0.5448
 1014TIP3   OH224456   5.974   4.133   3.183  0.2811 -0.4721 -0.1054
 1014TIP3    H124457   5.986   4.112   3.091 -0.1330  0.1910 -0.3173
 1014TIP3    H224458   5.947   4.225   3.183 -1.7558 -1.0322  0.5335
 1015TIP3   OH224459   1.354   0.364  16.968 -0.2415 -0.0713  0.4935
 1015TIP3    H124460   1.286   0.355  16.900  0.6731 -0.7814 -0.3570
 1015TIP3    H224461   1.360   0.458  16.983 -0.0545  0.1606 -0.8698
 1016TIP3   OH224462   5.885   3.938  10.707 -0.4850 -0.0178  0.3775
 1016TIP3    H124463   5.870   4.007  10.643  0.8578 -0.7821 -0.8334
 1016TIP3    H224464   5.871   3.980  10.792  1.2751  2.0466 -0.2579
 1017TIP3   OH224465   4.918   4.513  16.580  0.0346  0.2464 -0.3173
 1017TIP3    H124466   4.893   4.521  16.672  1.1891  1.4268 -0.0736
 1017TIP3    H224467   4.844   4.551  16.532 -0.3477  0.1051  0.1573
 1018TIP3   OH224468   4.933   5.632  13.368 -0.0102  0.2043 -0.0547
 1018TIP3    H124469   4.878   5.607  13.294  0.6507  0.5975 -0.6796
 1018TIP3    H224470   5.021   5.605  13.343 -0.2101 -2.8699  2.0096
 1019TIP3   OH224471   3.821   0.282  11.076 -0.4991  0.0560 -0.4048
 1019TIP3    H124472   3.888   0.226  11.036  1.2642  2.8995 -1.7362
 1019TIP3    H224473   3.807   0.352  11.012 -2.9343  0.9293  0.9505
 1020TIP3   OH224474   6.406   2.407  15.300 -0.0715 -0.2525  0.2175
 1020TIP3    H124475   6.333   2.467  15.319 -0.6480 -0.4334 -1.2996
 1020TIP3    H224476   6.364   2.326  15.272  0.7213 -0.9596  1.0085
 1021TIP3   OH224477   3.169   5.785  13.340 -0.2905 -0.2910  0.3689
 1021TIP3    H124478   3.176   5.772  13.435  2.0058 -1.3669  0.1108
 1021TIP3    H224479   3.096   5.729  13.314 -1.4102  0.5351  1.5468
 1022TIP3   OH224480   2.843   3.678  11.250 -0.2613  0.0308 -0.3205
 1022TIP3    H124481   2.857   3.597  11.201 -2.2331 -0.0109 -0.9354
 1022TIP3    H224482   2.888   3.745  11.198  1.3889 -0.6396  0.1960
 1023TIP3   OH224483   1.219   3.297   5.496 -0.9465  0.3159  0.2145
 1023TIP3    H124484   1.223   3.204   5.518  1.2854  0.2232 -0.3240
 1023TIP3    H224485   1.163   3.335   5.563 -0.2157 -1.1045  1.7011
 1024TIP3   OH224486   1.560   4.810   3.118  0.0586 -0.4250 -0.4277
 1024TIP3    H124487   1.472   4.779   3.099 -0.4346 -0.1225  1.1932
 1024TIP3    H224488   1.618   4.744   3.080 -0.8381 -0.4021 -1.8872
 1025TIP3   OH224489   1.152   0.287  16.291 -0.3325  0.0662  0.6620
 1025TIP3    H124490   1.189   0.317  16.208  0.5824 -0.5825  0.8263
 1025TIP3    H224491   1.180   0.353  16.354 -0.8820  0.4666  0.4984
 1026TIP3   OH224492   5.089   0.725   0.225  0.3708 -0.3935  0.3965
 1026TIP3    H124493   5.087   0.821   0.217  0.8655 -0.3061  1.1713
 1026TIP3    H224494   5.167   0.707   0.277  0.9395 -1.3063 -0.7413
 1027TIP3   OH224495   3.126   1.058   4.861  0.0659  0.1769 -0.0113
 1027TIP3    H124496   3.182   1.124   4.903  0.7833 -0.1497 -0.4406
 1027TIP3    H224497   3.039   1.074   4.898  0.1740  1.5120 -0.2686
 1028TIP3   OH224498   2.713   4.913   0.859  0.2231  0.2192 -0.5307
 1028TIP3    H124499   2.756   4.848   0.804 -1.1592 -2.0900  0.9136
 1028TIP3    H224500   2.772   4.924   0.934  2.7090  4.2693 -2.7177
 1029TIP3   OH224501   1.472   6.441  13.733 -0.5163 -0.0145 -0.4265
 1029TIP3    H124502   1.487   6.380  13.806  0.9074  0.6157 -0.1551
 1029TIP3    H224503   1.511   6.523  13.763 -2.6437  1.1636 -0.6624
 1030TIP3   OH224504   5.570   5.288   2.866 -0.8588 -0.4888 -0.0863
 1030TIP3    H124505   5.608   5.276   2.779 -0.0144 -0.3446  0.2528
 1030TIP3    H224506   5.605   5.372   2.896 -0.5049 -0.9111  0.7042
 1031TIP3   OH224507   4.091   4.824  12.338  0.1495 -0.2156  0.0093
 1031TIP3    H124508   4.167   4.877  12.361 -0.2293  0.0657  0.6698
 1031TIP3    H224509   4.036   4.882  12.285  1.2386 -1.0120 -2.1071
 1032TIP3   OH224510   1.982   4.241  13.189  0.3977 -0.4147 -0.1258
 1032TIP3    H124511   2.028   4.259  13.108 -0.1631  1.1604 -0.1209
 1032TIP3    H224512   2.049   4.246  13.257  0.4621  0.6370 -0.2524
 1033TIP3   OH224513   1.076   5.163  12.509  0.7492  0.5898  0.0366
 1033TIP3    H124514   0.998   5.182  12.458 -0.2826 -0.1245  1.2757
 1033TIP3    H224515   1.075   5.226  12.581 -0.0239 -0.8776  1.3905
 1034TIP3   OH224516   6.493   3.148  17.155  0.7099 -0.6207 -0.0768
 1034TIP3    H124517   6.499   3.054  17.171  0.2094 -0.7605 -0.6914
 1034TIP3    H224518   6.526   3.188  17.236  4.0494 -1.2923 -0.9522
 1035TIP3   OH224519   1.121   4.024   0.258 -0.1849 -0.1457 -0.0520
 1035TIP3    H124520   1.207   4.048   0.223 -0.0769  1.1372  1.0276
 1035TIP3    H224521   1.083   3.967   0.191  0.4084  1.3989 -1.7609
 1036TIP3   OH224522   1.949   0.767  11.664 -0.0272 -0.1279  0.3705
 1036TIP3    H124523   1.884   0.815  11.716  0.3238 -1.0544  1.7423
 1036TIP3    H224524   1.981   0.830  11.600  0.7590  1.6334  2.3779
 1037TIP3   OH224525   2.323   6.103   6.583  0.5992  0.9150 -0.6529
 1037TIP3    H124526   2.363   6.017   6.586  2.0496  1.5648 -0.5800
 1037TIP3    H224527   2.277   6.112   6.667 -1.2387 -0.5204 -1.4457
 1038TIP3   OH224528   0.994   5.577   4.596 -0.7053  0.5835  0.3138
 1038TIP3    H124529   1.031   5.519   4.663  0.9746 -0.1639 -1.1545
 1038TIP3    H224530   1.055   5.569   4.522 -3.4109 -0.1282 -2.0344
 1039TIP3   OH224531   4.934   3.559  12.966 -0.1840 -0.2158  0.1961
 1039TIP3    H124532   4.997   3.510  12.913  0.6711 -0.9253  1.8031
 1039TIP3    H224533   4.870   3.494  12.993 -0.5274  0.1079  0.1690
 1040TIP3   OH224534   2.161   4.742   1.431  0.0763 -0.6451  0.1001
 1040TIP3    H124535   2.177   4.742   1.526  0.8423 -0.6907 -0.0173
 1040TIP3    H224536   2.247   4.762   1.393 -0.5667  0.9885 -0.5481
 1041TIP3   OH224537   0.101   0.367  11.936  0.0528  0.8122  0.0147
 1041TIP3    H124538   0.075   0.445  11.886  0.8609  0.9838 -0.1451
 1041TIP3    H224539   0.177   0.333  11.890 -2.5696 -2.4752 -2.3513
 1042TIP3   OH224540   0.028   4.824   4.460  0.2418 -0.1648 -0.0288
 1042TIP3    H124541   0.069   4.868   4.535  2.3578  0.3703 -1.4200
 1042TIP3    H224542   0.055   4.733   4.468 -1.1456 -0.5280  0.8695
 1043TIP3   OH224543   5.544   5.224  15.536 -0.6937  0.7724  1.2364
 1043TIP3    H124544   5.587   5.197  15.618  0.5018  0.3319  0.4865
 1043TIP3    H224545   5.488   5.297  15.562 -0.2718  0.7024  2.4396
 1044TIP3   OH224546   6.662   3.287   2.791  0.5946 -0.3941  0.0763
 1044TIP3    H124547   6.568   3.283   2.808  0.6359  1.8252  1.2734
 1044TIP3    H224548   6.681   3.381   2.783  2.4772 -0.8576 -1.6245
 1045TIP3   OH224549   3.803   5.567   0.124  0.3114  0.2317  0.3527
 1045TIP3    H124550   3.818   5.490   0.069 -2.0014  0.5563 -0.8470
 1045TIP3    H224551   3.746   5.535   0.194  0.4985  0.5634  0.6563
 1046TIP3   OH224552   0.302   2.581  13.816  0.3274 -0.0349  0.0468
 1046TIP3    H124553   0.382   2.542  13.852  0.0619  0.2067  0.9165
 1046TIP3    H224554   0.251   2.606  13.893 -0.3864  0.2265 -0.5047
 1047TIP3   OH224555   0.243   1.785   6.158  0.2610  0.3237  0.9724
 1047TIP3    H124556   0.198   1.761   6.239  0.8346  0.5276  1.3635
 1047TIP3    H224557   0.331   1.809   6.187  0.1271  1.5178  0.4274
 1048TIP3   OH224558   6.698   2.239   1.760 -0.0003  0.3578 -0.3425
 1048TIP3    H124559   6.780   2.276   1.794  0.5193 -0.3557 -0.7831
 1048TIP3    H224560   6.683   2.285   1.677  0.7230 -0.4893 -0.9628
 1049TIP3   OH224561   0.276   2.021  16.786 -0.1206 -0.1818 -0.3392
 1049TIP3    H124562   0.356   1.971  16.768  0.6288  1.2470 -1.0992
 1049TIP3    H224563   0.300   2.083  16.854 -0.0256  1.4682 -1.8024
 1050TIP3   OH224564   5.314   2.620   2.105 -0.2662  0.4337  0.1092
 1050TIP3    H124565   5.390   2.606   2.161 -0.0365 -0.2267 -0.3632
 1050TIP3    H224566   5.307   2.541   2.053 -1.6085  0.2377  0.5313
 1051TIP3   OH224567   4.182   4.404   3.682 -0.4012  0.3122  0.7443
 1051TIP3    H124568   4.106   4.347   3.684 -1.3335  1.4398 -0.6295
 1051TIP3    H224569   4.227   4.383   3.600  1.0120 -0.5918  1.7009
 1052TIP3   OH224570   6.496   4.637   3.663 -0.9484 -0.4781 -0.3488
 1052TIP3    H124571   6.424   4.618   3.723 -0.0611 -2.7235  0.1362
 1052TIP3    H224572   6.498   4.561   3.604  3.1484 -2.4301  1.8989
 1053TIP3   OH224573   5.634   2.639   5.003 -0.5970 -0.1098  0.2075
 1053TIP3    H124574   5.675   2.711   4.956 -0.7928  0.3505  0.7251
 1053TIP3    H224575   5.555   2.619   4.954 -0.0298 -0.6523 -0.5022
 1054TIP3   OH224576   4.162   4.727  17.116  0.2489 -0.3576 -0.7063
 1054TIP3    H124577   4.106   4.796  17.151  1.2820  0.1698 -0.0480
 1054TIP3    H224578   4.128   4.646  17.155  1.7705  0.2657  2.1782
 1055TIP3   OH224579   0.269   5.597  11.460  0.5452 -0.6808  0.4363
 1055TIP3    H124580   0.253   5.604  11.554  2.7240 -1.7340  0.9341
 1055TIP3    H224581   0.193   5.549  11.426 -0.4594  0.0620  1.5586
 1056TIP3   OH224582   6.760   5.836  11.414  0.2918 -0.1571  0.5741
 1056TIP3    H124583   6.691   5.798  11.359 -0.7559  1.3960  0.7408
 1056TIP3    H224584   6.712   5.890  11.477  1.6377  0.2200  1.2989
 1057TIP3   OH224585   4.650   4.203  14.897 -0.0330  0.4863  0.0997
 1057TIP3    H124586   4.727   4.162  14.858 -0.5074  0.5217 -0.9055
 1057TIP3    H224587   4.649   4.291  14.860 -0.0121  0.8306  0.8825
 1058TIP3   OH224588   1.097   0.503  17.078  0.6255 -0.2809  0.4657
 1058TIP3    H124589   1.005   0.528  17.074  0.3852 -1.2627 -0.8546
 1058TIP3    H224590   1.141   0.563  17.017  0.8033 -0.0977  0.7684
 1059TIP3   OH224591   5.688   0.911  14.440  0.4708  0.2051  0.0292
 1059TIP3    H124592   5.673   0.974  14.510  0.3811 -0.1849  0.3661
 1059TIP3    H224593   5.614   0.924  14.380 -1.4111 -1.7878  1.7375
 1060TIP3   OH224594   3.464   4.798   3.532 -0.0623  0.5522  0.2536
 1060TIP3    H124595   3.555   4.795   3.562  0.2002  1.5942 -0.4173
 1060TIP3    H224596   3.468   4.837   3.445 -0.8364 -2.3064 -1.1617
 1061TIP3   OH224597   2.965   0.783  13.747 -0.4014 -0.4585 -0.1056
 1061TIP3    H124598   2.933   0.705  13.793  0.3112  0.7502  2.6433
 1061TIP3    H224599   2.933   0.856  13.799 -0.1398  1.0775 -2.0022
 1062TIP3   OH224600   3.619   1.045   5.407 -0.0711 -0.3437  0.3706
 1062TIP3    H124601   3.540   0.995   5.424 -2.9169  1.9224 -4.0993
 1062TIP3    H224602   3.619   1.114   5.473 -1.9367 -0.3808  0.4598
 1063TIP3   OH224603   6.729   3.731   5.364  0.6326 -0.0192  0.1469
 1063TIP3    H124604   6.637   3.737   5.390  0.5928  1.3395 -0.2010
 1063TIP3    H224605   6.728   3.681   5.282  0.1332  0.4489 -0.1368
 1064TIP3   OH224606   4.874   6.522   0.860 -0.3594 -0.3744 -0.5745
 1064TIP3    H124607   4.941   6.473   0.908  1.4471  2.5851  0.2166
 1064TIP3    H224608   4.852   6.595   0.918  0.3722  2.2018 -3.2994
 1065TIP3   OH224609   1.159   0.282  12.678  0.0711  0.1973  0.2746
 1065TIP3    H124610   1.091   0.304  12.614  0.9930  0.9606 -0.4796
 1065TIP3    H224611   1.174   0.363  12.727  1.5959  0.5613 -0.7091
 1066TIP3   OH224612   2.030   1.143  11.367  0.6971 -0.3902 -0.5199
 1066TIP3    H124613   1.949   1.124  11.320  1.6645 -3.4476 -1.1784
 1066TIP3    H224614   2.006   1.139  11.460 -0.5387  2.3534 -0.6274
 1067TIP3   OH224615   3.447   2.950  12.478 -0.3904  0.2024  0.5997
 1067TIP3    H124616   3.357   2.971  12.453  0.1335  3.2459  0.8856
 1067TIP3    H224617   3.489   2.926  12.396 -1.3628 -1.0264  0.4288
 1068TIP3   OH224618   1.130   3.336  12.993  0.1575  0.4918 -0.2906
 1068TIP3    H124619   1.197   3.397  13.023 -0.2434  0.4478  0.7329
 1068TIP3    H224620   1.158   3.310  12.906 -0.6566  3.6834 -1.6459
 1069TIP3   OH224621   2.631   2.222  16.555  0.0866  0.1023  0.1162
 1069TIP3    H124622   2.719   2.240  16.521 -0.2434  2.9180  0.5188
 1069TIP3    H224623   2.643   2.210  16.649 -0.2126  3.9664  0.7871
 1070TIP3   OH224624   4.935   4.456  16.874 -0.3863  0.0681 -0.3485
 1070TIP3    H124625   4.910   4.488  16.961 -0.0466  2.0362 -0.9300
 1070TIP3    H224626   5.028   4.437  16.881 -0.2948  0.5041 -0.3438
 1071TIP3   OH224627   4.137   2.320  13.939  0.2811  0.2968 -0.2637
 1071TIP3    H124628   4.075   2.268  13.991 -0.6964  1.3389 -0.3354
 1071TIP3    H224629   4.180   2.377  14.002  0.0931  0.6013 -0.4081
 1072TIP3   OH224630   1.851   4.868   3.105  0.1203  0.2152 -0.3696
 1072TIP3    H124631   1.906   4.791   3.119  3.0081  1.8513 -1.8248
 1072TIP3    H224632   1.818   4.858   3.015 -1.7234 -0.5464  0.3492
 1073TIP3   OH224633   0.364   1.002   5.925  0.6058 -0.4635 -0.9718
 1073TIP3    H124634   0.365   0.912   5.892  0.6200 -0.6772 -0.3813
 1073TIP3    H224635   0.455   1.022   5.946  0.7418 -0.0049 -1.9065
 1074TIP3   OH224636   3.335   3.480   5.439  0.4844  0.2626  0.2648
 1074TIP3    H124637   3.339   3.444   5.350  1.2418  0.6612  0.1322
 1074TIP3    H224638   3.383   3.562   5.434  0.5849  0.2604  1.0668
 1075TIP3   OH224639   6.381   0.965  15.852 -0.0576 -0.6219  0.4213
 1075TIP3    H124640   6.398   0.883  15.898  2.9702 -0.8063 -0.7701
 1075TIP3    H224641   6.390   0.943  15.759  1.0937  1.0729  0.0903
 1076TIP3   OH224642   5.673   5.488   3.950  0.1496 -0.4374 -0.1795
 1076TIP3    H124643   5.722   5.434   3.888 -1.2336 -0.5564 -1.1936
 1076TIP3    H224644   5.696   5.578   3.925  1.9698 -0.4769  1.1214
 1077TIP3   OH224645   3.075   0.285  12.263  0.5135  0.4330 -0.3850
 1077TIP3    H124646   2.999   0.236  12.294  0.4393 -1.2355 -2.9301
 1077TIP3    H224647   3.069   0.369  12.308 -1.3535 -0.5900  1.4588
 1078TIP3   OH224648   0.823   6.100   0.825  0.0878 -0.7737 -1.0150
 1078TIP3    H124649   0.888   6.162   0.857 -1.4081  0.9579 -1.2043
 1078TIP3    H224650   0.782   6.065   0.904  0.8284 -1.4321 -0.9123
 1079TIP3   OH224651   5.601   5.384  12.240 -0.2676  0.5376  0.2877
 1079TIP3    H124652   5.565   5.444  12.306 -0.6275  0.7800 -0.1217
 1079TIP3    H224653   5.696   5.387  12.255 -0.4031 -0.1050  1.3703
 1080TIP3   OH224654   4.195   0.509   0.101 -0.1057 -0.1032 -0.4525
 1080TIP3    H124655   4.152   0.480   0.020  1.7587 -1.8635 -0.8844
 1080TIP3    H224656   4.189   0.604   0.098 -1.8565 -0.1931 -1.6356
 1081TIP3   OH224657   0.030   6.764   1.024  0.2054  0.3177 -0.0220
 1081TIP3    H124658   0.013   6.853   1.056  1.3134  0.7918 -0.6927
 1081TIP3    H224659  -0.013   6.762   0.938  0.5382  0.3589 -0.1926
 1082TIP3   OH224660   4.111   4.288  13.680  0.4841  0.2561  0.1133
 1082TIP3    H124661   4.042   4.343  13.718  0.0614 -0.2011  0.0093
 1082TIP3    H224662   4.152   4.246  13.755 -2.1254 -2.8045  0.0428
 1083TIP3   OH224663   6.027   4.124  14.693  0.1682  0.2495 -0.1984
 1083TIP3    H124664   5.943   4.127  14.739 -0.0672  0.7519 -0.6522
 1083TIP3    H224665   6.069   4.045  14.726 -0.3309  0.1851  0.2981
 1084TIP3   OH224666   4.044   6.643   2.821 -0.2097 -0.0814 -0.1261
 1084TIP3    H124667   3.996   6.657   2.739 -0.7979  0.7147  0.3472
 1084TIP3    H224668   4.136   6.659   2.798 -0.4251  0.6347 -0.5126
 1085TIP3   OH224669   6.171   1.093  16.611 -0.0050 -0.0269 -0.0187
 1085TIP3    H124670   6.151   1.183  16.635  1.8866  0.6538 -0.7621
 1085TIP3    H224671   6.168   1.092  16.515  1.6782 -0.2526 -0.1136
 1086TIP3   OH224672   5.570   1.789   1.396  0.2452  0.7900 -0.6314
 1086TIP3    H124673   5.574   1.859   1.462 -0.9346 -1.9082  2.5837
 1086TIP3    H224674   5.494   1.812   1.342  1.1453  2.9927 -1.0711
 1087TIP3   OH224675   1.573   4.484   3.298 -0.0747  0.0659 -0.3181
 1087TIP3    H124676   1.515   4.539   3.350 -1.3833 -2.0478  0.5674
 1087TIP3    H224677   1.644   4.461   3.358 -1.0155 -1.4775  0.2538
 1088TIP3   OH224678   4.750   1.172   2.268 -0.6965 -0.0603  0.3554
 1088TIP3    H124679   4.732   1.123   2.348  0.0802 -0.8090  0.0926
 1088TIP3    H224680   4.676   1.152   2.211 -1.8658  1.4317  1.2904
 1089TIP3   OH224681   2.491   4.677   0.738 -0.0898 -0.3005  0.2033
 1089TIP3    H124682   2.583   4.702   0.738 -0.2707  0.3620  0.3474
 1089TIP3    H224683   2.448   4.741   0.681 -0.7312  0.4265  1.4699
 1090TIP3   OH224684   1.265   6.259   0.357 -0.0458 -0.2547 -0.2882
 1090TIP3    H124685   1.332   6.198   0.325 -1.7824 -0.9469 -2.9579
 1090TIP3    H224686   1.308   6.344   0.356  1.0953 -0.8071 -1.0024
 1091TIP3   OH224687   5.925   5.894  14.618 -0.0950 -0.4112  0.0487
 1091TIP3    H124688   5.887   5.806  14.624 -1.2096  0.1246  1.7460
 1091TIP3    H224689   5.966   5.908  14.703  1.5355  0.1215 -0.7819
 1092TIP3   OH224690   5.868   4.400   3.217  0.1035 -0.4304 -0.3697
 1092TIP3    H124691   5.791   4.394   3.274 -0.4642  0.7364 -0.9731
 1092TIP3    H224692   5.836   4.443   3.138  1.3605  0.0403 -0.6465
 1093TIP3   OH224693   3.320   3.006   1.776 -0.4292  0.3954 -0.2688
 1093TIP3    H124694   3.306   2.925   1.728 -2.2026  0.4224  0.1219
 1093TIP3    H224695   3.232   3.040   1.793  0.1190  0.8025  2.2819
 1094TIP3   OH224696   5.008   5.524   6.510 -0.1355  0.0103 -0.4569
 1094TIP3    H124697   5.020   5.430   6.496 -0.9944 -0.2375  0.3492
 1094TIP3    H224698   4.921   5.531   6.549  0.5189  0.9981  0.8984
 1095TIP3   OH224699   2.416   3.904   5.682 -0.5328 -0.7267 -0.8624
 1095TIP3    H124700   2.343   3.949   5.639 -1.0645 -1.8960 -1.2312
 1095TIP3    H224701   2.494   3.938   5.639 -0.8813  0.2024 -0.7828
 1096TIP3   OH224702   3.888   5.858  15.343 -0.0859 -0.0291 -0.2248
 1096TIP3    H124703   3.858   5.937  15.389 -2.1049 -0.3229 -0.9413
 1096TIP3    H224704   3.945   5.814  15.406 -0.9405  0.7511  1.1435
 1097TIP3   OH224705   4.397   4.701   3.151 -0.0110  0.4034 -0.0170
 1097TIP3    H124706   4.429   4.722   3.063  0.2204  0.4388  0.0747
 1097TIP3    H224707   4.343   4.776   3.176 -1.3587 -0.2939 -0.7503
 1098TIP3   OH224708   6.563   2.376   0.979  0.4865  0.1998  0.2664
 1098TIP3    H124709   6.597   2.460   0.950 -0.1984  0.8203  1.1836
 1098TIP3    H224710   6.474   2.372   0.943  0.4063  0.0130  0.4810
 1099TIP3   OH224711   2.434   1.740   6.409 -0.1732 -0.3760  0.0356
 1099TIP3    H124712   2.366   1.719   6.344 -1.7792 -0.2608  1.6182
 1099TIP3    H224713   2.395   1.808   6.463  2.3795  1.8814 -0.8051
 1100TIP3   OH224714   0.492   3.595   1.103  0.6899  0.6760  0.9097
 1100TIP3    H124715   0.412   3.543   1.088  1.4665 -0.6143  1.1029
 1100TIP3    H224716   0.561   3.546   1.058  1.6423  0.9674  2.0094
 1101TIP3   OH224717   6.014   2.307  11.324  0.1893 -0.1381 -0.2506
 1101TIP3    H124718   6.089   2.328  11.268 -1.2213 -0.3740 -2.3004
 1101TIP3    H224719   6.016   2.211  11.331  0.2543 -0.1213  0.0061
 1102TIP3   OH224720   4.432   2.114   4.720 -0.0392  0.5792 -0.3990
 1102TIP3    H124721   4.474   2.198   4.703  0.2467  0.8004  1.2765
 1102TIP3    H224722   4.479   2.077   4.794 -0.6025 -0.7546 -0.6723
 1103TIP3   OH224723   5.716   5.302  13.779  0.2644  0.2417  0.3677
 1103TIP3    H124724   5.638   5.357  13.767  2.0289  2.7622 -0.5710
 1103TIP3    H224725   5.727   5.295  13.873 -0.4324  0.8939  0.5041
 1104TIP3   OH224726   2.334   5.739   5.412  0.2906  0.0222 -0.3503
 1104TIP3    H124727   2.396   5.800   5.372  0.7211  0.2061  0.5850
 1104TIP3    H224728   2.269   5.794   5.455 -0.9256 -0.1587 -1.8770
 1105TIP3   OH224729   0.733   0.821   0.941  0.0843  0.2594 -0.1849
 1105TIP3    H124730   0.744   0.916   0.942  0.3943  0.2254 -0.3394
 1105TIP3    H224731   0.768   0.794   0.857 -1.5933  0.1898 -0.9117
 1106TIP3   OH224732   4.729   0.051   1.597 -0.5595 -0.1359 -0.1761
 1106TIP3    H124733   4.726  -0.015   1.666 -0.5775  0.4678  0.4162
 1106TIP3    H224734   4.756   0.131   1.642  5.0554 -0.7570 -1.6557
 1107TIP3   OH224735   1.638   5.032   2.231 -0.3802  0.1825  0.4277
 1107TIP3    H124736   1.734   5.031   2.228 -0.3452  1.8114 -0.2353
 1107TIP3    H224737   1.613   4.940   2.232  1.1112 -0.4616 -3.3213
 1108TIP3   OH224738   4.095   4.405  16.574  0.4939 -0.0907  0.0230
 1108TIP3    H124739   4.128   4.494  16.580 -1.7433  0.9022 -1.0637
 1108TIP3    H224740   4.141   4.357  16.643  1.1839  2.0782  1.1502
 1109TIP3   OH224741   0.445   3.128   2.957  0.5955  0.6823 -0.1341
 1109TIP3    H124742   0.433   3.130   3.052 -1.1002 -0.8831 -0.2616
 1109TIP3    H224743   0.372   3.074   2.925  1.2423  1.0203 -2.3086
 1110TIP3   OH224744   6.095   6.530   5.685  0.1397  0.4588 -0.6299
 1110TIP3    H124745   6.169   6.533   5.624 -0.7003  2.1598 -1.6399
 1110TIP3    H224746   6.070   6.621   5.697 -1.4106 -0.0380  0.1752
 1111TIP3   OH224747   5.433   4.921  12.328  0.3455  0.3264 -0.2236
 1111TIP3    H124748   5.462   4.833  12.304  0.4568  0.4563 -0.5599
 1111TIP3    H224749   5.403   4.960  12.246 -1.3861 -0.0339  0.1892
 1112TIP3   OH224750   1.566   4.129  15.570  0.1311  0.2617  0.4661
 1112TIP3    H124751   1.655   4.099  15.553 -0.2873  0.0126 -1.6191
 1112TIP3    H224752   1.566   4.222  15.543 -0.0470  0.4782  1.2009
 1113TIP3   OH224753   4.083   0.298   0.522  0.3199 -0.5124 -0.1096
 1113TIP3    H124754   4.092   0.391   0.542 -2.2611 -0.0614 -0.6057
 1113TIP3    H224755   3.989   0.282   0.529  0.5108 -2.7020 -1.6257
 1114TIP3   OH224756   3.390   2.480   4.135 -0.2681  0.1393 -0.4018
 1114TIP3    H124757   3.428   2.406   4.088  0.5349  1.2198 -1.5236
 1114TIP3    H224758   3.377   2.448   4.224  1.0727 -1.0249 -0.5873
 1115TIP3   OH224759   1.304   0.685   0.770 -0.1888 -0.7463  0.0352
 1115TIP3    H124760   1.257   0.723   0.844 -0.9615  1.2216 -1.3974
 1115TIP3    H224761   1.376   0.745   0.754  0.2724 -1.4255 -0.5104
 1116TIP3   OH224762   6.275   2.190   5.824 -0.2819 -0.2821 -0.1477
 1116TIP3    H124763   6.244   2.204   5.913  0.4707 -0.5272  0.1588
 1116TIP3    H224764   6.228   2.113   5.794 -1.2765  0.3753 -0.3267
 1117TIP3   OH224765   5.318   2.084   1.038  0.0145 -0.3984  0.2917
 1117TIP3    H124766   5.275   2.162   1.002  1.0159  0.2070  0.3531
 1117TIP3    H224767   5.302   2.090   1.132  0.1621 -0.2213  0.3058
 1118TIP3   OH224768   2.408   5.697  17.208 -0.1183  0.1688  0.0523
 1118TIP3    H124769   2.495   5.668  17.179  0.4455  1.1441  0.7005
 1118TIP3    H224770   2.357   5.703  17.127 -0.0154 -1.7127 -0.1926
 1119TIP3   OH224771   6.727   6.676  11.772 -0.4188 -0.1931  0.1541
 1119TIP3    H124772   6.713   6.764  11.807 -0.8975 -0.4482  0.6075
 1119TIP3    H224773   6.684   6.677  11.687 -1.3665 -0.3140  0.6217
 1120TIP3   OH224774   3.933   4.285  16.865  0.5597  0.0396  0.4108
 1120TIP3    H124775   3.854   4.268  16.814 -0.2346 -2.2344  2.2168
 1120TIP3    H224776   3.935   4.380  16.876 -2.2763  0.1315  0.8070
 1121TIP3   OH224777   2.362   5.386  11.331 -0.3166 -0.0732 -0.7891
 1121TIP3    H124778   2.449   5.425  11.320 -0.9851  2.1925  1.0594
 1121TIP3    H224779   2.378   5.292  11.336  2.1493  0.3322  0.3217
 1122TIP3   OH224780   5.859   6.086  14.995 -0.1770 -0.2424 -0.0800
 1122TIP3    H124781   5.858   6.051  15.085  0.6421  2.6698  1.1878
 1122TIP3    H224782   5.773   6.126  14.984  0.5526  1.5887  0.4474
 1123TIP3   OH224783   1.585   1.042   1.748 -0.1006  0.2988  0.4114
 1123TIP3    H124784   1.529   1.115   1.722 -1.3394 -0.6343  0.4068
 1123TIP3    H224785   1.543   1.006   1.826  0.6718 -0.2201  0.5979
 1124TIP3   OH224786   3.317   4.596  16.727 -0.5258 -0.0662  0.1411
 1124TIP3    H124787   3.271   4.594  16.642  0.3948 -1.7391 -0.3658
 1124TIP3    H224788   3.277   4.670  16.774 -2.2695 -0.1677 -1.0713
 1125TIP3   OH224789   6.217   2.433  15.678 -0.2525 -0.7271  0.3167
 1125TIP3    H124790   6.219   2.529  15.677 -0.0151 -0.7269  0.6399
 1125TIP3    H224791   6.151   2.410  15.613  1.6230 -0.4015 -1.8261
 1126TIP3   OH224792   5.481   0.432  11.602 -0.7320  0.0740  0.2342
 1126TIP3    H124793   5.393   0.444  11.569 -0.7862 -1.2670 -0.1738
 1126TIP3    H224794   5.504   0.516  11.643 -1.5304  0.9908 -1.1575
 1127TIP3   OH224795   5.181   5.881   5.847  0.1330 -0.5303  0.6282
 1127TIP3    H124796   5.143   5.876   5.935  0.0047 -1.4861  0.5212
 1127TIP3    H224797   5.132   5.817   5.795  1.9449 -1.8811  0.4978
 1128TIP3   OH224798   4.233   5.851   3.894  0.2126  0.4056 -0.3275
 1128TIP3    H124799   4.267   5.825   3.808  1.7228  2.2650 -0.3507
 1128TIP3    H224800   4.184   5.931   3.877  0.0890  0.5064  0.4755
 1129TIP3   OH224801   0.497   3.560   2.261  0.1123 -0.3495  0.3466
 1129TIP3    H124802   0.523   3.579   2.351 -1.3299  2.4603  0.2794
 1129TIP3    H224803   0.529   3.471   2.245 -0.0561 -1.1819  3.7948
 1130TIP3   OH224804   2.505   5.365  14.051 -0.1084  0.0490 -0.2069
 1130TIP3    H124805   2.474   5.446  14.092  1.1767  1.0302 -1.1231
 1130TIP3    H224806   2.573   5.333  14.110 -0.1713 -0.0273 -0.1755
 1131TIP3   OH224807   2.475   0.412  17.215  0.0118  0.0938 -0.4066
 1131TIP3    H124808   2.485   0.423  17.120 -0.1321 -3.1383 -0.9290
 1131TIP3    H224809   2.556   0.448  17.252  0.4635  0.6329 -1.8449
 1132TIP3   OH224810   4.871   5.670  10.566 -0.1247  0.3306 -0.5688
 1132TIP3    H124811   4.838   5.606  10.503 -1.7644  0.7785 -0.2338
 1132TIP3    H224812   4.818   5.748  10.550  0.9591  1.1824 -0.1149
 1133TIP3   OH224813   1.595   4.315   4.399  0.1451 -0.2547 -0.1967
 1133TIP3    H124814   1.660   4.385   4.402 -0.5497  0.3803  0.4185
 1133TIP3    H224815   1.640   4.242   4.357  0.9452  0.4935 -0.6649
 1134TIP3   OH224816   6.757   4.342  11.973 -0.7651  0.0450  0.4752
 1134TIP3    H124817   6.693   4.271  11.963 -0.9686  0.2280  0.4731
 1134TIP3    H224818   6.791   4.331  12.062  0.2469 -0.9193 -0.0258
 1135TIP3   OH224819   2.723   2.862  13.498 -0.3746  0.4063 -0.5897
 1135TIP3    H124820   2.643   2.915  13.494 -0.5240  0.3879  1.3046
 1135TIP3    H224821   2.786   2.918  13.543 -0.2149 -0.6065  0.4965
 1136TIP3   OH224822   0.903   4.756   1.716 -0.0896 -0.6937  0.1410
 1136TIP3    H124823   0.966   4.823   1.742 -1.5840  1.1333 -0.7070
 1136TIP3    H224824   0.902   4.694   1.789 -1.0815  2.0077  2.6041
 1137TIP3   OH224825   3.288   5.737  14.573  0.5730  0.1560 -0.3620
 1137TIP3    H124826   3.254   5.755  14.661 -0.4388  0.8703 -0.8736
 1137TIP3    H224827   3.295   5.823  14.532  0.5439 -0.2092 -1.1569
 1138TIP3   OH224828   5.278   5.838  16.454 -0.1360 -0.7042  0.1799
 1138TIP3    H124829   5.274   5.754  16.410  1.1748  0.0807 -1.5589
 1138TIP3    H224830   5.220   5.895  16.403  2.1128  0.4628 -1.2726
 1139TIP3   OH224831   2.576   0.588   4.714  0.4076  0.0030  0.0561
 1139TIP3    H124832   2.495   0.624   4.750  1.7239  2.5700  0.7668
 1139TIP3    H224833   2.634   0.664   4.707  2.4182 -1.5609 -1.3823
 1140TIP3   OH224834   2.372   2.656   0.692 -0.1463  0.3064 -0.2536
 1140TIP3    H124835   2.333   2.743   0.683 -0.1865  0.2216 -0.8953
 1140TIP3    H224836   2.306   2.596   0.656 -0.2065 -0.0164  0.3703
 1141TIP3   OH224837   3.521   5.876   3.988  0.0626  0.5246 -1.0322
 1141TIP3    H124838   3.535   5.892   3.895 -0.9099  1.1275 -1.0874
 1141TIP3    H224839   3.470   5.795   3.991 -1.2347  1.3078 -1.1231
 1142TIP3   OH224840   3.554   3.333   3.871  0.0254  0.1990 -0.2069
 1142TIP3    H124841   3.510   3.417   3.882 -1.1617  0.1271 -3.4328
 1142TIP3    H224842   3.646   3.351   3.892 -0.0140  2.5826 -1.7633
 1143TIP3   OH224843   4.484   3.804  13.258 -0.0712  0.1341  0.0845
 1143TIP3    H124844   4.539   3.818  13.336  2.9449  2.2474 -2.1475
 1143TIP3    H224845   4.531   3.737  13.208 -2.6841 -2.2121  0.5071
 1144TIP3   OH224846   6.041   4.874   2.256 -0.1250 -0.6828 -0.5703
 1144TIP3    H124847   6.059   4.812   2.187 -2.2556 -1.0306 -0.8772
 1144TIP3    H224848   5.960   4.844   2.296 -1.1357  1.7487 -0.5868
 1145TIP3   OH224849   0.305   6.781  12.703  0.5051  0.6672 -0.6757
 1145TIP3    H124850   0.392   6.809  12.674  0.6511  1.6756  0.6166
 1145TIP3    H224851   0.317   6.690  12.732  1.1203  0.7772 -0.5711
 1146TIP3   OH224852   3.522   4.299   3.269 -0.3162 -0.0713 -0.1941
 1146TIP3    H124853   3.601   4.264   3.227 -1.1789 -1.7234 -0.5225
 1146TIP3    H224854   3.542   4.296   3.363  0.0403 -0.4006 -0.2757
 1147TIP3   OH224855   3.417   6.430  15.838  0.1724  0.6229  0.5781
 1147TIP3    H124856   3.368   6.379  15.774 -2.1246 -0.1257  2.7481
 1147TIP3    H224857   3.398   6.521  15.816 -1.9182  0.3613  1.0247
 1148TIP3   OH224858   2.147   4.912  14.344 -0.2197  0.1171 -0.0148
 1148TIP3    H124859   2.121   4.820  14.343 -0.5254  0.1452  1.7262
 1148TIP3    H224860   2.195   4.924  14.262  1.5970 -2.1325  0.5967
 1149TIP3   OH224861   3.091   1.251  15.083  0.1143  0.5179  0.1097
 1149TIP3    H124862   3.087   1.330  15.137 -0.0141 -0.1546  1.1080
 1149TIP3    H224863   3.141   1.188  15.136  1.7680  0.4773 -1.3906
 1150TIP3   OH224864   6.682   0.967   1.954 -0.9985 -0.0769 -0.2501
 1150TIP3    H124865   6.754   0.969   1.890 -1.7738  1.5784 -1.1126
 1150TIP3    H224866   6.719   0.918   2.028  1.1798  1.0719 -0.4792
 1151TIP3   OH224867   2.076   2.115   5.884 -0.5602 -0.3926  0.2426
 1151TIP3    H124868   2.009   2.170   5.842  0.4890 -0.8379 -2.1587
 1151TIP3    H224869   2.036   2.029   5.891 -0.0073 -0.8904 -2.0372
 1152TIP3   OH224870   4.214   1.836   0.529 -0.2531 -0.1488  0.0410
 1152TIP3    H124871   4.154   1.765   0.506 -3.1810  1.7762  1.1645
 1152TIP3    H224872   4.267   1.849   0.451 -1.2090 -2.0411 -0.9832
 1153TIP3   OH224873   1.201   0.875   0.262  0.3324  0.3212 -0.4542
 1153TIP3    H124874   1.117   0.903   0.225 -0.0373 -0.5600 -0.2953
 1153TIP3    H224875   1.245   0.957   0.285 -1.3522  0.7761  1.4399
 1154TIP3   OH224876   6.180   2.114  14.842 -0.0684  0.2015 -0.2393
 1154TIP3    H124877   6.172   2.021  14.864 -0.9221  0.2803 -0.1820
 1154TIP3    H224878   6.272   2.126  14.822 -0.1153 -0.8703 -1.1944
 1155TIP3   OH224879   0.027   3.590  11.871  0.8073  0.0069  0.1806
 1155TIP3    H124880  -0.063   3.562  11.884  1.0044 -0.5608  0.3372
 1155TIP3    H224881   0.078   3.509  11.873  1.1588  0.1445 -1.4663
 1156TIP3   OH224882   4.693   6.218  10.489  0.1894  0.0040 -0.5322
 1156TIP3    H124883   4.604   6.193  10.515  0.5607  0.6668  1.5538
 1156TIP3    H224884   4.693   6.314  10.495  0.5739  0.1402 -2.2504
 1157TIP3   OH224885   1.638   0.406  15.499 -0.0749  0.4357  0.9796
 1157TIP3    H124886   1.658   0.446  15.583 -0.4265  0.3883  1.0885
 1157TIP3    H224887   1.716   0.422  15.445 -0.2122  1.2590  1.0172
 1158TIP3   OH224888   4.783   4.044   2.387  0.0389 -0.0233 -0.3166
 1158TIP3    H124889   4.705   4.013   2.432  0.6885  0.0237  0.8876
 1158TIP3    H224890   4.838   4.080   2.457  1.8578 -1.5467 -0.8708
 1159TIP3   OH224891   4.134   0.677  14.954 -0.1995 -0.0577  0.6136
 1159TIP3    H124892   4.082   0.754  14.978  0.5334  0.8129 -0.4955
 1159TIP3    H224893   4.117   0.615  15.025  0.2947  1.6245  2.3101
 1160TIP3   OH224894   0.586   3.453   5.760  0.1397 -0.5751  0.4745
 1160TIP3    H124895   0.636   3.430   5.682 -0.3585 -2.1429  0.5918
 1160TIP3    H224896   0.509   3.396   5.757 -1.7208  1.7537  0.2889
 1161TIP3   OH224897   2.455   2.124  12.039  0.6377  0.3038  0.0235
 1161TIP3    H124898   2.480   2.216  12.035  0.7005  0.4405  2.2078
 1161TIP3    H224899   2.463   2.101  12.132 -2.9161 -0.8945  0.1795
 1162TIP3   OH224900   1.167   0.822  13.374 -0.2308 -0.6208  0.2584
 1162TIP3    H124901   1.182   0.916  13.390 -0.5623 -0.7397  1.3661
 1162TIP3    H224902   1.251   0.781  13.396  0.6606 -0.4038 -2.3827
 1163TIP3   OH224903   0.220   0.600  11.259  0.0028 -0.6166 -0.3192
 1163TIP3    H124904   0.240   0.650  11.179  0.5150  0.0459  0.2093
 1163TIP3    H224905   0.289   0.626  11.320 -0.7598 -0.6270  0.5522
 1164TIP3   OH224906   2.031   0.252   3.588 -0.1189 -0.2180 -0.4219
 1164TIP3    H124907   1.941   0.230   3.564 -0.1947 -1.2099  0.6853
 1164TIP3    H224908   2.075   0.168   3.599  1.1293  0.2629 -1.5380
 1165TIP3   OH224909   0.692   0.441   3.814 -0.0812 -0.2070 -0.5823
 1165TIP3    H124910   0.597   0.456   3.814 -0.0411  0.7680 -3.6922
 1165TIP3    H224911   0.730   0.527   3.831  0.1966 -0.1299 -1.5077
 1166TIP3   OH224912   1.181   3.419  12.069  0.0688  0.4950 -0.5205
 1166TIP3    H124913   1.210   3.345  12.123 -0.8401  0.0618 -0.5955
 1166TIP3    H224914   1.246   3.425  11.999  0.2838 -0.0888 -0.3824
 1167TIP3   OH224915   0.298   3.275  15.439  0.7107 -0.2159 -0.3425
 1167TIP3    H124916   0.214   3.251  15.478  0.5846  1.0117  0.1805
 1167TIP3    H224917   0.297   3.233  15.353  0.4292 -1.8794  0.4340
 1168TIP3   OH224918   1.723   1.221   3.618 -0.6814 -0.7172 -0.4275
 1168TIP3    H124919   1.784   1.242   3.547 -0.2390 -0.1825  0.0996
 1168TIP3    H224920   1.642   1.266   3.593 -0.6227 -0.7868 -0.7490
 1169TIP3   OH224921   2.857   3.551  14.209  0.1002 -0.4907  0.0875
 1169TIP3    H124922   2.813   3.555  14.295  0.8233 -0.4387  0.4614
 1169TIP3    H224923   2.933   3.608  14.218  0.1807 -0.4812 -0.5986
 1170TIP3   OH224924   3.302   1.570  17.007 -0.6353 -0.3726 -0.7023
 1170TIP3    H124925   3.296   1.591  17.100 -1.2303 -1.6347 -0.4302
 1170TIP3    H224926   3.264   1.646  16.963 -0.3656  0.2281  0.0809
 1171TIP3   OH224927   3.878   1.097  13.777 -0.2077  0.5753 -0.3243
 1171TIP3    H124928   3.796   1.121  13.733 -0.8597  1.2102  1.1564
 1171TIP3    H224929   3.914   1.181  13.807  1.0261  0.3056 -1.0115
 1172TIP3   OH224930   2.645   1.848  14.244 -0.1762  0.0904 -0.4281
 1172TIP3    H124931   2.592   1.858  14.164  1.1544 -1.5170 -1.5652
 1172TIP3    H224932   2.734   1.866  14.216  0.2335  0.2280  0.9054
 1173TIP3   OH224933   1.644   0.414   5.684 -0.2957 -0.0783 -0.2634
 1173TIP3    H124934   1.627   0.359   5.761  1.2586 -1.5643 -0.9321
 1173TIP3    H224935   1.607   0.366   5.611 -1.3241  1.1000 -0.5567
 1174TIP3   OH224936   2.096   5.177   2.707 -0.0243  0.6458 -0.0486
 1174TIP3    H124937   2.165   5.163   2.641  1.5591 -1.0825  1.8170
 1174TIP3    H224938   2.082   5.090   2.745 -1.3053  1.4673  1.4678
 1175TIP3   OH224939   3.610   4.183  15.116  0.2886 -0.3897 -0.2997
 1175TIP3    H124940   3.637   4.144  15.199 -1.3312 -0.6560  0.1496
 1175TIP3    H224941   3.678   4.247  15.096  1.4987 -1.3856  0.4348
 1176TIP3   OH224942   3.243   3.561   3.885  0.5934  0.3754  0.1985
 1176TIP3    H124943   3.252   3.604   3.801 -0.0220 -1.5518 -0.9152
 1176TIP3    H224944   3.323   3.583   3.933  0.7295  1.8775 -0.6831
 1177TIP3   OH224945   2.744   2.758  15.501  0.1628  0.1214  0.9250
 1177TIP3    H124946   2.754   2.847  15.533 -1.9754  0.8631 -0.2709
 1177TIP3    H224947   2.801   2.753  15.424  0.0614  0.5354  0.8252
 1178TIP3   OH224948   6.317   1.780   2.199  0.2323  0.2236  0.1694
 1178TIP3    H124949   6.259   1.738   2.135 -0.6205  0.5478  0.7064
 1178TIP3    H224950   6.362   1.849   2.149  0.6482 -0.4532 -0.4019
 1179TIP3   OH224951   4.872   3.663  15.737  0.2543 -0.3730 -0.1250
 1179TIP3    H124952   4.869   3.714  15.656  0.0223  0.6906  0.5351
 1179TIP3    H224953   4.803   3.596  15.726  0.1835 -0.2007 -0.7722
 1180TIP3   OH224954   1.903   6.292  15.725 -0.8737 -0.2248  0.0264
 1180TIP3    H124955   1.954   6.351  15.669 -1.0990 -0.4061 -0.3755
 1180TIP3    H224956   1.889   6.214  15.671 -0.6647 -0.6077  0.5176
 1181TIP3   OH224957   1.629   0.296  11.250  0.2224  0.4196 -0.3150
 1181TIP3    H124958   1.626   0.205  11.280 -0.4475  0.2594 -0.8362
 1181TIP3    H224959   1.667   0.344  11.324  1.3153 -0.3873 -0.3272
 1182TIP3   OH224960   1.109   1.496  10.320 -0.3561 -0.2838 -0.1428
 1182TIP3    H124961   1.116   1.524  10.412  0.0502 -1.9426  0.3584
 1182TIP3    H224962   1.029   1.538  10.289 -0.4854  0.3370  0.9576
 1183TIP3   OH224963   6.369   5.268   2.220  0.2883  0.1539 -0.7457
 1183TIP3    H124964   6.285   5.307   2.197  0.7436  0.5834 -1.6949
 1183TIP3    H224965   6.354   5.174   2.212  0.0342  0.2439 -1.3881
 1184TIP3   OH224966   5.543   0.669  15.723  0.1869  0.0740  0.0952
 1184TIP3    H124967   5.599   0.599  15.689  0.6747  0.9795 -1.0661
 1184TIP3    H224968   5.559   0.742  15.664 -2.8794  0.1257 -0.8286
 1185TIP3   OH224969   1.238   3.671   1.221 -0.1562 -0.0627 -0.4167
 1185TIP3    H124970   1.321   3.717   1.238 -0.9295  1.1872  0.1441
 1185TIP3    H224971   1.188   3.680   1.302 -0.4702 -1.6832 -0.3921
 1186TIP3   OH224972   0.573   4.185  15.082  0.3749  0.5993 -0.6614
 1186TIP3    H124973   0.512   4.253  15.111  0.7346  0.2626  0.9961
 1186TIP3    H224974   0.532   4.103  15.111  0.6429  0.2185 -1.3517
 1187TIP3   OH224975   0.186   5.356   0.877  0.0280  0.0164 -0.0802
 1187TIP3    H124976   0.109   5.333   0.929 -1.0844 -0.5656 -1.8900
 1187TIP3    H224977   0.164   5.440   0.836 -0.9760 -1.4696 -2.8899
 1188TIP3   OH224978   5.682   0.071  16.940  0.0609 -0.0467 -0.1571
 1188TIP3    H124979   5.711   0.010  16.871  0.9656  0.1778  0.0158
 1188TIP3    H224980   5.728   0.042  17.019 -0.2652  0.2586  0.1475
 1189TIP3   OH224981   5.949   1.065   5.334 -0.0776  0.2242  0.5371
 1189TIP3    H124982   6.013   1.107   5.277 -2.3841  1.5221 -1.2543
 1189TIP3    H224983   5.879   1.129   5.343 -1.9637 -1.7629  0.9210
 1190TIP3   OH224984   5.923   3.205   3.680 -0.0109  0.0534  0.0078
 1190TIP3    H124985   5.995   3.196   3.617 -0.6431  1.5802 -1.0040
 1190TIP3    H224986   5.952   3.275   3.739  0.3062 -0.9378  1.0610
 1191TIP3   OH224987   1.159   4.532   4.523 -0.3460 -0.0073 -0.3020
 1191TIP3    H124988   1.183   4.568   4.608 -0.9883 -0.5300  0.1060
 1191TIP3    H224989   1.227   4.468   4.504 -0.0814  0.2668 -0.2850
 1192TIP3   OH224990   5.292   2.986   6.685  0.1003 -0.1473 -0.0148
 1192TIP3    H124991   5.292   3.082   6.685 -1.3702 -0.1065 -1.3024
 1192TIP3    H224992   5.384   2.963   6.675  0.2645  1.2533 -3.1413
 1193TIP3   OH224993   5.616   2.966  14.660  0.4625 -0.0588 -0.2340
 1193TIP3    H124994   5.705   2.968  14.695  0.5209  0.7379 -0.3913
 1193TIP3    H224995   5.562   2.934  14.732  0.9254 -0.9140 -0.2593
 1194TIP3   OH224996   5.090   3.980  12.870 -0.0372  0.1011 -0.2031
 1194TIP3    H124997   5.121   3.983  12.961  1.6531 -0.2499 -0.7299
 1194TIP3    H224998   5.033   4.056  12.862  0.8902  0.9388  0.7874
 1195TIP3   OH224999   2.749   4.277   1.077 -0.0431  0.5011  0.0484
 1195TIP3    H125000   2.698   4.282   1.158 -0.0555  0.4489  0.0445
 1195TIP3    H225001   2.731   4.188   1.044 -0.3740  0.6688 -0.2304
 1196TIP3   OH225002   3.965   2.423   3.291  0.0286  0.2124 -0.0386
 1196TIP3    H125003   4.037   2.485   3.281  1.4324 -1.2840  0.3952
 1196TIP3    H225004   3.887   2.478   3.295  0.9872  1.8285 -1.7069
 1197TIP3   OH225005   3.396   5.261  13.642  0.0310  0.3288 -0.3405
 1197TIP3    H125006   3.423   5.232  13.729 -0.3283 -0.1735 -0.3933
 1197TIP3    H225007   3.399   5.357  13.647 -1.3134  0.3487  0.6588
 1198TIP3   OH225008   4.209   0.172   4.869 -0.5034 -0.8652 -0.3816
 1198TIP3    H125009   4.175   0.162   4.958 -0.8626  1.1580 -0.2265
 1198TIP3    H225010   4.283   0.233   4.879 -0.6790 -0.4532 -1.4718
 1199TIP3   OH225011   5.195   2.990  17.144 -0.2014 -0.0866 -0.0513
 1199TIP3    H125012   5.105   2.998  17.176 -0.5443 -2.5628 -0.2218
 1199TIP3    H225013   5.206   3.066  17.087 -2.2920  0.1423 -0.2574
 1200TIP3   OH225014   6.296   2.847  17.082  1.0551 -0.0341 -0.2669
 1200TIP3    H125015   6.299   2.823  16.989  1.2099  2.2105 -0.9055
 1200TIP3    H225016   6.387   2.843  17.111  1.0880 -0.1364 -0.3835
 1201TIP3   OH225017   4.171   3.596   6.909  0.0534  0.0121 -0.4960
 1201TIP3    H125018   4.249   3.650   6.916 -0.0353  0.1628 -0.6737
 1201TIP3    H225019   4.168   3.568   6.818 -0.9265  1.2688 -0.8723
 1202TIP3   OH225020   5.118   5.223  15.856 -0.3155 -0.2794  0.6991
 1202TIP3    H125021   5.161   5.279  15.921  0.6754 -0.2956  0.0682
 1202TIP3    H225022   5.162   5.138  15.865 -0.4544 -0.3972  0.2779
 1203TIP3   OH225023   3.000   2.461   5.448  0.3414  0.5876 -0.2106
 1203TIP3    H125024   3.019   2.386   5.392  1.2131  2.0545 -1.9841
 1203TIP3    H225025   3.048   2.534   5.408 -1.0213  2.2558  1.0255
 1204TIP3   OH225026   6.561   2.364   3.587 -0.1814  0.6987  0.2800
 1204TIP3    H125027   6.484   2.344   3.640 -0.1035  1.3421  0.6538
 1204TIP3    H225028   6.632   2.316   3.628  0.4443  3.2413  2.4624
 1205TIP3   OH225029   2.547   3.222   3.730  0.1690  0.6147  0.1960
 1205TIP3    H125030   2.595   3.227   3.648 -1.8759  2.2617 -0.9895
 1205TIP3    H225031   2.478   3.158   3.714 -0.5472  1.3084  0.4466
 1206TIP3   OH225032   3.294   0.893   6.252 -0.0434  0.0599 -0.3673
 1206TIP3    H125033   3.254   0.904   6.165  0.2391 -0.9341 -0.6457
 1206TIP3    H225034   3.315   0.981   6.281  3.4303  0.2954 -3.0083
 1207TIP3   OH225035   2.695   2.657  16.337 -0.3062  0.0168  0.3395
 1207TIP3    H125036   2.740   2.729  16.380  1.6203 -0.1071 -1.3480
 1207TIP3    H225037   2.641   2.618  16.406  0.3336  1.6496  1.8387
 1208TIP3   OH225038   3.338   5.982  14.148 -0.2597  0.0626  0.0254
 1208TIP3    H125039   3.303   5.917  14.210  0.8130  0.1335  0.7329
 1208TIP3    H225040   3.276   6.055  14.152 -1.6880 -1.0325 -1.0520
 1209TIP3   OH225041   3.374   1.060   2.290  0.7250  0.4434  0.5928
 1209TIP3    H125042   3.372   0.964   2.285 -0.6816  0.5044 -0.3742
 1209TIP3    H225043   3.403   1.088   2.203  1.0175  0.9199  0.8357
 1210TIP3   OH225044   0.927   1.513  16.578  0.4202 -0.1562  0.5559
 1210TIP3    H125045   0.968   1.446  16.632  0.6676 -0.6465 -0.2259
 1210TIP3    H225046   0.998   1.550  16.526 -0.0838 -0.9407 -0.7355
 1211TIP3   OH225047   4.533   0.733   4.524  0.7954  0.1977  0.3228
 1211TIP3    H125048   4.473   0.754   4.595  2.7771  0.7436  1.9152
 1211TIP3    H225049   4.509   0.793   4.453 -0.9974 -0.1382  0.5919
 1212TIP3   OH225050   2.883   2.847   3.324 -0.1487 -0.2075  0.3988
 1212TIP3    H125051   2.857   2.797   3.401  0.2300 -0.0400  0.6346
 1212TIP3    H225052   2.829   2.811   3.253 -1.0490  0.1484  0.8900
 1213TIP3   OH225053   1.895   6.471   0.023 -0.4328 -0.9146 -0.2096
 1213TIP3    H125054   1.859   6.545   0.072 -0.8694 -0.3690 -1.3336
 1213TIP3    H225055   1.887   6.496  -0.069  0.2065 -1.9984 -0.5824
 1214TIP3   OH225056   4.200   1.565  14.489  0.1362  0.0815 -0.3520
 1214TIP3    H125057   4.281   1.591  14.532  1.3445  0.8880 -2.8952
 1214TIP3    H225058   4.223   1.486  14.440 -0.3846  0.6484 -1.5781
 1215TIP3   OH225059   3.886   6.680   2.116  0.1585  0.3415 -0.0391
 1215TIP3    H125060   3.825   6.607   2.107 -1.2313  1.5551 -0.8840
 1215TIP3    H225061   3.868   6.715   2.203  1.5128 -0.8709  0.7703
 1216TIP3   OH225062   6.666   1.612  13.138  0.0850  0.1942 -0.1616
 1216TIP3    H125063   6.639   1.564  13.059 -0.7165  1.2656 -0.5596
 1216TIP3    H225064   6.655   1.704  13.115  2.5412  0.6606  0.2441
 1217TIP3   OH225065   5.125   6.068   1.723 -0.5258 -0.2624  0.6003
 1217TIP3    H125066   5.152   5.976   1.716 -0.1783 -0.0353 -1.9290
 1217TIP3    H225067   5.030   6.065   1.719 -0.4754 -0.4561 -1.3308
 1218TIP3   OH225068   4.683   2.548   4.330  0.1052  0.4598 -0.1014
 1218TIP3    H125069   4.742   2.474   4.334  0.1801  0.5744  1.8788
 1218TIP3    H225070   4.734   2.618   4.289  0.9997  0.2387  0.6081
 1219TIP3   OH225071   4.263   4.951   4.984 -0.4120 -0.8709 -0.2742
 1219TIP3    H125072   4.341   4.897   4.972  0.6201  0.3170  0.8075
 1219TIP3    H225073   4.229   4.925   5.070 -1.0699 -1.2076 -0.6342
 1220TIP3   OH225074   0.953   1.939  14.846 -0.0335  0.2814 -0.0936
 1220TIP3    H125075   0.883   1.949  14.910 -1.2569 -0.7845 -1.2170
 1220TIP3    H225076   0.923   1.870  14.788  0.9323  1.3502 -1.9626
 1221TIP3   OH225077   2.235   4.150  11.390  0.6213  0.7600  0.2139
 1221TIP3    H125078   2.165   4.103  11.344 -0.3349  0.6087  1.7314
 1221TIP3    H225079   2.218   4.242  11.372  1.1307  0.6549 -0.8932
 1222TIP3   OH225080   3.604   1.423   3.464  0.0811  0.0024 -0.2727
 1222TIP3    H125081   3.561   1.428   3.379  1.1842 -1.9608 -0.9931
 1222TIP3    H225082   3.662   1.347   3.458  0.1013 -0.2731  2.2797
 1223TIP3   OH225083   6.668   4.125  11.058  0.0538 -0.0892  0.0742
 1223TIP3    H125084   6.581   4.165  11.059  0.7379  1.4476  0.9054
 1223TIP3    H225085   6.678   4.092  10.969 -1.3653 -0.2752 -0.0347
 1224TIP3   OH225086   1.398   6.215   1.295  0.6369 -0.1748  0.4569
 1224TIP3    H125087   1.390   6.241   1.387  0.2887  2.2877 -0.2000
 1224TIP3    H225088   1.480   6.255   1.266  0.5580 -0.6264 -0.4212
 1225TIP3   OH225089   3.624   3.609   3.415  0.5898 -0.2305  0.3002
 1225TIP3    H125090   3.701   3.586   3.466 -0.3173 -1.7841  1.0709
 1225TIP3    H225091   3.550   3.592   3.475 -0.3588  1.4521 -0.3112
 1226TIP3   OH225092   2.871   6.356   0.217  0.5382  0.7378  0.3355
 1226TIP3    H125093   2.896   6.447   0.224  3.4760  0.0694 -0.3830
 1226TIP3    H225094   2.867   6.325   0.307 -0.0864  1.4537  0.5624
 1227TIP3   OH225095   0.587   4.327   5.287  0.5622  0.7779 -0.3708
 1227TIP3    H125096   0.680   4.349   5.280  0.5960  0.4486 -1.0683
 1227TIP3    H225097   0.583   4.262   5.357  0.4910  2.7158  1.5226
 1228TIP3   OH225098   0.559   0.117  16.300 -0.1945 -0.3583  1.3088
 1228TIP3    H125099   0.496   0.189  16.304 -0.2375 -0.2472 -0.6086
 1228TIP3    H225100   0.574   0.094  16.392 -1.5826  0.8601  1.8904
 1229TIP3   OH225101   6.084   2.692   2.130 -0.5444  0.3995 -0.1035
 1229TIP3    H125102   6.048   2.616   2.084  0.3063  0.2957 -0.6223
 1229TIP3    H225103   6.136   2.738   2.064 -1.4227  1.7004  0.0824
 1230TIP3   OH225104   5.761   5.381  14.747  0.1644  0.5104 -0.0689
 1230TIP3    H125105   5.803   5.314  14.693 -1.0851  0.3234 -0.8668
 1230TIP3    H225106   5.788   5.361  14.836 -1.0302 -1.7527 -0.1478
 1231TIP3   OH225107   4.892   2.082   4.776  0.2258  0.1344  0.1902
 1231TIP3    H125108   4.864   2.064   4.686 -1.4048  0.3760  0.6144
 1231TIP3    H225109   4.849   2.016   4.829  0.2206  0.7068  0.9237
 1232TIP3   OH225110   2.732   4.166  11.226 -0.4344 -0.1819 -0.2558
 1232TIP3    H125111   2.804   4.150  11.287  0.1184 -0.4503 -0.9664
 1232TIP3    H225112   2.654   4.134  11.271  0.1831 -1.8451 -0.3127
 1233TIP3   OH225113   5.312   5.898  14.816 -0.4935 -0.6923 -0.4012
 1233TIP3    H125114   5.328   5.971  14.875  1.7713 -1.7918  0.4643
 1233TIP3    H225115   5.355   5.924  14.734 -1.3379 -0.2877 -0.7281
 1234TIP3   OH225116   0.482   1.905   0.339  0.0335  0.2778  0.5237
 1234TIP3    H125117   0.563   1.921   0.389  1.7454 -1.9007 -1.3332
 1234TIP3    H225118   0.512   1.868   0.256 -2.9400 -1.5723  0.1369
 1235TIP3   OH225119   6.411   0.268  14.786 -0.5364 -0.4114  0.3503
 1235TIP3    H125120   6.407   0.257  14.691 -1.5333 -3.1625  0.6253
 1235TIP3    H225121   6.498   0.304  14.803 -0.1930 -0.2849 -1.5513
 1236TIP3   OH225122   3.053   4.557  13.580  0.7108  0.1133 -0.3264
 1236TIP3    H125123   3.117   4.543  13.650  0.7700  1.4301 -0.1026
 1236TIP3    H225124   2.976   4.591  13.624 -0.1703 -1.4375 -0.6008
 1237TIP3   OH225125   6.499   3.549   3.658 -0.3483 -0.3541 -0.8707
 1237TIP3    H125126   6.481   3.494   3.733  2.9494 -0.7150 -0.1875
 1237TIP3    H225127   6.495   3.639   3.692  2.7564 -0.5449  0.3266
 1238TIP3   OH225128   0.199   1.685  11.527  0.1972 -0.0524  0.2500
 1238TIP3    H125129   0.269   1.680  11.462 -1.0992  2.4338 -1.5015
 1238TIP3    H225130   0.171   1.777  11.526 -1.7731 -0.5216  2.3226
 1239TIP3   OH225131   3.900   5.961   0.776  0.1326 -0.6743 -0.2204
 1239TIP3    H125132   3.837   5.907   0.823 -0.4849 -0.1339 -0.4081
 1239TIP3    H225133   3.858   5.979   0.692  1.6945 -2.6299 -1.5324
 1240TIP3   OH225134   1.889   0.938   5.586  0.0026 -0.4051  0.0847
 1240TIP3    H125135   1.938   0.955   5.667 -0.0649 -1.9220  0.4757
 1240TIP3    H225136   1.837   0.860   5.606 -0.8972 -0.1120 -1.0553
 1241TIP3   OH225137   0.458   1.674  12.762 -0.0349 -0.1418  0.0472
 1241TIP3    H125138   0.427   1.708  12.846 -0.1150 -0.2179  0.0483
 1241TIP3    H225139   0.397   1.605  12.740 -0.0676 -0.0610 -0.1180
 1242TIP3   OH225140   3.004   3.884   3.428  0.2558  0.3616  0.0006
 1242TIP3    H125141   3.097   3.872   3.444 -0.2623  0.0303  3.6470
 1242TIP3    H225142   2.989   3.978   3.439  0.2695  0.6112 -1.7883
 1243TIP3   OH225143   5.269   6.566   4.942 -0.0374 -0.1040  0.2494
 1243TIP3    H125144   5.231   6.595   4.859  1.4191 -0.1364 -0.4610
 1243TIP3    H225145   5.217   6.490   4.967 -0.2745 -0.3102 -0.8245
 1244TIP3   OH225146   3.437   4.904  15.239 -0.1422 -0.2418 -0.3178
 1244TIP3    H125147   3.476   4.909  15.151 -1.1247 -0.0689 -0.7564
 1244TIP3    H225148   3.442   4.811  15.261 -0.9672 -0.4779 -1.0696
 1245TIP3   OH225149   6.019   5.886   2.255 -0.9026 -0.0086 -0.3220
 1245TIP3    H125150   5.994   5.963   2.204 -1.2732 -0.1590 -0.3697
 1245TIP3    H225151   6.067   5.921   2.330 -1.1041  0.2708 -0.3217
 1246TIP3   OH225152   3.674   1.823   1.266 -0.2871 -0.0941 -0.2660
 1246TIP3    H125153   3.720   1.741   1.249 -1.2747 -0.9348  0.9322
 1246TIP3    H225154   3.651   1.819   1.359 -3.9475 -0.3619 -1.0459
 1247TIP3   OH225155   6.348   0.253  15.117 -0.0546  0.3997 -0.4148
 1247TIP3    H125156   6.434   0.286  15.090  1.0078 -2.2618 -0.5077
 1247TIP3    H225157   6.307   0.223  15.035 -0.5751  0.4937 -0.1943
 1248TIP3   OH225158   1.729   3.707  12.173  0.5261  0.4806 -0.1213
 1248TIP3    H125159   1.761   3.689  12.262  2.8230  0.9397 -0.8050
 1248TIP3    H225160   1.642   3.743  12.187 -0.2009 -1.7087  1.8107
 1249TIP3   OH225161   1.884   4.981   5.980 -0.5746  0.1137  0.1735
 1249TIP3    H125162   1.934   5.062   5.991  1.3729 -1.0442  0.3473
 1249TIP3    H225163   1.804   4.995   6.031  0.7775  1.0715  2.1796
 1250TIP3   OH225164   5.139   1.122  13.754  0.2902  0.0438 -0.5336
 1250TIP3    H125165   5.154   1.039  13.710 -0.8004 -0.2913 -0.3041
 1250TIP3    H225166   5.137   1.099  13.847 -0.8248  0.1840 -0.5133
 1251TIP3   OH225167   5.712   3.945   3.634  0.4854  0.1160  0.0765
 1251TIP3    H125168   5.788   3.905   3.676  0.9280 -0.6867 -1.4068
 1251TIP3    H225169   5.720   4.039   3.654  2.0846  0.1050 -0.3522
 1252TIP3   OH225170   3.042   3.638  13.112  0.3547 -0.3378  0.1374
 1252TIP3    H125171   3.064   3.588  13.191  1.0838  0.3477  0.3744
 1252TIP3    H225172   3.019   3.571  13.047 -0.5517 -0.9043  1.0013
 1253TIP3   OH225173   0.473   4.114  13.547  0.2918 -0.7118 -0.1199
 1253TIP3    H125174   0.414   4.189  13.552 -0.8768 -1.5749 -0.4194
 1253TIP3    H225175   0.468   4.087  13.455 -2.0364 -3.2297  0.6330
 1254TIP3   OH225176   1.919   5.960  13.066 -0.1692 -0.9919  0.3239
 1254TIP3    H125177   1.926   5.991  13.156 -1.1283  0.9309 -0.2099
 1254TIP3    H225178   1.981   6.014  13.017  0.6838 -2.3303 -0.1439
 1255TIP3   OH225179   5.705   3.823   0.427 -0.0609  0.6358 -0.1650
 1255TIP3    H125180   5.631   3.824   0.366  1.0905  0.7497 -1.6054
 1255TIP3    H225181   5.722   3.730   0.443 -0.5970  0.6099  0.3051
 1256TIP3   OH225182   0.776   0.151   3.704  0.3801 -0.9246  0.3541
 1256TIP3    H125183   0.757   0.066   3.744 -0.8887 -0.6818  0.3094
 1256TIP3    H225184   0.728   0.214   3.757  0.6986 -0.3214 -0.0654
 1257TIP3   OH225185   3.301   1.327  13.666  0.0558 -0.0038  1.1278
 1257TIP3    H125186   3.252   1.405  13.639 -0.5434 -0.0708  1.9844
 1257TIP3    H225187   3.303   1.332  13.761  0.8498 -0.5402  1.1442
 1258TIP3   OH225188   5.524   1.370  16.430 -0.6389  0.4049 -0.0828
 1258TIP3    H125189   5.572   1.365  16.347  1.3768  2.9857  0.7778
 1258TIP3    H225190   5.553   1.293  16.479  0.2678  0.2906 -0.7645
 1259TIP3   OH225191   4.121   4.709  13.828  0.6227 -0.1219  0.4164
 1259TIP3    H125192   4.092   4.780  13.886  0.5286  0.9848 -0.9318
 1259TIP3    H225193   4.213   4.697  13.849  0.8170  0.8818  0.2199
 1260TIP3   OH225194   0.608   2.537  12.607  0.4550 -0.1245 -0.2546
 1260TIP3    H125195   0.688   2.543  12.659  0.1187  1.1188  0.1606
 1260TIP3    H225196   0.586   2.628  12.586 -1.0929 -0.4021  0.0293
 1261TIP3   OH225197   0.551   5.914  14.631  0.0913  0.8513 -0.3846
 1261TIP3    H125198   0.463   5.941  14.605 -0.1171 -0.9505 -1.8294
 1261TIP3    H225199   0.606   5.933  14.554  0.5830  0.3275 -0.1749
 1262TIP3   OH225200   4.983   6.052   2.106 -0.6041  0.3968  0.1117
 1262TIP3    H125201   4.965   6.046   2.012  0.2650  1.4603 -0.1382
 1262TIP3    H225202   4.919   6.114   2.139 -0.7856  0.1687  0.1894
 1263TIP3   OH225203   4.481   5.313  17.177 -0.3643  0.4896 -0.0213
 1263TIP3    H125204   4.486   5.401  17.140  0.2408  0.4374 -0.0764
 1263TIP3    H225205   4.509   5.323  17.268  3.2936 -0.1494 -0.8915
 1264TIP3   OH225206   4.040   2.054  11.861 -0.7964 -0.0568  0.3848
 1264TIP3    H125207   4.002   2.079  11.776 -1.1564  1.2917  0.9240
 1264TIP3    H225208   4.032   1.959  11.863 -0.9002 -0.1057 -1.0437
 1265TIP3   OH225209   1.886   0.778   1.105 -0.3242 -0.5799 -0.6586
 1265TIP3    H125210   1.929   0.861   1.086 -1.7057  0.5550  0.9380
 1265TIP3    H225211   1.806   0.779   1.053 -1.9057  0.5743  1.6031
 1266TIP3   OH225212   1.879   5.542  14.168  0.7983  0.1780 -0.5559
 1266TIP3    H125213   1.843   5.517  14.253  0.8061 -2.0619 -1.1637
 1266TIP3    H225214   1.808   5.591  14.126 -0.1892 -0.9424 -0.2500
 1267TIP3   OH225215   6.209   5.999  14.727 -0.0051  0.1090  0.4366
 1267TIP3    H125216   6.244   6.073  14.776  0.1390 -0.5768  1.3920
 1267TIP3    H225217   6.216   6.026  14.635 -0.8255  1.6607  0.7931
 1268TIP3   OH225218   3.847   2.446  14.736 -0.0477  0.2940  0.0164
 1268TIP3    H125219   3.837   2.437  14.830 -0.1113 -1.3696 -0.1336
 1268TIP3    H225220   3.810   2.366  14.699  2.1417 -0.2240 -1.2669
 1269TIP3   OH225221   5.568   0.268   5.994  0.3520  0.5176 -0.1018
 1269TIP3    H125222   5.539   0.211   5.923 -1.1403  1.4515 -0.2905
 1269TIP3    H225223   5.490   0.317   6.019  1.3086  1.6487  0.8242
 1270TIP3   OH225224   3.243   0.672   2.993 -0.2838 -0.0826  0.5819
 1270TIP3    H125225   3.175   0.717   3.043 -0.5393  1.2352 -0.8698
 1270TIP3    H225226   3.312   0.655   3.058 -1.0734  0.5169  1.6192
 1271TIP3   OH225227   0.476   6.643  17.123 -0.2974 -0.0586 -0.3889
 1271TIP3    H125228   0.407   6.582  17.147  0.5719 -0.8692  0.1290
 1271TIP3    H225229   0.552   6.587  17.105  0.7938  0.8990  1.0213
 1272TIP3   OH225230   1.347   2.055   5.723  0.6582  0.0154  0.9408
 1272TIP3    H125231   1.418   2.016   5.671 -0.3145 -1.2244  0.5001
 1272TIP3    H225232   1.271   1.998   5.707 -0.1440  0.6499  2.3017
 1273TIP3   OH225233   2.144   3.173   1.201 -0.6686 -0.7966 -0.2449
 1273TIP3    H125234   2.149   3.217   1.286 -1.8146  1.0092 -1.0224
 1273TIP3    H225235   2.194   3.230   1.142 -1.2626 -1.1301 -1.0862
 1274TIP3   OH225236   3.069   4.193  13.222  0.1921 -0.4410  0.0751
 1274TIP3    H125237   3.062   4.098  13.211  0.6252 -0.3180 -1.4708
 1274TIP3    H225238   2.988   4.227  13.183  0.7899 -0.0967 -0.8987
 1275TIP3   OH225239   3.048   2.775  14.946  0.5045 -1.0545 -0.0588
 1275TIP3    H125240   3.101   2.820  14.881 -0.7152  0.8205  0.1743
 1275TIP3    H225241   2.989   2.720  14.894 -1.8665  1.9386 -0.8367
 1276TIP3   OH225242   0.380   4.227   2.617 -0.3878 -0.1858  0.5574
 1276TIP3    H125243   0.391   4.319   2.593  0.6877 -0.5676 -0.4871
 1276TIP3    H225244   0.468   4.190   2.613 -1.1200 -1.9284 -1.9290
 1277TIP3   OH225245   6.100   0.814  13.532 -0.3645  0.3483  0.5275
 1277TIP3    H125246   6.126   0.826  13.441 -1.6844  0.5933  0.1594
 1277TIP3    H225247   6.148   0.736  13.560 -1.0450 -0.6233 -0.8457
 1278TIP3   OH225248   5.713   1.992   3.356  0.3782  0.0399  0.8004
 1278TIP3    H125249   5.681   1.960   3.272 -0.5643  1.1101  0.7329
 1278TIP3    H225250   5.805   2.014   3.341  0.4298 -0.5174  0.2722
 1279TIP3   OH225251   0.238   1.930   2.129 -0.0337 -0.2087 -0.0220
 1279TIP3    H125252   0.215   2.018   2.099 -0.8953 -0.5502 -0.4034
 1279TIP3    H225253   0.257   1.941   2.222 -0.3075  0.3579 -0.0229
 1280TIP3   OH225254   0.433   3.584   3.915  0.0680  0.2549 -0.5661
 1280TIP3    H125255   0.339   3.604   3.906  0.3141  1.9739  0.2928
 1280TIP3    H225256   0.476   3.669   3.907  1.3377 -0.1056  1.8250
 1281TIP3   OH225257   3.178   2.995  11.234 -0.0272  0.3370 -0.0121
 1281TIP3    H125258   3.222   2.943  11.168  0.3108 -0.7273  1.0120
 1281TIP3    H225259   3.237   2.993  11.310 -1.7144 -1.0112  1.3497
 1282TIP3   OH225260   2.949   0.344   1.062  0.3326 -0.0212  0.3503
 1282TIP3    H125261   2.856   0.343   1.041  0.1873 -0.5145  1.0076
 1282TIP3    H225262   2.976   0.434   1.046 -0.4918  0.3819  1.1768
 1283TIP3   OH225263   2.178   4.190  15.020  0.4572 -0.0062 -0.7053
 1283TIP3    H125264   2.197   4.100  15.048 -0.4053 -0.2016 -0.7030
 1283TIP3    H225265   2.201   4.192  14.928 -1.2824 -0.8118 -1.2094
 1284TIP3   OH225266   2.104   4.392  13.715  0.2554 -0.0688 -0.0192
 1284TIP3    H125267   2.073   4.406  13.804  2.4826  4.3399  0.2970
 1284TIP3    H225268   2.028   4.408  13.660 -0.5994 -0.6434  0.9464
 1285TIP3   OH225269   4.997   3.037   3.001 -0.0386  0.2244  0.6358
 1285TIP3    H125270   5.078   3.088   3.013 -0.8582  1.2581  2.0637
 1285TIP3    H225271   4.933   3.080   3.057 -1.5550 -0.6985 -0.3137
 1286TIP3   OH225272   2.914   3.572  12.724  0.1931  0.0246  0.1317
 1286TIP3    H125273   2.883   3.659  12.750  1.4913  0.5282  0.0735
 1286TIP3    H225274   2.966   3.542  12.799 -1.0380 -1.1536  0.5626
 1287TIP3   OH225275   4.042   2.001   0.650 -0.4092  0.0278  0.2322
 1287TIP3    H125276   4.047   2.052   0.569 -0.5596  0.2599  0.3673
 1287TIP3    H225277   4.110   1.935   0.641 -1.1261 -0.6307 -0.5489
 1288TIP3   OH225278   6.169   0.470   3.260 -0.2981  0.4067 -0.1188
 1288TIP3    H125279   6.148   0.386   3.300 -0.3888 -0.0063 -1.0264
 1288TIP3    H225280   6.228   0.450   3.188  2.1119  1.4206  1.4479
 1289TIP3   OH225281   4.509   6.331   1.685 -0.3252 -0.8751  0.2832
 1289TIP3    H125282   4.487   6.404   1.742 -0.1891 -0.8481  0.3003
 1289TIP3    H225283   4.475   6.356   1.599  0.8906 -0.2065 -0.0132
 1290TIP3   OH225284   4.897   0.246  15.022 -0.0887 -0.1394  0.5837
 1290TIP3    H125285   4.907   0.162  14.977 -0.6800 -0.9312  1.8804
 1290TIP3    H225286   4.972   0.298  14.992 -0.2747 -0.7411 -1.0247
 1291TIP3   OH225287   6.367   6.747   0.458  0.1799 -0.1349  0.4019
 1291TIP3    H125288   6.327   6.719   0.375 -2.0269  0.8290  1.0801
 1291TIP3    H225289   6.419   6.672   0.486  0.7766 -0.5803 -1.6975
 1292TIP3   OH225290   4.689   3.233  14.345 -0.4531  0.4015  0.1558
 1292TIP3    H125291   4.679   3.164  14.410  1.4764  0.5079  0.6375
 1292TIP3    H225292   4.600   3.258  14.322 -1.2556 -2.5356 -0.3587
 1293TIP3   OH225293   4.420   0.557  16.243  0.1800 -0.1826  0.6388
 1293TIP3    H125294   4.500   0.586  16.198 -1.1713  2.2148 -0.3860
 1293TIP3    H225295   4.452   0.500  16.313  2.6457 -0.8580 -0.8851
 1294TIP3   OH225296   2.521   3.302  16.964  0.0353  0.0932  0.1446
 1294TIP3    H125297   2.477   3.300  16.879  1.7870 -1.0353 -0.7885
 1294TIP3    H225298   2.550   3.392  16.974 -0.9582  0.4474  0.0052
 1295TIP3   OH225299   6.064   5.793  11.139 -0.0670  0.4622 -0.3335
 1295TIP3    H125300   6.136   5.760  11.085  0.7198  0.5574  0.6196
 1295TIP3    H225301   6.074   5.889  11.135  1.2987  0.4544  1.6165
 1296TIP3   OH225302   4.033   0.935  12.471  0.3308  0.2886  0.4299
 1296TIP3    H125303   3.969   0.891  12.527  0.3974  1.2068  1.2621
 1296TIP3    H225304   3.982   0.997  12.419  0.4932  0.8700  0.9423
 1297TIP3   OH225305   3.806   0.355   4.569 -0.2744 -0.4289 -0.0430
 1297TIP3    H125306   3.830   0.447   4.571 -0.6640 -0.2749 -1.4365
 1297TIP3    H225307   3.735   0.347   4.633  1.0053 -0.1605  1.4479
 1298TIP3   OH225308   4.038   3.194  13.152  0.1217  0.3906  0.3933
 1298TIP3    H125309   4.029   3.102  13.124 -0.2582  0.9798 -1.5477
 1298TIP3    H225310   3.962   3.208  13.209 -2.6501  0.7270 -3.0328
 1299TIP3   OH225311   2.430   3.923   5.046  0.0764 -0.2245  0.1595
 1299TIP3    H125312   2.376   3.872   5.106  0.2943  1.1597  1.6028
 1299TIP3    H225313   2.367   3.964   4.986 -0.4598  0.7363  1.3283
 1300TIP3   OH225314   2.339   5.587  11.618 -0.4463 -0.7812  1.0131
 1300TIP3    H125315   2.380   5.607  11.534 -0.6591  0.2304  1.1281
 1300TIP3    H225316   2.388   5.639  11.682 -0.7081 -1.0250  1.4201
 1301TIP3   OH225317   6.137   5.944  12.855 -0.1213 -0.1896 -0.3841
 1301TIP3    H125318   6.232   5.948  12.857 -0.0651 -0.7894  2.7194
 1301TIP3    H225319   6.108   6.021  12.904 -1.2774  0.0732 -1.4107
 1302TIP3   OH225320   6.156   5.962   5.173  0.5177  0.4955 -0.4548
 1302TIP3    H125321   6.106   5.925   5.101  0.0631  1.2396 -0.5367
 1302TIP3    H225322   6.160   5.893   5.239 -0.6204  0.4311 -0.4436
 1303TIP3   OH225323   6.376   5.475  10.931  0.2834 -0.0661  0.1446
 1303TIP3    H125324   6.449   5.435  10.979  0.2097  1.3285  1.4720
 1303TIP3    H225325   6.324   5.400  10.901  0.7298 -1.0113  1.6052
 1304TIP3   OH225326   0.346   6.137  13.075  0.1629 -0.2574  0.1325
 1304TIP3    H125327   0.393   6.067  13.120  0.0691 -0.4839 -0.1189
 1304TIP3    H225328   0.396   6.217  13.096  0.8171 -0.5293 -0.3428
 1305TIP3   OH225329   4.446   2.340   2.969  1.0463  0.6712 -0.5941
 1305TIP3    H125330   4.468   2.365   3.059  1.4578  1.0404 -0.7898
 1305TIP3    H225331   4.454   2.245   2.968 -2.1398  0.2698  0.5839
 1306TIP3   OH225332   1.671   1.470   5.038 -0.2488 -0.0887 -0.1784
 1306TIP3    H125333   1.648   1.378   5.020  1.5183 -0.5140 -0.4845
 1306TIP3    H225334   1.743   1.488   4.977  0.9362  0.7744  1.4147
 1307TIP3   OH225335   2.018   6.022   2.007  1.0082 -0.1578  0.3263
 1307TIP3    H125336   2.036   6.079   2.083  1.5535 -0.2472  0.2721
 1307TIP3    H225337   2.009   5.935   2.044  1.8735 -0.2997  0.2405
 1308TIP3   OH225338   3.102   5.276  11.506 -0.0706  0.0289  0.2593
 1308TIP3    H125339   3.036   5.229  11.557  0.3703 -0.1132  0.7104
 1308TIP3    H225340   3.052   5.338  11.453 -0.6676 -1.0182 -0.4265
 1309TIP3   OH225341   3.188   3.093   2.118 -0.2820  0.2658 -0.1878
 1309TIP3    H125342   3.162   3.011   2.160  0.3678  0.4871  0.6626
 1309TIP3    H225343   3.283   3.096   2.128 -0.3604  1.4205  0.3490
 1310TIP3   OH225344   4.520   1.477  16.831  0.2315 -0.8609 -0.2232
 1310TIP3    H125345   4.476   1.523  16.759 -0.6565 -0.6358  0.4411
 1310TIP3    H225346   4.485   1.388  16.827 -0.4724 -0.6288  0.4305
 1311TIP3   OH225347   3.431   2.767   3.648  0.2844  0.1400 -0.6179
 1311TIP3    H125348   3.428   2.712   3.570 -0.2873 -0.1985 -0.3625
 1311TIP3    H225349   3.468   2.709   3.716 -2.1821 -0.6168  0.1745
 1312TIP3   OH225350   0.866   4.237   1.159  0.4268  0.5295  0.2751
 1312TIP3    H125351   0.931   4.246   1.089 -0.4175  0.2220 -0.5762
 1312TIP3    H225352   0.784   4.266   1.119  0.2663  2.2865  1.7611
 1313TIP3   OH225353   6.544   2.056   3.787 -0.3777  0.5294 -0.5063
 1313TIP3    H125354   6.461   2.096   3.761 -0.2202 -0.1360 -2.1806
 1313TIP3    H225355   6.586   2.122   3.843 -1.6423  1.2234 -0.3373
 1314TIP3   OH225356   3.487   1.158  12.683 -0.0572  0.3204 -0.2833
 1314TIP3    H125357   3.440   1.114  12.612  0.0823  1.9713 -1.4607
 1314TIP3    H225358   3.420   1.180  12.747 -0.2149 -0.9948  0.0472
 1315TIP3   OH225359   4.842   0.370  14.231  0.3186  0.1817  0.5239
 1315TIP3    H125360   4.829   0.444  14.171 -0.2052 -0.6975 -0.4942
 1315TIP3    H225361   4.812   0.402  14.316  1.4683  1.5968  0.4299
 1316TIP3   OH225362   2.165   1.845   3.639 -0.0557 -0.0947 -0.6440
 1316TIP3    H125363   2.147   1.830   3.732  0.7902  1.5395 -0.1834
 1316TIP3    H225364   2.089   1.894   3.608 -0.5961 -1.1116 -0.9774
 1317TIP3   OH225365   5.221   6.670   6.289 -0.4521  0.1442  0.4005
 1317TIP3    H125366   5.195   6.624   6.209 -0.2609 -0.7439  0.8341
 1317TIP3    H225367   5.275   6.742   6.258  0.3062 -0.6724 -0.2454
 1318TIP3   OH225368   2.186   4.956  13.697  0.5865 -0.5956  0.3263
 1318TIP3    H125369   2.199   4.942  13.604 -0.5160 -0.6182  0.1631
 1318TIP3    H225370   2.249   5.024  13.721 -0.0752  0.4165 -0.7304
 1319TIP3   OH225371   2.655   6.504   6.158  0.3252 -0.0796  0.5145
 1319TIP3    H125372   2.740   6.532   6.122 -0.0281 -0.0624 -0.3151
 1319TIP3    H225373   2.656   6.409   6.149 -0.6525  0.0673 -1.5906
 1320TIP3   OH225374   2.132   2.787   4.859 -0.1398  0.2033 -0.2209
 1320TIP3    H125375   2.102   2.870   4.821 -0.3663 -0.0467 -0.5951
 1320TIP3    H225376   2.226   2.799   4.872 -0.0642  0.3087 -0.8278
 1321TIP3   OH225377   4.781   5.736  17.160  0.0688  0.5186  0.1789
 1321TIP3    H125378   4.754   5.747  17.069 -1.5141  0.0706  0.5693
 1321TIP3    H225379   4.847   5.666  17.157 -2.1672 -1.6746 -0.3122
 1322TIP3   OH225380   3.620   0.769  15.926 -0.0374 -0.1781 -0.2633
 1322TIP3    H125381   3.650   0.860  15.921 -2.5568  0.8002  0.5172
 1322TIP3    H225382   3.646   0.740  16.013  0.1617  0.0487 -0.2469
 1323TIP3   OH225383   6.355   6.029  11.792 -0.6658  0.4185  0.0366
 1323TIP3    H125384   6.345   6.123  11.807  3.0979  1.5578 -2.9554
 1323TIP3    H225385   6.433   6.004  11.842 -1.6170 -1.1795  0.8065
 1324TIP3   OH225386   2.415   1.867  15.159 -0.0653  0.4527 -0.3061
 1324TIP3    H125387   2.442   1.956  15.137  2.2124 -0.0217  0.4061
 1324TIP3    H225388   2.496   1.819  15.174 -1.1541 -2.0532 -1.7041
 1325TIP3   OH225389   0.019   1.008  10.676 -0.0537 -0.2129 -0.5824
 1325TIP3    H125390   0.056   0.937  10.728 -0.1538 -0.9408 -1.4724
 1325TIP3    H225391  -0.059   1.035  10.725 -0.3102 -1.0847 -0.4930
 1326TIP3   OH225392   6.292   5.399  16.045 -0.0044 -0.0467 -0.3040
 1326TIP3    H125393   6.310   5.493  16.047  0.4498 -0.1249  1.4275
 1326TIP3    H225394   6.269   5.380  15.954  3.4120  1.0697 -1.5288
 1327TIP3   OH225395   3.224   2.069   5.130 -0.2781 -0.1411  0.1680
 1327TIP3    H125396   3.319   2.073   5.118 -0.4278  0.7298 -0.8943
 1327TIP3    H225397   3.190   2.042   5.044 -1.1350  2.1114 -0.2932
 1328TIP3   OH225398   4.976   1.678   5.000 -0.1579 -0.2521  0.2481
 1328TIP3    H125399   4.902   1.739   5.008 -0.1133 -0.3898  2.5684
 1328TIP3    H225400   4.936   1.591   5.012  0.1495 -0.4663 -0.2678
 1329TIP3   OH225401   0.960   0.848   1.650 -0.4132  0.0560 -0.1186
 1329TIP3    H125402   0.894   0.915   1.668 -0.3143 -0.2000  1.3650
 1329TIP3    H225403   0.920   0.767   1.682  0.4385 -0.1692  0.4064
 1330TIP3   OH225404   4.018   6.520   4.499  0.0177 -0.4150  0.3556
 1330TIP3    H125405   4.102   6.476   4.487  0.2877  0.4426 -1.2124
 1330TIP3    H225406   4.040   6.612   4.511 -0.6717 -0.2709  0.5747
 1331TIP3   OH225407   5.648   5.949  10.937 -1.2074  0.0494 -0.1725
 1331TIP3    H125408   5.566   5.906  10.910 -0.8962 -0.8359  0.2595
 1331TIP3    H225409   5.677   5.899  11.013 -0.3043  0.4142 -0.2651
 1332TIP3   OH225410   3.533   6.257  13.923  0.3183  0.0021  0.4282
 1332TIP3    H125411   3.503   6.348  13.928 -0.4529  0.2220 -4.1527
 1332TIP3    H225412   3.627   6.263  13.911  0.6187 -0.0428  2.3680
 1333TIP3   OH225413   5.281   2.812  13.793 -0.3293 -0.4523 -0.0915
 1333TIP3    H125414   5.269   2.837  13.702 -2.0192 -0.7282  0.0303
 1333TIP3    H225415   5.201   2.765  13.817 -0.3441  0.4282  1.8044
 1334TIP3   OH225416   6.685   0.359  16.569 -0.2791  0.0356 -0.5350
 1334TIP3    H125417   6.593   0.331  16.573  0.0785 -1.0805  0.8127
 1334TIP3    H225418   6.729   0.304  16.633  1.1443  1.3304 -0.3443
 1335TIP3   OH225419   5.552   2.352   4.370  0.0237  0.2829  0.5065
 1335TIP3    H125420   5.547   2.337   4.465 -2.7707  0.2775  0.4265
 1335TIP3    H225421   5.564   2.264   4.333 -3.7165 -0.4892  0.7136
 1336TIP3   OH225422   2.575   1.090   3.603 -0.0533 -0.3739  0.3278
 1336TIP3    H125423   2.621   1.012   3.574  0.9314  0.4207 -0.3540
 1336TIP3    H225424   2.502   1.058   3.655  1.6053 -1.6807  1.9488
 1337TIP3   OH225425   5.644   6.616   0.129 -0.1859 -0.3459  0.4514
 1337TIP3    H125426   5.666   6.543   0.187 -0.9508  0.1266  1.3480
 1337TIP3    H225427   5.616   6.686   0.187  1.2664  0.9543 -0.3379
 1338TIP3   OH225428   1.383   0.262  15.502  0.3148  0.0147  0.1358
 1338TIP3    H125429   1.320   0.334  15.498 -0.1942 -0.3979  0.5591
 1338TIP3    H225430   1.467   0.302  15.481 -0.1170  0.5296 -0.6746
 1339TIP3   OH225431   5.500   4.880  12.803 -0.4813 -0.3901 -0.1361
 1339TIP3    H125432   5.429   4.866  12.741 -0.3889  0.5212 -0.4651
 1339TIP3    H225433   5.456   4.890  12.888 -0.7751  0.3517 -0.3650
 1340TIP3   OH225434   0.301   2.795  13.602 -0.4052 -0.0321 -0.4822
 1340TIP3    H125435   0.281   2.734  13.673  0.9135  1.0404  0.8716
 1340TIP3    H225436   0.362   2.858  13.641  3.8377 -1.7601 -3.6170
 1341TIP3   OH225437   0.260   0.945   0.000  0.4323 -0.1258  0.3347
 1341TIP3    H125438   0.182   0.979   0.043  0.5087 -0.5722  0.8426
 1341TIP3    H225439   0.330   0.960   0.064  0.8399  0.5912 -0.2521
 1342TIP3   OH225440   3.083   0.952  15.420 -0.4084 -0.3477  0.6951
 1342TIP3    H125441   3.121   0.869  15.391 -0.4930 -0.0345 -0.3567
 1342TIP3    H225442   3.127   0.971  15.503 -0.4253 -1.4578  0.9652
 1343TIP3   OH225443   0.149   4.122   3.005  0.2929 -0.5382  0.1484
 1343TIP3    H125444   0.122   4.068   3.079  0.8199  0.6017  1.2160
 1343TIP3    H225445   0.084   4.192   3.000 -0.5403 -1.3615 -1.3932
 1344TIP3   OH225446   1.778   4.110  13.059 -0.1630 -0.5751 -0.6520
 1344TIP3    H125447   1.847   4.152  13.110 -0.4814 -0.5791 -0.2131
 1344TIP3    H225448   1.791   4.142  12.970  0.8540 -1.1354 -0.7212
 1345TIP3   OH225449   4.738   1.965   1.176 -0.1192 -0.2642 -0.5697
 1345TIP3    H125450   4.689   2.027   1.232 -0.1307  0.0171 -0.8886
 1345TIP3    H225451   4.689   1.964   1.094 -1.1331 -2.0315  0.0044
 1346TIP3   OH225452   6.427   6.370  16.648  0.0967  0.1836  0.7582
 1346TIP3    H125453   6.487   6.345  16.718  0.2045  0.3580  0.7286
 1346TIP3    H225454   6.483   6.373  16.570 -0.1458 -0.6455  0.5470
 1347TIP3   OH225455   0.268   3.396   3.667  0.2358 -0.1808 -0.2234
 1347TIP3    H125456   0.273   3.454   3.743 -0.3196 -1.6258  0.9620
 1347TIP3    H225457   0.176   3.369   3.664 -0.0416  0.8506 -2.2113
 1348TIP3   OH225458   0.402   2.074  15.007 -0.6205  0.6473  0.4245
 1348TIP3    H125459   0.411   2.170  15.006 -0.3905  0.6272  0.4552
 1348TIP3    H225460   0.347   2.056  15.083 -2.3975  0.8910 -0.7333
 1349TIP3   OH225461   3.774   6.453  15.972 -0.4684 -0.3694  0.8147
 1349TIP3    H125462   3.787   6.429  15.880 -1.4012  2.4989 -0.1944
 1349TIP3    H225463   3.815   6.382  16.021  0.6829 -1.6814 -1.7977
 1350TIP3   OH225464   1.560   2.087  13.171  0.1510  0.3916  0.2576
 1350TIP3    H125465   1.519   2.063  13.088 -0.1359  1.7174  0.0008
 1350TIP3    H225466   1.630   2.148  13.148 -0.5188  1.4973  1.0353
 1351TIP3   OH225467   1.996   3.307   0.687  0.5752 -0.7794  0.5678
 1351TIP3    H125468   1.943   3.233   0.655 -0.3569  0.2187 -0.3120
 1351TIP3    H225469   1.961   3.326   0.774 -0.7145  0.0092 -0.0944
 1352TIP3   OH225470   1.459   0.098  16.690  0.1206  0.3796  0.0654
 1352TIP3    H125471   1.466   0.135  16.778 -1.3117 -0.7859  0.7064
 1352TIP3    H225472   1.394   0.154  16.646 -0.5419 -0.1319  0.3749
 1353TIP3   OH225473   5.257   0.710   3.710 -0.3056  0.2161 -0.3235
 1353TIP3    H125474   5.181   0.722   3.653  0.4230 -1.8951 -1.8803
 1353TIP3    H225475   5.324   0.670   3.653  1.3875  0.4538  1.3917
 1354TIP3   OH225476   3.126   5.518   2.794  0.2490 -0.3072  0.2276
 1354TIP3    H125477   3.112   5.546   2.884  0.8894  1.6088 -0.2296
 1354TIP3    H225478   3.209   5.471   2.796 -0.1540 -1.0162  0.7689
 1355TIP3   OH225479   2.509   1.399   1.017  0.8463 -0.7249 -0.3985
 1355TIP3    H125480   2.419   1.385   1.046  1.0470  0.5480  0.9903
 1355TIP3    H225481   2.562   1.344   1.074  1.0730  0.0157  0.1265
 1356TIP3   OH225482   3.504   1.604  11.462 -0.1513  0.3600  0.0798
 1356TIP3    H125483   3.497   1.552  11.383 -2.7146  3.1040 -1.7161
 1356TIP3    H225484   3.527   1.541  11.531 -0.0896 -2.5141 -2.3913
 1357TIP3   OH225485   3.405   1.207  16.979 -0.4413 -0.4884 -0.1794
 1357TIP3    H125486   3.465   1.140  16.944  1.2817  0.5917  0.6012
 1357TIP3    H225487   3.462   1.272  17.019 -2.2166 -0.0168  1.7194
 1358TIP3   OH225488   6.724   3.544   2.751 -0.0755  0.0853  0.2798
 1358TIP3    H125489   6.716   3.638   2.763  1.2984  0.2557  0.0676
 1358TIP3    H225490   6.818   3.530   2.739 -0.4700 -1.0371 -1.9089
 1359TIP3   OH225491   5.703   0.023  10.485 -0.0920  0.3238 -0.3084
 1359TIP3    H125492   5.726   0.022  10.578 -0.6082  1.0391 -0.1687
 1359TIP3    H225493   5.625  -0.031  10.479  0.7601 -0.9356 -0.5683
 1360TIP3   OH225494   1.032   5.354   1.739  0.4296  0.5240 -0.5776
 1360TIP3    H125495   1.117   5.344   1.781  0.5222  4.4253  0.5239
 1360TIP3    H225496   1.027   5.280   1.679  2.5743 -2.4321  2.4488
 1361TIP3   OH225497   1.917   4.212   2.316  0.1382  0.3241  0.0424
 1361TIP3    H125498   1.921   4.154   2.239 -0.0898  1.8056 -1.1389
 1361TIP3    H225499   1.835   4.188   2.359  0.0956 -0.3057 -0.3691
 1362TIP3   OH225500   4.900   5.682  10.834  0.1778  0.2291  0.2110
 1362TIP3    H125501   4.992   5.685  10.858  0.4160  1.4748 -0.7358
 1362TIP3    H225502   4.900   5.663  10.740 -0.5354  0.0863  0.2353
 1363TIP3   OH225503   4.477   1.156  17.094  0.2211 -0.1681 -0.5913
 1363TIP3    H125504   4.551   1.149  17.154  0.0784  1.9941 -0.0878
 1363TIP3    H225505   4.515   1.141  17.008  1.0160 -0.2379 -0.2369
 1364TIP3   OH225506   0.876   2.304  15.142 -1.0196 -0.0869 -0.4155
 1364TIP3    H125507   0.795   2.253  15.148 -0.9485 -0.0255  2.0453
 1364TIP3    H225508   0.946   2.240  15.160 -0.7325  0.3125 -0.0667
 1365TIP3   OH225509   4.486   3.275  13.029 -0.0983  0.4612  0.7741
 1365TIP3    H125510   4.397   3.257  13.001  0.0676  0.2869  0.3497
 1365TIP3    H225511   4.492   3.238  13.117  0.5876 -2.7205 -0.4757
 1366TIP3   OH225512   2.952   1.902   0.402 -0.0494  0.3604  0.1187
 1366TIP3    H125513   2.868   1.933   0.369 -0.5557 -1.1203 -0.0803
 1366TIP3    H225514   3.014   1.972   0.382 -0.5756  0.0866 -2.8243
 1367TIP3   OH225515   2.486   3.515  10.643 -0.0756  0.2258 -0.0353
 1367TIP3    H125516   2.430   3.502  10.567  0.0331 -0.1032 -0.0600
 1367TIP3    H225517   2.448   3.458  10.710  0.4314 -0.2626 -0.1575
 1368TIP3   OH225518   4.257   5.795   5.569  0.5523 -0.4470 -0.2032
 1368TIP3    H125519   4.212   5.739   5.632  0.4975 -0.2537 -0.0701
 1368TIP3    H225520   4.315   5.736   5.521  0.1809 -0.6917 -0.3526
 1369TIP3   OH225521   3.241   0.467  12.009 -0.0861 -0.0533 -0.5947
 1369TIP3    H125522   3.167   0.476  12.069  0.0315 -1.7215 -0.1652
 1369TIP3    H225523   3.311   0.431  12.063  1.2728  2.0598 -0.8544
 1370TIP3   OH225524   1.353   6.636  16.969  0.2259  0.1103  0.2450
 1370TIP3    H125525   1.365   6.560  17.025  1.0859  0.3995  0.4662
 1370TIP3    H225526   1.269   6.672  16.996  0.1844 -0.3053  0.6850
 1371TIP3   OH225527   2.172   6.310  12.167 -0.3375 -0.0756 -0.1364
 1371TIP3    H125528   2.205   6.353  12.246  1.0348  0.5307 -1.0088
 1371TIP3    H225529   2.136   6.226  12.198 -0.6529  0.5384  1.2275
 1372TIP3   OH225530   2.550   6.347  10.896 -0.2001  0.0001 -0.1527
 1372TIP3    H125531   2.506   6.424  10.860 -1.0241  0.8392  2.3891
 1372TIP3    H225532   2.481   6.301  10.943  1.0638 -0.1475  1.6503
 1373TIP3   OH225533   6.630   4.425  13.838 -0.0378  0.2877 -0.0519
 1373TIP3    H125534   6.574   4.402  13.913 -1.0701  0.1674 -0.8391
 1373TIP3    H225535   6.663   4.341  13.806 -1.8230  0.0558 -1.4067
 1374TIP3   OH225536   2.639   2.374  11.610 -0.5244 -0.8683  0.6297
 1374TIP3    H125537   2.639   2.468  11.594 -0.1743 -0.7953  1.0372
 1374TIP3    H225538   2.552   2.344  11.583  0.4064 -0.9878 -2.7406
 1375TIP3   OH225539   0.963   4.503   3.310  0.1611 -0.5223  0.0462
 1375TIP3    H125540   0.991   4.591   3.287  1.3410 -0.6920  0.6839
 1375TIP3    H225541   1.010   4.446   3.249 -1.1765 -0.6855 -0.8537
 1376TIP3   OH225542   2.742   5.782   3.967  0.0455  0.3981 -0.2016
 1376TIP3    H125543   2.826   5.754   4.004  0.7693 -0.2699 -2.2164
 1376TIP3    H225544   2.687   5.801   4.043  1.2086 -1.5746  1.2120
 1377TIP3   OH225545   3.333   2.000   2.490 -0.2404  0.5854  0.7118
 1377TIP3    H125546   3.276   2.077   2.496 -0.9677 -0.0260  3.0152
 1377TIP3    H225547   3.335   1.966   2.580  1.3879 -1.1340  0.0772
 1378TIP3   OH225548   3.258   1.599   0.436 -0.1472 -0.0534  0.5245
 1378TIP3    H125549   3.283   1.670   0.494 -0.2777  0.5067 -0.0918
 1378TIP3    H225550   3.323   1.602   0.365 -0.7657  0.1327 -0.0472
 1379TIP3   OH225551   1.433   1.716   6.700  0.0059 -0.0045 -0.1788
 1379TIP3    H125552   1.493   1.641   6.696 -0.3994 -0.2664 -2.9981
 1379TIP3    H225553   1.346   1.678   6.687 -0.4471  0.7617  0.4756
 1380TIP3   OH225554   2.583   0.626   3.893  0.1034 -0.3589 -0.1420
 1380TIP3    H125555   2.658   0.569   3.878  1.2082  1.2615 -1.1919
 1380TIP3    H225556   2.533   0.583   3.963  1.8571 -1.6330  0.3986
 1381TIP3   OH225557   0.925   4.975   4.192 -0.1087  0.0104  0.3257
 1381TIP3    H125558   0.983   4.996   4.119 -1.1144 -1.7994 -1.0926
 1381TIP3    H225559   0.940   4.882   4.208 -1.6974 -0.2029  0.7369
 1382TIP3   OH225560   2.016   3.645  16.195 -0.3115  0.5057 -0.5419
 1382TIP3    H125561   2.014   3.579  16.126 -2.0032 -0.6737  0.5466
 1382TIP3    H225562   2.083   3.613  16.256  1.3804  1.6921 -1.7103
 1383TIP3   OH225563   4.559   6.487  14.435  0.0633 -0.6061 -0.1516
 1383TIP3    H125564   4.615   6.471  14.360  0.4465 -1.4273  0.3003
 1383TIP3    H225565   4.515   6.570  14.415  0.1354 -0.8296 -1.2792
 1384TIP3   OH225566   2.468   1.661   3.327 -0.2922  0.0506  0.6476
 1384TIP3    H125567   2.520   1.681   3.405  0.7420 -0.5200  0.1248
 1384TIP3    H225568   2.532   1.636   3.261 -0.9832  2.3627 -1.0120
 1385TIP3   OH225569   0.187   1.637   3.652  0.0363 -0.1949  0.3985
 1385TIP3    H125570   0.100   1.604   3.674 -0.3309  1.1119  0.9644
 1385TIP3    H225571   0.235   1.559   3.625 -1.4050 -0.8908 -0.2651
 1386TIP3   OH225572   5.538   3.797   2.369 -0.5426  0.2043 -0.1159
 1386TIP3    H125573   5.631   3.775   2.376 -0.6129 -0.1842 -0.3473
 1386TIP3    H225574   5.531   3.851   2.291 -0.5888 -0.2135 -0.4021
 1387TIP3   OH225575   5.215   3.475   3.230  0.4566  0.1058  0.6895
 1387TIP3    H125576   5.275   3.467   3.155  0.8806  0.1745  1.0175
 1387TIP3    H225577   5.267   3.520   3.297 -0.1832  0.7968  0.7345
 1388TIP3   OH225578   6.067   3.063  16.527 -0.3096 -0.4553 -0.7082
 1388TIP3    H125579   6.021   3.059  16.611 -1.2468  0.1522 -1.1804
 1388TIP3    H225580   6.030   3.139  16.483  1.0791 -0.0120 -1.1563
 1389TIP3   OH225581   0.824   3.436  14.427  0.2365  0.4720  0.2956
 1389TIP3    H125582   0.898   3.389  14.390  0.6685  1.7516 -0.5372
 1389TIP3    H225583   0.753   3.372  14.429  0.7957 -0.2113 -0.7897
 1390TIP3   OH225584   0.746   5.710  11.804  0.2044 -0.4174 -0.0260
 1390TIP3    H125585   0.804   5.641  11.835  1.3600  0.3847 -0.3587
 1390TIP3    H225586   0.759   5.783  11.865 -1.6585 -0.7488  0.8502
 1391TIP3   OH225587   0.034   0.341   4.713  0.2825 -0.1834 -0.2482
 1391TIP3    H125588   0.071   0.255   4.733  1.4521 -0.3803 -2.8409
 1391TIP3    H225589  -0.021   0.326   4.636  1.1724  1.4882 -1.2656
 1392TIP3   OH225590   2.786   2.440   4.807  0.0744 -0.2635  0.0481
 1392TIP3    H125591   2.705   2.492   4.813  0.6762  1.4753 -3.8337
 1392TIP3    H225592   2.854   2.500   4.838  0.3427 -0.1111 -0.8272
 1393TIP3   OH225593   6.407   0.641  14.149 -0.1780  0.0764 -0.4699
 1393TIP3    H125594   6.448   0.727  14.142  0.0937  0.1381  1.4553
 1393TIP3    H225595   6.333   0.645  14.089  1.6743  0.4860 -2.8969
 1394TIP3   OH225596   0.533   0.110  14.298  0.4784  0.3765 -0.3618
 1394TIP3    H125597   0.447   0.121  14.259  1.1641 -0.6913 -2.3198
 1394TIP3    H225598   0.522   0.135  14.390 -2.0938 -0.5527 -0.3589
 1395TIP3   OH225599   1.016   3.711   0.336 -0.1081 -0.1504 -0.4452
 1395TIP3    H125600   1.054   3.778   0.393 -1.1704 -0.4911  0.7066
 1395TIP3    H225601   1.059   3.630   0.363 -0.8499 -0.3647  0.1130
 1396TIP3   OH225602   3.345   2.385  16.075  0.1052  0.8994 -0.2023
 1396TIP3    H125603   3.386   2.459  16.028  0.5181  1.9027  1.6494
 1396TIP3    H225604   3.401   2.372  16.152 -1.9015  0.9781  1.3390
 1397TIP3   OH225605   5.224   4.444   6.030 -0.4055 -0.3308  0.0146
 1397TIP3    H125606   5.164   4.510   6.064  0.6459  0.0060  1.2908
 1397TIP3    H225607   5.168   4.368   6.012 -1.1589 -0.1925  1.6247
 1398TIP3   OH225608   2.547   2.733   5.147  0.5904  0.2029 -0.5320
 1398TIP3    H125609   2.487   2.744   5.073  1.3176  0.9206 -1.0348
 1398TIP3    H225610   2.534   2.812   5.200  1.3521  0.5601 -0.8541
 1399TIP3   OH225611   5.023   2.453  14.362 -0.2989  0.1773 -0.2037
 1399TIP3    H125612   5.091   2.518  14.379  1.5111 -1.6773  0.0491
 1399TIP3    H225613   4.994   2.473  14.273  1.3691  0.3790 -0.7526
 1400TIP3   OH225614   3.996   4.574   4.402  0.1831 -0.4206 -0.3980
 1400TIP3    H125615   4.023   4.484   4.383  0.2727 -0.2600 -1.0621
 1400TIP3    H225616   3.973   4.610   4.317 -0.2653  0.0553 -0.0773
 1401TIP3   OH225617   2.173   5.742  15.350  0.0248  0.9246 -0.1762
 1401TIP3    H125618   2.210   5.698  15.274 -3.2394 -2.1563 -0.2439
 1401TIP3    H225619   2.188   5.835  15.333  2.7096  0.2036 -2.6514
 1402TIP3   OH225620   5.970   3.695   0.773 -0.3652 -0.5164  0.2539
 1402TIP3    H125621   5.989   3.710   0.680 -1.1763  1.1652  0.3303
 1402TIP3    H225622   5.904   3.626   0.773 -0.1175 -0.7647 -0.3919
 1403TIP3   OH225623   4.962   2.815   3.638 -0.1017  0.7985 -0.4488
 1403TIP3    H125624   4.951   2.885   3.573 -0.9113  1.1109  0.0123
 1403TIP3    H225625   5.026   2.851   3.701  0.9668  0.3528 -1.2443
 1404TIP3   OH225626   0.749   2.297  12.357  0.2842 -0.2403 -0.8020
 1404TIP3    H125627   0.659   2.325  12.340  0.3021  1.0578  0.9376
 1404TIP3    H225628   0.749   2.203  12.338 -0.5107  0.3167 -4.2111
 1405TIP3   OH225629   2.307   1.600   1.170  0.0574  0.0514 -0.3849
 1405TIP3    H125630   2.368   1.575   1.240 -0.4011 -0.4765 -0.1633
 1405TIP3    H225631   2.285   1.517   1.128  0.0711  0.3284 -0.9489
 1406TIP3   OH225632   5.659   4.307   0.108  0.1397 -0.1719 -0.5824
 1406TIP3    H125633   5.657   4.222   0.066 -1.7243  0.2773 -1.5079
 1406TIP3    H225634   5.678   4.369   0.037 -0.6886  0.3707 -0.3541
 1407TIP3   OH225635   4.951   1.592   0.298  0.4329  0.9064  0.2408
 1407TIP3    H125636   4.964   1.525   0.231  0.5108  0.7464  0.4168
 1407TIP3    H225637   4.954   1.675   0.250  1.5003  0.8474  0.1889
 1408TIP3   OH225638   5.568   5.609   1.269 -0.3495 -0.7179 -0.1019
 1408TIP3    H125639   5.518   5.563   1.335  0.8497 -0.3920  1.0709
 1408TIP3    H225640   5.598   5.541   1.209  0.7661 -1.4046  1.1867
 1409TIP3   OH225641   4.602   1.733  14.793 -0.2378 -0.0436 -0.7685
 1409TIP3    H125642   4.652   1.683  14.857 -0.3992  0.6664 -0.0555
 1409TIP3    H225643   4.624   1.695  14.709 -1.5655 -2.3423 -0.1565
 1410TIP3   OH225644   3.659   0.387   0.181 -0.4941 -0.0493 -0.1249
 1410TIP3    H125645   3.564   0.400   0.188 -0.3700  0.2951  1.1093
 1410TIP3    H225646   3.697   0.451   0.241  0.5688  0.2867 -1.1044
 1411TIP3   OH225647   1.757   1.712   4.308 -0.2230 -0.1790  0.6186
 1411TIP3    H125648   1.668   1.723   4.275  0.0769 -2.1979 -1.0164
 1411TIP3    H225649   1.765   1.619   4.328  1.5441 -0.0742  0.6304
 1412TIP3   OH225650   4.024   4.542   5.032  0.0244 -0.4233  0.1922
 1412TIP3    H125651   4.064   4.570   4.949  0.2983  1.4581  0.9112
 1412TIP3    H225652   4.061   4.455   5.047  0.7871 -0.3680 -1.1318
 1413TIP3   OH225653   5.277   4.239  12.092 -0.3587  0.4458  0.4228
 1413TIP3    H125654   5.343   4.267  12.028 -0.0910 -0.7177  0.1582
 1413TIP3    H225655   5.328   4.201  12.164 -0.7078 -0.1149  0.3872
 1414TIP3   OH225656   2.533   0.996   5.999 -0.4580 -0.4386  0.2766
 1414TIP3    H125657   2.453   0.956   6.032 -1.6777  1.0313 -0.7735
 1414TIP3    H225658   2.545   1.074   6.052 -0.4485  0.0183 -0.3809
 1415TIP3   OH225659   5.716   4.722  14.577 -0.0284  0.3806 -0.5238
 1415TIP3    H125660   5.764   4.760  14.650  1.9912 -1.5701 -0.7401
 1415TIP3    H225661   5.783   4.680  14.523 -1.6909 -0.0176 -2.4149
 1416TIP3   OH225662   4.967   4.193  13.358  0.0470 -0.0117 -0.1308
 1416TIP3    H125663   4.959   4.128  13.288 -0.3723  0.9355 -0.9758
 1416TIP3    H225664   5.024   4.151  13.423  0.5973 -0.8331 -1.1182
 1417TIP3   OH225665   1.961   3.378   3.291 -0.3179  0.1720  0.4027
 1417TIP3    H125666   1.931   3.388   3.200  2.2211 -0.9512 -0.6473
 1417TIP3    H225667   1.932   3.290   3.316  1.4626 -0.6975 -0.4204
 1418TIP3   OH225668   6.634   4.075  11.986 -0.0076 -0.6659 -0.4290
 1418TIP3    H125669   6.547   4.047  12.013 -0.7881 -0.7081 -2.7714
 1418TIP3    H225670   6.684   3.994  11.976 -0.1912 -0.7545 -0.6243
 1419TIP3   OH225671   6.051   1.993  12.591  0.2540  0.0831 -0.6284
 1419TIP3    H125672   6.012   1.989  12.678  0.1675 -0.7578 -0.7067
 1419TIP3    H225673   6.145   2.004  12.608  0.3029 -0.6121 -0.4201
 1420TIP3   OH225674   6.257   1.769   0.687  0.0034 -0.1033 -0.4112
 1420TIP3    H125675   6.300   1.730   0.611 -0.5018 -0.1595 -0.6690
 1420TIP3    H225676   6.165   1.774   0.663 -0.1099  0.1882  0.0685
 1421TIP3   OH225677   2.949   5.629  16.275  0.0845 -0.4297 -0.3719
 1421TIP3    H125678   2.972   5.585  16.357  1.1399 -1.2734 -1.0956
 1421TIP3    H225679   2.866   5.673  16.294  0.6635 -0.0144  1.3631
 1422TIP3   OH225680   4.777   6.177   2.936  0.5960 -0.2313 -0.2744
 1422TIP3    H125681   4.845   6.220   2.883  1.0783 -2.3223 -1.4936
 1422TIP3    H225682   4.806   6.086   2.941 -2.3186 -1.3014 -1.2026
 1423TIP3   OH225683   2.976   4.217   0.163 -0.2234 -0.0753  0.6052
 1423TIP3    H125684   2.893   4.246   0.123  0.0027 -0.3759 -0.0916
 1423TIP3    H225685   3.017   4.297   0.194  0.6409  0.4572 -1.7726
 1424TIP3   OH225686   1.700   2.873  15.545  0.1397 -0.4709 -0.3837
 1424TIP3    H125687   1.754   2.936  15.497 -1.2698  1.0161 -0.0975
 1424TIP3    H225688   1.628   2.853  15.485  0.4320 -1.6693 -0.3739
 1425TIP3   OH225689   2.951   0.052  15.409  0.1718  0.1692  0.1154
 1425TIP3    H125690   2.895   0.127  15.392  1.0984  1.1241  1.0691
 1425TIP3    H225691   2.891  -0.021  15.424 -0.7357  0.5319 -1.5465
 1426TIP3   OH225692   5.912   5.562  11.511 -0.1147  1.1405 -0.6041
 1426TIP3    H125693   5.866   5.478  11.506  1.6088  0.1796 -0.9379
 1426TIP3    H225694   5.986   5.554  11.451  0.8097  2.4265  0.2853
 1427TIP3   OH225695   6.480   3.507  13.694  0.6169 -0.2432  0.1671
 1427TIP3    H125696   6.516   3.482  13.779 -0.6906 -0.8013  0.5798
 1427TIP3    H225697   6.390   3.535  13.713 -0.0938 -1.4920 -1.1647
 1428TIP3   OH225698   3.256   1.452   5.712  0.3021  0.0228 -0.5474
 1428TIP3    H125699   3.341   1.496   5.721  0.6137 -0.7022  0.2633
 1428TIP3    H225700   3.201   1.490   5.780 -0.0592  0.5695 -1.1450
 1429TIP3   OH225701   4.359   4.067   3.924 -0.0083  1.1377 -0.3188
 1429TIP3    H125702   4.387   4.148   3.882  2.2772  1.3235  1.3783
 1429TIP3    H225703   4.311   4.095   4.002  1.5594  0.9135  0.7566
 1430TIP3   OH225704   3.048   3.979  14.383  0.3734 -0.1081  0.0185
 1430TIP3    H125705   3.090   4.021  14.459  0.0419  0.4348 -0.0952
 1430TIP3    H225706   2.959   4.013  14.383  0.0676 -0.8951 -0.0258
 1431TIP3   OH225707   2.022   4.425   0.383  0.3646  0.1465  0.4305
 1431TIP3    H125708   2.093   4.365   0.360  0.5251  0.5006 -0.0269
 1431TIP3    H225709   2.063   4.491   0.439  0.6059  0.8355 -0.5281
 1432TIP3   OH225710   5.545   6.256   1.563  0.1286  0.4531  0.1165
 1432TIP3    H125711   5.513   6.195   1.497 -1.2472 -0.3255  1.4447
 1432TIP3    H225712   5.633   6.279   1.533  0.4153 -1.5975 -0.8217
 1433TIP3   OH225713   0.473   2.557  17.131  0.2848  0.2986  0.1018
 1433TIP3    H125714   0.474   2.653  17.137  0.4222  0.3167 -0.1986
 1433TIP3    H225715   0.471   2.528  17.222  2.0990  0.5651  0.2801
 1434TIP3   OH225716   4.974   0.721   3.710 -0.1093 -0.1083  0.0140
 1434TIP3    H125717   4.899   0.727   3.770  2.7334  1.2496  3.8916
 1434TIP3    H225718   5.006   0.811   3.704  2.5090 -0.9235  0.5180
 1435TIP3   OH225719   2.925   0.984   1.808 -0.2497  0.4835  0.3221
 1435TIP3    H125720   2.985   1.059   1.809 -1.3846  1.4260 -0.6171
 1435TIP3    H225721   2.955   0.931   1.735 -0.0036  0.4708  0.4294
 1436TIP3   OH225722   6.175   4.675   3.694  0.1678  0.1961 -0.5707
 1436TIP3    H125723   6.234   4.646   3.764 -1.1693  2.1341  1.4651
 1436TIP3    H225724   6.145   4.593   3.653  0.9010 -1.0200  1.1983
 1437TIP3   OH225725   6.542   2.495  13.719 -0.0083 -0.5745  0.2510
 1437TIP3    H125726   6.521   2.478  13.627  0.6619 -0.9635  0.1669
 1437TIP3    H225727   6.546   2.590  13.725 -0.5997 -0.5283  0.0016
 1438TIP3   OH225728   0.117   2.392   1.859 -0.8010  0.1683 -0.2480
 1438TIP3    H125729   0.203   2.367   1.824 -1.2630 -1.1860 -0.5015
 1438TIP3    H225730   0.137   2.446   1.935  0.2501  1.2305 -1.2266
 1439TIP3   OH225731   2.057   6.145   2.787  0.1068  0.0888  0.5855
 1439TIP3    H125732   2.122   6.167   2.854  0.9319 -2.8564  0.8945
 1439TIP3    H225733   1.975   6.180   2.821  1.1081  1.9795  1.2446
 1440TIP3   OH225734   1.497   5.149  16.187  0.2520 -0.3717  0.2945
 1440TIP3    H125735   1.573   5.119  16.137  0.3361 -1.2410  0.9279
 1440TIP3    H225736   1.442   5.071  16.196 -0.6033  0.1921  0.0636
 1441TIP3   OH225737   4.749   4.571  12.501  0.1833  0.1246 -0.1310
 1441TIP3    H125738   4.817   4.629  12.536 -0.1172  0.9460 -0.8522
 1441TIP3    H225739   4.789   4.531  12.424  0.5300 -0.9573  0.6038
 1442TIP3   OH225740   0.687   6.074   5.584 -0.1312  0.2986 -0.5775
 1442TIP3    H125741   0.739   6.021   5.645  0.3432  1.1994 -0.1878
 1442TIP3    H225742   0.743   6.085   5.507 -1.3796 -2.3582 -2.0386
 1443TIP3   OH225743   2.150   2.440   0.587 -0.0942  0.0010 -0.7352
 1443TIP3    H125744   2.145   2.344   0.594 -0.4685 -0.0763 -1.8615
 1443TIP3    H225745   2.152   2.457   0.493 -0.1676  1.1174 -0.5488
 1444TIP3   OH225746   3.447   2.339   5.115 -0.1576  0.4199  0.4635
 1444TIP3    H125747   3.502   2.268   5.150 -0.3018 -0.3601 -0.8199
 1444TIP3    H225748   3.504   2.385   5.054 -1.2645 -1.4300 -2.1990
 1445TIP3   OH225749   1.372   3.153  12.767  0.6583  0.3900  0.3709
 1445TIP3    H125750   1.344   3.147  12.675 -2.8299 -0.9045  1.3540
 1445TIP3    H225751   1.351   3.242  12.793 -3.6022 -0.6540  1.2020
 1446TIP3   OH225752   6.060   1.635   5.672  0.0975  0.1066 -0.0682
 1446TIP3    H125753   5.981   1.668   5.715  0.0995  0.8232 -0.6076
 1446TIP3    H225754   6.107   1.713   5.644  1.1987 -0.2999  0.5833
 1447TIP3   OH225755   6.243   5.897  13.552  0.5548  0.4102  0.5699
 1447TIP3    H125756   6.269   5.809  13.527  1.3910  1.4555 -2.6293
 1447TIP3    H225757   6.317   5.953  13.528  0.3078  2.0065  3.0722
 1448TIP3   OH225758   0.925   3.371  11.984 -0.0234  0.8322  0.2583
 1448TIP3    H125759   1.007   3.389  12.030  0.4364  0.7106 -0.4949
 1448TIP3    H225760   0.874   3.319  12.045  0.7386  0.3219  0.4832
 1449TIP3   OH225761   4.072   4.671   0.204 -0.0543  0.3737  0.4108
 1449TIP3    H125762   4.056   4.679   0.110  1.2359 -1.4971 -0.0385
 1449TIP3    H225763   3.998   4.619   0.236  0.1566 -0.0895  0.1640
 1450TIP3   OH225764   2.340   2.218  15.693 -0.3362 -0.3880  0.5379
 1450TIP3    H125765   2.355   2.156  15.622 -0.3715 -0.5902  0.7062
 1450TIP3    H225766   2.320   2.300  15.649 -0.8631 -0.6353  0.3134
 1451TIP3   OH225767   3.373   2.050   0.279  0.2770  0.5990 -0.3990
 1451TIP3    H125768   3.428   2.128   0.286  1.6363 -0.3028 -0.6630
 1451TIP3    H225769   3.400   2.008   0.197  1.4032 -1.4591  0.9101
 1452TIP3   OH225770   1.973   4.467  15.382 -0.0088 -0.4079  0.0456
 1452TIP3    H125771   1.947   4.552  15.348 -0.8005 -1.4787 -2.2646
 1452TIP3    H225772   1.939   4.465  15.471  1.7406  2.3922  0.9167
 1453TIP3   OH225773   1.098   2.359   2.057  0.0347  0.3734  0.1099
 1453TIP3    H125774   1.170   2.297   2.043  0.4936  0.9590 -0.1763
 1453TIP3    H225775   1.040   2.345   1.981  0.8369  1.2308 -0.6916
 1454TIP3   OH225776   1.729   1.548   3.489  0.1833  0.1653 -0.2986
 1454TIP3    H125777   1.795   1.483   3.513  0.5413  0.6721  0.1314
 1454TIP3    H225778   1.674   1.555   3.567 -0.2015 -0.0397 -0.5504
 1455TIP3   OH225779   1.161   4.073  11.738 -0.2107 -0.1433  0.3985
 1455TIP3    H125780   1.154   3.989  11.784 -1.4423 -0.8957 -1.0614
 1455TIP3    H225781   1.076   4.083  11.695  0.9171  0.4153 -1.8329
 1456TIP3   OH225782   5.520   3.452   3.957  0.1006 -0.3802  0.9227
 1456TIP3    H125783   5.495   3.542   3.937  0.7916  0.1127  2.1494
 1456TIP3    H225784   5.483   3.400   3.885  1.3483  1.1054 -0.8988
 1457TIP3   OH225785   3.421   0.701  15.453 -0.2279 -0.3948  0.1952
 1457TIP3    H125786   3.478   0.771  15.420  0.9814 -0.2652  2.3497
 1457TIP3    H225787   3.468   0.666  15.529 -3.1905 -0.0578  2.3254
 1458TIP3   OH225788   1.147   6.015  12.508 -0.2177  0.0234 -0.2153
 1458TIP3    H125789   1.213   6.003  12.440 -0.0866  1.2937 -0.3360
 1458TIP3    H225790   1.183   6.084  12.565 -0.8386 -0.2088  0.4746
 1459TIP3   OH225791   4.479   3.171   0.110 -0.0751  0.1269  0.6668
 1459TIP3    H125792   4.420   3.121   0.053  0.0502  1.4968 -0.7411
 1459TIP3    H225793   4.430   3.183   0.191 -0.6965 -0.9640  0.4688
 1460TIP3   OH225794   0.544   3.980  14.835  0.5639 -0.1458 -0.2600
 1460TIP3    H125795   0.463   4.025  14.859 -1.1125 -0.6572 -4.2340
 1460TIP3    H225796   0.609   4.050  14.826  0.1511  0.4675  1.2319
 1461TIP3   OH225797   5.584   2.262  16.867  0.1939  0.3432 -0.0077
 1461TIP3    H125798   5.657   2.266  16.929  0.8383 -2.4280 -0.4188
 1461TIP3    H225799   5.520   2.204  16.910  0.1469 -0.6764 -1.3868
 1462TIP3   OH225800   0.569   5.718   4.303  0.2930  0.2739  0.2255
 1462TIP3    H125801   0.539   5.793   4.251  1.3486 -0.5493 -1.6637
 1462TIP3    H225802   0.540   5.641   4.254  1.1655 -0.5482  0.9496
 1463TIP3   OH225803   3.103   2.133  15.616  0.1060  0.2950  0.0257
 1463TIP3    H125804   3.120   2.142  15.710 -2.5849 -0.9721  0.7423
 1463TIP3    H225805   3.166   2.068  15.586  0.4817  0.1112  1.1598
 1464TIP3   OH225806   2.278   4.548   4.584  0.4729 -1.0111 -0.1752
 1464TIP3    H125807   2.355   4.503   4.616  1.4116 -0.5513 -1.6954
 1464TIP3    H225808   2.288   4.638   4.614  0.9766 -0.7553 -1.0662
 1465TIP3   OH225809   2.621   5.482  11.281 -0.0778 -0.3353 -0.1946
 1465TIP3    H125810   2.595   5.573  11.296 -0.3125 -0.4723  0.2486
 1465TIP3    H225811   2.659   5.482  11.194 -2.7406 -0.3615 -1.4469
 1466TIP3   OH225812   1.858   0.430  16.155  0.3459 -0.3464 -0.1158
 1466TIP3    H125813   1.889   0.341  16.174 -1.6077 -0.8749  0.8782
 1466TIP3    H225814   1.862   0.475  16.240  1.3784  0.5578 -0.6253
 1467TIP3   OH225815   1.694   0.327   4.972 -0.6325  0.1203  0.0969
 1467TIP3    H125816   1.626   0.303   5.035  0.2783 -0.9559  0.7159
 1467TIP3    H225817   1.725   0.243   4.938 -0.2845  0.6384 -0.9192
 1468TIP3   OH225818   6.774   2.741  13.839  0.3805  0.1525 -0.8469
 1468TIP3    H125819   6.782   2.648  13.863 -0.3945  0.3040  0.0687
 1468TIP3    H225820   6.857   2.780  13.866  0.8296 -0.3211 -1.5073
 1469TIP3   OH225821   1.855   2.445  16.947 -0.3433 -0.2590 -0.1308
 1469TIP3    H125822   1.857   2.394  16.866  0.9315  0.6422 -0.6947
 1469TIP3    H225823   1.942   2.484  16.953 -0.9857  1.1052  0.7596
 1470TIP3   OH225824   4.483   1.172   6.267  0.0752  0.3862 -0.0411
 1470TIP3    H125825   4.400   1.151   6.224 -1.3325  1.8343  1.7918
 1470TIP3    H225826   4.478   1.127   6.351  0.7355  1.2156  0.4579
 1471TIP3   OH225827   3.192   6.339   3.556 -0.0692 -0.0375  0.3197
 1471TIP3    H125828   3.227   6.428   3.570 -0.2198  0.0154  0.3611
 1471TIP3    H225829   3.257   6.282   3.597 -1.1229  0.1787  2.4546
 1472TIP3   OH225830   5.628   6.306   4.674 -0.3585  0.5907  0.0695
 1472TIP3    H125831   5.667   6.362   4.607 -0.2094 -1.2095 -1.4549
 1472TIP3    H225832   5.688   6.231   4.679 -0.5223  0.5552  2.0625
 1473TIP3   OH225833   4.413   3.567   2.923 -0.2894 -0.6746 -0.1102
 1473TIP3    H125834   4.325   3.605   2.920  0.2083  0.4563 -1.3895
 1473TIP3    H225835   4.399   3.473   2.912 -1.3029 -0.4474 -0.9138
 1474TIP3   OH225836   1.966   6.176   4.585  0.3016 -0.2644 -0.0024
 1474TIP3    H125837   2.027   6.208   4.519  1.3056 -1.0115  0.5352
 1474TIP3    H225838   1.934   6.093   4.550 -1.8857  0.9827 -1.1473
 1475TIP3   OH225839   6.561   5.767   1.722 -0.0307 -0.4384 -0.2075
 1475TIP3    H125840   6.588   5.725   1.804 -1.5513  1.8337  1.6007
 1475TIP3    H225841   6.470   5.739   1.710 -0.2290  0.2463 -0.3656
 1476TIP3   OH225842   0.666   0.129  14.757 -0.0275 -0.1179 -0.3728
 1476TIP3    H125843   0.627   0.129  14.669 -1.2028 -2.1704  0.0788
 1476TIP3    H225844   0.728   0.056  14.755 -2.0538 -2.0411  1.2208
 1477TIP3   OH225845   5.977   0.849  15.731 -0.0801  0.6385 -0.1397
 1477TIP3    H125846   6.025   0.929  15.751  0.9212  0.1604 -0.5610
 1477TIP3    H225847   5.944   0.819  15.816 -0.4873  1.4986  0.0157
 1478TIP3   OH225848   5.195   6.402   2.004 -0.4604  0.0318  0.0884
 1478TIP3    H125849   5.215   6.347   1.928 -3.1389 -2.3499  0.8879
 1478TIP3    H225850   5.132   6.466   1.971  0.3128  0.6570 -0.1974
 1479TIP3   OH225851   2.446   1.299  13.140 -0.4185  0.1769 -0.1814
 1479TIP3    H125852   2.436   1.204  13.144 -2.5309  0.2855 -1.2018
 1479TIP3    H225853   2.475   1.316  13.050 -0.7422  0.5328 -0.2215
 1480TIP3   OH225854   3.414   5.176  12.517  0.2363 -0.3667  0.3165
 1480TIP3    H125855   3.486   5.239  12.511  0.0876 -0.3045 -1.3790
 1480TIP3    H225856   3.435   5.109  12.452 -1.6698  0.1531 -0.9328
 1481TIP3   OH225857   3.114   1.380   4.903  0.2485 -0.3103  0.1501
 1481TIP3    H125858   3.168   1.454   4.876 -0.1711  0.3470  1.0781
 1481TIP3    H225859   3.036   1.419   4.941  0.0857 -1.2202  0.7878
 1482TIP3   OH225860   0.807   3.427  13.573  0.4020 -0.4624 -0.5194
 1482TIP3    H125861   0.843   3.348  13.614 -0.8778 -0.6577  0.2738
 1482TIP3    H225862   0.852   3.499  13.616 -0.3388 -0.6942  0.6862
 1483TIP3   OH225863   4.387   4.711   5.905  0.6058  0.2838 -0.0684
 1483TIP3    H125864   4.343   4.739   5.825  0.9574 -1.9315 -1.1003
 1483TIP3    H225865   4.337   4.754   5.976 -1.2584  0.3383 -1.3349
 1484TIP3   OH225866   4.151   3.087  15.990  0.1609  0.2031  0.2199
 1484TIP3    H125867   4.152   3.020  16.058  1.8849 -0.0287  0.0141
 1484TIP3    H225868   4.071   3.136  16.006 -1.0791 -1.7994  0.4640
 1485TIP3   OH225869   4.341   4.389  16.208  0.7350 -0.4194  0.2488
 1485TIP3    H125870   4.388   4.435  16.278  1.0668 -0.3770  0.0035
 1485TIP3    H225871   4.264   4.352  16.251  0.9847 -0.4763  0.6559
 1486TIP3   OH225872   1.354   0.111  13.875 -0.6757  0.4230 -0.7584
 1486TIP3    H125873   1.415   0.048  13.836  0.0989  0.8146 -0.2227
 1486TIP3    H225874   1.268   0.070  13.869 -0.0032 -1.3575  0.9622
 1487TIP3   OH225875   6.121   3.122   6.098 -0.0594 -0.2294 -0.8715
 1487TIP3    H125876   6.031   3.112   6.069 -0.7069 -0.9827  1.2145
 1487TIP3    H225877   6.146   3.211   6.072 -1.3176 -0.0837 -1.6363
 1488TIP3   OH225878   5.824   1.230   4.072  0.2642 -0.4062 -0.0727
 1488TIP3    H125879   5.765   1.180   4.128 -1.2542  0.9997 -0.3248
 1488TIP3    H225880   5.775   1.310   4.051  1.6201  0.0686 -1.6699
 1489TIP3   OH225881   3.555   2.157   6.300 -0.0293  0.2256 -0.0495
 1489TIP3    H125882   3.633   2.203   6.332 -0.0423  1.2806 -1.4151
 1489TIP3    H225883   3.487   2.224   6.297 -0.2602 -0.0335 -1.3616
 1490TIP3   OH225884   5.428   0.737  13.570 -0.6831 -0.3012  0.2215
 1490TIP3    H125885   5.509   0.688  13.581 -0.7920 -0.5145  0.0947
 1490TIP3    H225886   5.364   0.690  13.624 -0.9738 -0.7634 -0.5056
 1491TIP3   OH225887   2.139   0.188  12.855 -0.0196  0.4464  0.5485
 1491TIP3    H125888   2.154   0.281  12.844 -2.3121  0.5817 -2.7907
 1491TIP3    H225889   2.044   0.179  12.854  0.1515 -2.0422 -0.9380
 1492TIP3   OH225890   6.103   2.300   3.586 -0.6635  0.1672 -0.7330
 1492TIP3    H125891   6.016   2.305   3.624 -0.9581 -0.9706 -1.2127
 1492TIP3    H225892   6.090   2.312   3.492 -0.5683 -1.7712 -1.0425
 1493TIP3   OH225893   5.420   5.329   2.599 -0.0922 -0.5677  0.0976
 1493TIP3    H125894   5.392   5.339   2.508 -0.0738  1.5512  0.2750
 1493TIP3    H225895   5.515   5.338   2.596 -0.0466 -0.9886  0.2734
 1494TIP3   OH225896   6.567   6.484  11.947 -0.0361  0.6131  0.1091
 1494TIP3    H125897   6.604   6.547  11.886  0.1758  1.3036  0.9423
 1494TIP3    H225898   6.524   6.537  12.013  0.2913 -0.1027  0.9126
 1495TIP3   OH225899   2.238   1.543   3.300 -0.0971 -0.1910 -0.0449
 1495TIP3    H125900   2.331   1.564   3.299 -0.6585  2.7505  0.2561
 1495TIP3    H225901   2.194   1.628   3.305 -2.8341 -1.4309 -0.9655
 1496TIP3   OH225902   6.291   3.519   0.493 -0.2191  0.3227 -0.0432
 1496TIP3    H125903   6.314   3.576   0.566  1.2070  0.1970 -0.3715
 1496TIP3    H225904   6.202   3.490   0.513  0.1443  0.2584  1.6637
 1497TIP3   OH225905   0.377   1.747   6.636 -0.2670  0.4782 -0.6775
 1497TIP3    H125906   0.427   1.799   6.573  0.6167 -0.5802 -0.8820
 1497TIP3    H225907   0.299   1.720   6.588 -0.3400  0.9361 -0.8235
 1498TIP3   OH225908   3.760   2.685  15.508  0.6853  0.1808 -0.1431
 1498TIP3    H125909   3.814   2.727  15.575 -0.0015 -0.1125  0.6054
 1498TIP3    H225910   3.728   2.757  15.455  1.0188  0.4389 -0.0023
 1499TIP3   OH225911   0.515   2.820  12.752 -0.5240  0.0969  0.5913
 1499TIP3    H125912   0.438   2.765  12.735 -0.7455  0.5490  0.1171
 1499TIP3    H225913   0.493   2.905  12.714  0.4864  0.0322 -0.1828
 1500TIP3   OH225914   2.828   6.476   5.139 -0.2876 -0.0931 -0.7394
 1500TIP3    H125915   2.897   6.496   5.203 -1.9083  0.1575  1.0199
 1500TIP3    H225916   2.873   6.426   5.071  1.2225 -2.0595  1.5178
 1501TIP3   OH225917   5.299   6.273  16.133  0.2705 -0.1700 -1.3769
 1501TIP3    H125918   5.391   6.253  16.148  0.0586 -1.7658 -1.9798
 1501TIP3    H225919   5.300   6.347  16.073  1.1175  1.6966  0.8009
 1502TIP3   OH225920   5.736   4.473  14.206 -0.0674 -0.4702 -0.2284
 1502TIP3    H125921   5.799   4.543  14.218 -0.6518  0.0299 -0.0039
 1502TIP3    H225922   5.657   4.516  14.173 -0.7080 -0.8829  0.6887
 1503TIP3   OH225923   1.944   5.826   0.073  0.5216 -0.5467 -0.1300
 1503TIP3    H125924   1.859   5.854   0.041  0.9368  1.5974  0.4666
 1503TIP3    H225925   2.003   5.897   0.049  1.6157 -0.7281  1.8167
 1504TIP3   OH225926   2.912   4.141   1.538 -0.8970  0.1200 -0.0748
 1504TIP3    H125927   2.930   4.232   1.511 -0.1247 -0.6992 -2.6106
 1504TIP3    H225928   2.995   4.109   1.572 -1.2190  0.3851  1.0008
 1505TIP3   OH225929   5.418   0.158   1.700 -0.1754  0.7669  0.0123
 1505TIP3    H125930   5.339   0.212   1.700 -0.2705  0.7191 -2.2196
 1505TIP3    H225931   5.391   0.076   1.741 -0.9303  1.2063  0.4256
 1506TIP3   OH225932   3.346   6.688  16.056  0.1893 -0.0975  0.1847
 1506TIP3    H125933   3.431   6.646  16.070  0.5344  0.0636 -1.2556
 1506TIP3    H225934   3.286   6.615  16.043  0.7550 -0.2373 -2.1283
 1507TIP3   OH225935   1.122   1.393  16.814  0.2775  0.0867 -0.1698
 1507TIP3    H125936   1.156   1.475  16.849  0.3391 -0.1309  0.2805
 1507TIP3    H225937   1.083   1.349  16.889  2.0562 -1.2177  0.0506
 1508TIP3   OH225938   3.899   6.638  10.914  0.5377 -0.0256 -0.0700
 1508TIP3    H125939   3.885   6.679  11.000 -0.1591  0.6927 -0.5066
 1508TIP3    H225940   3.975   6.684  10.878 -0.0490  0.6950 -0.4260
 1509TIP3   OH225941   6.185   1.093  14.369 -0.0806 -0.2122 -0.2767
 1509TIP3    H125942   6.094   1.099  14.395 -0.2882 -0.4606 -0.9156
 1509TIP3    H225943   6.214   1.007  14.398 -0.0103 -0.0802  0.0440
 1510TIP3   OH225944   4.833   0.771   3.025 -0.1400  0.3625 -0.1128
 1510TIP3    H125945   4.874   0.688   3.048  0.4577  0.9414  0.9697
 1510TIP3    H225946   4.878   0.836   3.078  2.1483  2.0123 -3.6898
 1511TIP3   OH225947   3.664   1.585   1.118 -0.6509  0.1104 -0.5299
 1511TIP3    H125948   3.704   1.617   1.037 -1.6315 -0.0020 -1.0800
 1511TIP3    H225949   3.642   1.494   1.099  0.8588 -0.5184  0.5473
 1512TIP3   OH225950   0.303   6.779  14.676  0.2904  0.4096  0.0140
 1512TIP3    H125951   0.232   6.716  14.684  2.7058 -2.2974  1.8634
 1512TIP3    H225952   0.338   6.788  14.765  0.8172  3.5487 -0.3816
 1513TIP3   OH225953   5.949   6.241   2.447 -0.3703 -0.2060  0.5883
 1513TIP3    H125954   5.884   6.176   2.474  1.5538 -1.9229  1.3752
 1513TIP3    H225955   5.987   6.204   2.367 -0.8212  1.1445 -0.2899
 1514TIP3   OH225956   3.087   5.122   4.436  0.0031 -0.2298 -0.6734
 1514TIP3    H125957   3.025   5.049   4.440 -0.2191 -0.0844 -1.3050
 1514TIP3    H225958   3.031   5.200   4.428  0.2782 -0.1420 -1.7916
 1515TIP3   OH225959   5.766   0.136  14.957  0.2329  0.6706  0.0331
 1515TIP3    H125960   5.702   0.077  14.918  0.3643  2.6328 -3.6726
 1515TIP3    H225961   5.832   0.079  14.996 -0.8060 -1.5726 -1.3190
 1516TIP3   OH225962   2.680   5.780  14.203 -0.4814  0.0363 -0.2505
 1516TIP3    H125963   2.691   5.868  14.167  2.3716 -0.8065 -1.7969
 1516TIP3    H225964   2.666   5.794  14.297  1.5608  2.1361 -0.1608
 1517TIP3   OH225965   4.985   3.673   0.778 -0.2652  0.0999 -0.1984
 1517TIP3    H125966   4.940   3.630   0.705  0.1330  1.0885 -1.0567
 1517TIP3    H225967   5.058   3.614   0.799  1.1767  0.9781 -2.3474
 1518TIP3   OH225968   6.272   6.086   1.146  0.1558  0.0112 -0.7783
 1518TIP3    H125969   6.355   6.132   1.133  2.3736 -2.6963  2.0113
 1518TIP3    H225970   6.290   5.996   1.116 -2.2841 -0.3353 -1.4190
 1519TIP3   OH225971   5.089   1.125   2.436 -0.1296  0.1625  0.0642
 1519TIP3    H125972   5.131   1.042   2.416  0.4888  0.1334  1.3733
 1519TIP3    H225973   5.158   1.190   2.427 -0.2060  0.3245  0.5824
 1520TIP3   OH225974   5.077   6.663   0.744 -0.3445  0.0434  0.0871
 1520TIP3    H125975   5.042   6.671   0.655 -2.2564  1.9473  0.9229
 1520TIP3    H225976   5.025   6.595   0.785  0.9580 -1.2877 -0.3689
 1521TIP3   OH225977   4.723   5.830  15.493  0.5368  0.2943 -0.0060
 1521TIP3    H125978   4.789   5.876  15.545  1.1003  0.0585 -0.5070
 1521TIP3    H225979   4.640   5.854  15.534  0.9480  0.3791  0.7998
 1522TIP3   OH225980   5.597   4.254   0.518 -0.2966  0.1755 -0.2030
 1522TIP3    H125981   5.599   4.169   0.474 -1.2007  0.1701 -0.2605
 1522TIP3    H225982   5.687   4.286   0.513  0.0618 -0.7914 -0.1419
 1523TIP3   OH225983   2.673   1.292  16.159 -0.2535  0.5862 -0.3815
 1523TIP3    H125984   2.650   1.311  16.250  0.7573  0.5809 -0.1148
 1523TIP3    H225985   2.635   1.365  16.109 -1.2589  0.3250 -0.0343
 1524TIP3   OH225986   6.652   5.244  16.689 -0.3881  0.0601  0.5992
 1524TIP3    H125987   6.723   5.236  16.626  0.3394  1.2870  1.2134
 1524TIP3    H225988   6.574   5.213  16.642  0.1903  0.5981 -0.7686
 1525TIP3   OH225989   3.685   2.447   1.039  0.2456  0.1199  0.3085
 1525TIP3    H125990   3.594   2.477   1.048  0.1766 -0.0723  0.2703
 1525TIP3    H225991   3.738   2.524   1.060  0.0749  0.4979 -0.6227
 1526TIP3   OH225992   1.903   4.857   4.848  0.7691 -0.0414  0.0768
 1526TIP3    H125993   1.924   4.948   4.830  0.5038 -0.0392 -0.2365
 1526TIP3    H225994   1.933   4.810   4.770 -1.0782  0.0609 -0.7568
 1527TIP3   OH225995   0.963   0.009   2.410 -0.2450  0.7183  0.2985
 1527TIP3    H125996   0.987   0.087   2.460 -0.2761  0.4251  0.7693
 1527TIP3    H225997   0.884  -0.024   2.453 -0.9925  1.1581 -0.6873
 1528TIP3   OH225998   2.186   5.669   2.810  0.4666  0.2501  0.3315
 1528TIP3    H125999   2.153   5.755   2.783  1.0091  0.4480  0.2925
 1528TIP3    H226000   2.245   5.687   2.883  0.1696 -0.1456  0.6790
 1529TIP3   OH226001   0.177   3.501  14.767 -0.3680 -0.4714  0.6248
 1529TIP3    H126002   0.237   3.574  14.749  1.0498 -1.2555  1.9298
 1529TIP3    H226003   0.111   3.506  14.698  1.5691  0.0437 -1.2828
 1530TIP3   OH226004   5.211   1.470  11.162 -0.1259 -0.6631 -0.3311
 1530TIP3    H126005   5.188   1.495  11.072 -0.0271 -1.1894 -0.5080
 1530TIP3    H226006   5.191   1.377  11.166  0.5877 -0.8083 -0.0412
 1531TIP3   OH226007   4.492   3.782  13.675  0.0163 -0.2440 -0.7171
 1531TIP3    H126008   4.419   3.806  13.618 -1.5747  1.4506  1.8031
 1531TIP3    H226009   4.450   3.749  13.755  1.9061  1.5283  1.1441
 1532TIP3   OH226010   1.954   3.917  10.894 -0.1514  0.3079  0.3146
 1532TIP3    H126011   1.931   4.010  10.885 -0.0450  0.5543  2.2329
 1532TIP3    H226012   2.046   3.913  10.869 -0.6099  0.3820 -1.5030
 1533TIP3   OH226013   6.041   5.296   1.682 -0.2288  0.8731  0.3912
 1533TIP3    H126014   6.010   5.386   1.671  0.0685  1.1689  1.7199
 1533TIP3    H226015   5.990   5.244   1.620 -0.4758  1.9389 -0.3202
 1534TIP3   OH226016   5.515   6.310   5.435  0.1664  0.1067 -0.4264
 1534TIP3    H126017   5.539   6.223   5.402 -2.9138 -0.9783 -0.1199
 1534TIP3    H226018   5.516   6.367   5.358  1.3993 -0.3697 -0.7798
 1535TIP3   OH226019   3.335   0.310   5.743 -0.4741 -0.1393 -0.0120
 1535TIP3    H126020   3.326   0.215   5.736 -0.1545 -0.1316 -0.6107
 1535TIP3    H226021   3.426   0.328   5.718 -0.3359  0.2701  0.7222
 1536TIP3   OH226022   5.623   2.243  14.791  1.4292 -0.0174  0.5320
 1536TIP3    H126023   5.672   2.197  14.859  1.6184  1.9000  1.7402
 1536TIP3    H226024   5.619   2.334  14.820 -2.8751 -0.0212  0.5263
 1537TIP3   OH226025   4.704   6.586  13.403 -0.3303  0.5627  0.0912
 1537TIP3    H126026   4.761   6.643  13.352  0.9505  1.2692  2.1756
 1537TIP3    H226027   4.628   6.571  13.347  0.9334  1.3559 -1.9304
 1538TIP3   OH226028   1.362   4.118  13.431  0.2269  0.3105  0.4725
 1538TIP3    H126029   1.433   4.115  13.367  0.2202  1.6108  0.3919
 1538TIP3    H226030   1.391   4.181  13.496 -0.0994 -0.4486  1.3699
 1539TIP3   OH226031   6.058   3.675   4.334 -0.5761  0.5637  0.4460
 1539TIP3    H126032   5.980   3.683   4.390 -0.3198 -1.6972  1.2089
 1539TIP3    H226033   6.024   3.686   4.245 -2.3044 -2.8010  0.5455
 1540TIP3   OH226034   5.411   3.550  15.355  0.3251  0.6699  0.0954
 1540TIP3    H126035   5.446   3.497  15.284 -1.2838 -0.5774  0.1859
 1540TIP3    H226036   5.358   3.617  15.311  1.5943  1.6896  0.0331
 1541TIP3   OH226037   3.989   3.426   0.779 -0.3759  0.2756 -0.3974
 1541TIP3    H126038   3.929   3.351   0.779 -1.2554  0.9142  1.9771
 1541TIP3    H226039   4.025   3.428   0.867 -0.2980  2.6077 -0.4365
 1542TIP3   OH226040   4.889   5.729  11.930 -0.0768 -0.3556  0.4692
 1542TIP3    H126041   4.906   5.637  11.949  1.8999 -0.0113  0.5454
 1542TIP3    H226042   4.972   5.763  11.899 -0.9026  1.3070 -0.0344
 1543TIP3   OH226043   4.682   3.024   0.276  0.2627  0.2584 -0.4829
 1543TIP3    H126044   4.675   2.955   0.211 -0.2333  1.5035 -1.8156
 1543TIP3    H226045   4.624   3.094   0.243 -0.9090  0.5054  1.8668
 1544TIP3   OH226046   0.882   5.490  11.877 -0.5824 -0.3164  0.0565
 1544TIP3    H126047   0.857   5.399  11.894  0.0270 -0.3886  0.5711
 1544TIP3    H226048   0.973   5.497  11.906 -0.8769  0.6694  0.7917
 1545TIP3   OH226049   5.690   3.881  12.118 -0.2433 -0.0129 -0.3009
 1545TIP3    H126050   5.632   3.934  12.064 -0.1026 -0.2459 -0.6880
 1545TIP3    H226051   5.710   3.805  12.063  0.4554  0.0827 -0.1878
 1546TIP3   OH226052   1.875   5.818  12.253  0.4156  0.1198 -0.7330
 1546TIP3    H126053   1.803   5.826  12.190 -0.3470 -1.7854 -0.1934
 1546TIP3    H226054   1.936   5.756  12.212 -1.1011 -2.8492  1.1122
 1547TIP3   OH226055   5.779   4.783  16.898  0.3634  0.0623  0.4007
 1547TIP3    H126056   5.795   4.822  16.812  0.2908 -0.0418  0.3409
 1547TIP3    H226057   5.745   4.695  16.879 -1.2374  0.6333  0.5142
 1548TIP3   OH226058   6.498   5.639  15.244  0.2555 -0.0702 -0.1247
 1548TIP3    H126059   6.496   5.570  15.311 -0.7643  1.3358  1.3636
 1548TIP3    H226060   6.591   5.656  15.232  0.4777  0.4127  1.8251
 1549TIP3   OH226061   3.846   6.118  10.058 -0.5348  0.4332  0.2733
 1549TIP3    H126062   3.882   6.203  10.083  0.7423  0.3887 -1.1995
 1549TIP3    H226063   3.833   6.125   9.964 -0.3673 -1.0030  0.1241
 1550TIP3   OH226064   4.760   2.470   6.364  0.4085 -0.1920  0.1817
 1550TIP3    H126065   4.677   2.423   6.369 -0.0247  0.4854 -0.4916
 1550TIP3    H226066   4.825   2.402   6.345  0.3056 -1.0120  2.4556
 1551TIP3   OH226067   0.775   0.965  13.806  0.4743 -0.0669 -1.1176
 1551TIP3    H126068   0.829   0.989  13.882 -1.4400  1.5804 -0.1699
 1551TIP3    H226069   0.794   1.033  13.741 -0.2111  0.3377 -0.8989
 1552TIP3   OH226070   2.002   1.995   0.489 -0.1743 -0.2116 -0.2503
 1552TIP3    H126071   1.968   2.075   0.448  1.4090  0.4415 -0.3685
 1552TIP3    H226072   1.932   1.968   0.549  0.2051  2.8030  1.8186
 1553TIP3   OH226073   0.054   6.254  11.742  0.3923 -1.1939  0.0481
 1553TIP3    H126074   0.078   6.343  11.718  1.1308 -1.3940  0.0052
 1553TIP3    H226075   0.040   6.209  11.659 -0.5402 -0.9777  0.0800
 1554TIP3   OH226076   5.946   5.627  13.761 -0.3973  0.5816 -0.8156
 1554TIP3    H126077   5.920   5.551  13.814 -1.5728  0.2000 -1.8769
 1554TIP3    H226078   6.028   5.656  13.800  0.0740 -1.2152 -0.3426
 1555TIP3   OH226079   0.073   3.481   2.404 -0.1370 -0.0232  0.6417
 1555TIP3    H126080  -0.021   3.461   2.406  0.0872 -1.1594  2.2398
 1555TIP3    H226081   0.078   3.574   2.423 -1.0371  0.7885 -2.5970
 1556TIP3   OH226082   5.332   6.609   5.720 -0.0124 -0.7368  0.0291
 1556TIP3    H126083   5.298   6.594   5.808 -1.1125 -0.3057 -0.3029
 1556TIP3    H226084   5.270   6.565   5.662  2.0725 -3.2971 -0.4659
 1557TIP3   OH226085   4.690   6.745   2.780 -0.3004  0.5844  0.1020
 1557TIP3    H126086   4.600   6.771   2.761 -0.2926  0.0617 -0.7065
 1557TIP3    H226087   4.723   6.710   2.697  1.3341  2.6400 -0.1896
 1558TIP3   OH226088   5.272   3.295   4.028 -0.1859  0.5204  0.6052
 1558TIP3    H126089   5.303   3.368   4.082  0.7087 -0.3750  1.3322
 1558TIP3    H226090   5.223   3.337   3.957  0.1239  1.8128  1.1283
 1559TIP3   OH226091   4.942   2.768  16.729  0.6128 -0.1981 -0.0797
 1559TIP3    H126092   4.875   2.705  16.756  1.1037 -1.6331 -1.9879
 1559TIP3    H226093   4.961   2.746  16.638  0.6236  2.9447 -0.9557
 1560TIP3   OH226094   0.388   1.068  11.471 -0.6450  0.0487 -0.1052
 1560TIP3    H126095   0.371   1.036  11.559 -1.7893 -0.0398 -0.3344
 1560TIP3    H226096   0.482   1.059  11.459  0.0230  2.6956  2.1277
 1561TIP3   OH226097   3.271   0.901  11.823 -0.2728  0.2139 -0.4255
 1561TIP3    H126098   3.299   0.896  11.731 -1.8369  0.1491 -0.9146
 1561TIP3    H226099   3.234   0.815  11.841 -1.3856  0.7273 -0.2132
 1562TIP3   OH226100   4.741   4.688   3.028  0.2118  0.5721  0.4028
 1562TIP3    H126101   4.732   4.729   2.942  2.1798 -0.5260 -0.3860
 1562TIP3    H226102   4.746   4.762   3.089 -1.4342  1.3563 -0.3679
 1563TIP3   OH226103   1.173   3.552   3.920  0.5882 -0.0713 -0.1259
 1563TIP3    H126104   1.145   3.517   3.835 -0.4506  0.0796  0.1359
 1563TIP3    H226105   1.244   3.494   3.948 -1.0150 -1.9667  0.2539
 1564TIP3   OH226106   2.822   3.266  13.370  0.6532  0.4076 -0.3800
 1564TIP3    H126107   2.860   3.218  13.444  0.8237 -0.1512 -0.8188
 1564TIP3    H226108   2.875   3.345  13.363  1.3349 -0.0536 -0.5778
 1565TIP3   OH226109   3.502   2.039  14.922 -0.2055 -0.0236 -0.0858
 1565TIP3    H126110   3.494   2.106  14.990 -1.3977 -2.8063  2.7431
 1565TIP3    H226111   3.424   2.050  14.868 -0.4671  0.7668  0.4341
 1566TIP3   OH226112   3.960   1.159  15.327 -0.7060 -0.1087  0.2818
 1566TIP3    H126113   3.997   1.082  15.370 -1.7460 -0.6129  0.2930
 1566TIP3    H226114   4.030   1.188  15.268  0.2366 -0.1840  1.3268
 1567TIP3   OH226115   3.308   2.884  17.163 -0.0119 -0.5898 -0.3719
 1567TIP3    H126116   3.369   2.957  17.161  0.5099 -1.0345 -1.0309
 1567TIP3    H226117   3.316   2.849  17.252 -1.7222  1.3325  0.6247
 1568TIP3   OH226118   4.776   0.255  16.405 -0.0383  0.0167 -0.1475
 1568TIP3    H126119   4.847   0.199  16.436  0.5630  0.1104 -1.3097
 1568TIP3    H226120   4.754   0.220  16.319 -1.6309 -0.1975  0.3219
 1569TIP3   OH226121   3.264   6.782   1.202 -0.0064  0.0953  0.3052
 1569TIP3    H126122   3.191   6.765   1.142 -0.0498  2.8127 -0.5244
 1569TIP3    H226123   3.342   6.774   1.148  0.0359  1.1675  0.1890
 1570TIP3   OH226124   2.541   2.412   2.899 -0.1604  0.2543 -1.0381
 1570TIP3    H126125   2.464   2.428   2.954  0.1198 -1.5459 -0.0440
 1570TIP3    H226126   2.507   2.370   2.821 -0.2331 -0.3924 -0.6698
 1571TIP3   OH226127   1.786   3.364  14.866 -0.0054 -0.1830  0.5058
 1571TIP3    H126128   1.752   3.276  14.852 -0.9319 -0.0028  1.5358
 1571TIP3    H226129   1.721   3.422  14.824  0.8345  0.0101 -0.5826
 1572TIP3   OH226130   1.086   6.375  15.954 -0.1607 -0.8156  0.0261
 1572TIP3    H126131   1.007   6.427  15.936  1.4342  0.8408 -2.8235
 1572TIP3    H226132   1.054   6.301  16.006 -3.6759 -0.4174 -1.2849
 1573TIP3   OH226133   2.694   4.477  12.477  0.2486  0.3229 -0.1804
 1573TIP3    H126134   2.671   4.387  12.453  1.9242  0.1459 -1.3151
 1573TIP3    H226135   2.705   4.474  12.572  3.3663 -1.5357 -0.4501
 1574TIP3   OH226136   2.785   0.649   2.936 -0.3308  0.0236 -0.1005
 1574TIP3    H126137   2.859   0.680   2.884  0.5421 -0.8780  0.5609
 1574TIP3    H226138   2.784   0.554   2.922  1.6306 -0.7232  3.4631
 1575TIP3   OH226139   3.291   1.025  13.111 -0.0546 -0.2967 -0.1751
 1575TIP3    H126140   3.323   1.116  13.111  0.0049 -0.3176 -0.7273
 1575TIP3    H226141   3.295   0.999  13.203 -0.5126  0.4135  0.0560
 1576TIP3   OH226142   0.429   2.793   3.947 -0.0673 -0.3884  0.6198
 1576TIP3    H126143   0.501   2.750   3.993  0.6037 -0.2210 -0.2231
 1576TIP3    H226144   0.439   2.886   3.969  1.5193  0.0060 -1.3756
 1577TIP3   OH226145   1.694   5.686  14.753 -0.3440  0.0803 -0.1099
 1577TIP3    H126146   1.754   5.692  14.679  0.7899  0.3263  0.8082
 1577TIP3    H226147   1.613   5.727  14.722  0.5187  1.3163 -0.7854
 1578TIP3   OH226148   4.386   4.741  11.721 -0.0246 -0.8070  0.4486
 1578TIP3    H126149   4.452   4.671  11.722  1.9734  0.8674 -1.8238
 1578TIP3    H226150   4.428   4.815  11.764 -2.1094 -0.8904  2.8122
 1579TIP3   OH226151   0.304   4.116  13.304 -0.0015 -0.6447  0.2241
 1579TIP3    H126152   0.259   4.035  13.282  1.3268 -1.3888  0.1127
 1579TIP3    H226153   0.235   4.182  13.307 -1.2011 -1.8653  0.8666
 1580TIP3   OH226154   3.928   5.489  11.154 -0.0429 -0.3807  0.6234
 1580TIP3    H126155   3.854   5.525  11.204 -0.7757 -0.1338 -0.5740
 1580TIP3    H226156   3.889   5.464  11.070  1.3226  0.1731 -0.2016
 1581TIP3   OH226157   3.963   2.829   5.577 -0.2272  0.4450 -0.0385
 1581TIP3    H126158   4.044   2.866   5.543 -0.1502  0.2507 -0.0657
 1581TIP3    H226159   3.894   2.881   5.535 -0.1353  0.1656 -0.5423
 1582TIP3   OH226160   0.667   1.289   2.362 -0.1761  0.5765 -0.2575
 1582TIP3    H126161   0.617   1.347   2.420 -0.7065  0.7421 -0.8654
 1582TIP3    H226162   0.710   1.348   2.300 -1.4521  0.3058 -1.4544
 1583TIP3   OH226163   1.073   4.049   1.838 -0.0602  0.0768 -0.2173
 1583TIP3    H126164   1.113   4.079   1.919 -0.8262 -1.3295  0.7296
 1583TIP3    H226165   1.080   3.954   1.842 -2.5297 -0.1743 -0.4820
 1584TIP3   OH226166   5.033   6.764   5.434 -0.2058  0.6004 -0.2447
 1584TIP3    H126167   5.008   6.706   5.506 -0.7953 -0.0669 -0.9726
 1584TIP3    H226168   5.032   6.708   5.357  3.9687  0.3846 -0.3540
 1585TIP3   OH226169   5.753   1.123  12.408  0.0864  0.2688 -0.0523
 1585TIP3    H126170   5.700   1.064  12.462  0.8095 -1.1615 -0.8530
 1585TIP3    H226171   5.708   1.124  12.323  0.1345  0.8029 -0.0748
 1586TIP3   OH226172   1.061   4.970  12.180  0.5223  0.3769  0.2211
 1586TIP3    H126173   0.965   4.971  12.177  0.5435  0.2059 -1.5425
 1586TIP3    H226174   1.084   4.877  12.176  0.7561  0.4750 -2.0054
 1587TIP3   OH226175   3.854   4.690  15.852  0.0476  0.5296  0.1326
 1587TIP3    H126176   3.778   4.741  15.881  1.2879  1.9259  1.0816
 1587TIP3    H226177   3.860   4.708  15.758 -0.9305  0.1649 -0.0230
 1588TIP3   OH226178   2.454   5.401   4.913  0.2429 -0.1721  0.0398
 1588TIP3    H126179   2.421   5.311   4.912  2.0847 -0.9897  2.2777
 1588TIP3    H226180   2.420   5.438   4.995 -0.4405  1.1843 -0.8253
 1589TIP3   OH226181   4.258   5.747  13.841 -0.0498  0.0629 -0.0488
 1589TIP3    H126182   4.298   5.815  13.896  1.8273 -0.3821 -0.7714
 1589TIP3    H226183   4.195   5.704  13.898  0.4475  0.8681  1.1608
 1590TIP3   OH226184   1.688   4.646   5.003 -0.3844 -0.2635 -0.4484
 1590TIP3    H126185   1.780   4.630   5.024 -0.5256  0.1363  0.5316
 1590TIP3    H226186   1.683   4.634   4.908  1.0150  1.2975 -0.7633
 1591TIP3   OH226187   0.419   0.731   6.124  0.1081  0.0376 -0.4142
 1591TIP3    H126188   0.431   0.751   6.217 -2.7675  2.2434 -0.3574
 1591TIP3    H226189   0.352   0.661   6.124 -1.1295  1.1839 -0.7720
 1592TIP3   OH226190   1.707   6.079  16.662  0.5566  0.1858 -0.1625
 1592TIP3    H126191   1.699   6.174  16.670 -2.0364 -0.0680  1.1384
 1592TIP3    H226192   1.750   6.052  16.743  0.5796  0.1826 -0.1763
 1593TIP3   OH226193   3.122   4.204  16.786  0.0920  0.4417 -0.4942
 1593TIP3    H126194   3.197   4.228  16.840 -0.1060 -0.4910  0.2255
 1593TIP3    H226195   3.150   4.221  16.696  1.1321  0.1983 -0.2272
 1594TIP3   OH226196   3.414   5.086  13.248 -0.3921 -0.0341  0.2649
 1594TIP3    H126197   3.393   5.179  13.246  0.7527  0.2313 -0.3744
 1594TIP3    H226198   3.504   5.081  13.218 -0.6599 -1.4163 -0.4139
 1595TIP3   OH226199   4.510   4.608  15.805  0.3609 -0.3576  0.5906
 1595TIP3    H126200   4.418   4.599  15.830  0.5458 -0.6774  1.1956
 1595TIP3    H226201   4.555   4.543  15.860  0.7017 -1.6595 -1.1339
 1596TIP3   OH226202   2.981   4.244  15.362  0.0236  0.8189  0.2094
 1596TIP3    H126203   2.891   4.276  15.358  0.3421  1.7327  0.1414
 1596TIP3    H226204   3.033   4.312  15.318  0.6349 -0.1118 -0.5451
 1597TIP3   OH226205   0.793   5.129   4.961 -0.3440  0.5448  0.1420
 1597TIP3    H126206   0.712   5.177   4.980 -0.4603 -0.0551  1.2301
 1597TIP3    H226207   0.863   5.184   4.995 -0.5289 -0.3658  2.1565
 1598TIP3   OH226208   1.930   5.397  12.511  0.1435  0.1187  0.2543
 1598TIP3    H126209   1.962   5.335  12.577 -0.1000  0.1072  0.3629
 1598TIP3    H226210   1.865   5.348  12.461  0.3494  0.1185 -0.0164
 1599TIP3   OH226211   5.958   5.718  12.397 -0.3619  0.4124 -0.0452
 1599TIP3    H126212   5.977   5.779  12.468 -0.3448  0.2529  0.0875
 1599TIP3    H226213   5.941   5.774  12.321  2.6667  0.5610 -0.7321
 1600TIP3   OH226214   6.260   4.092  13.779  0.5180 -0.4390 -0.2849
 1600TIP3    H126215   6.313   4.027  13.826 -0.1015 -0.7674 -0.0409
 1600TIP3    H226216   6.279   4.175  13.823 -0.5201 -0.8335  0.9522
 1601TIP3   OH226217   3.304   4.471  12.509 -0.6078 -0.1834  0.0614
 1601TIP3    H126218   3.212   4.464  12.535 -0.2042 -1.4420  1.2506
 1601TIP3    H226219   3.300   4.482  12.414 -2.0263  1.4629  0.2594
 1602TIP3   OH226220   1.424   5.593  10.849  0.2496  0.1329 -0.7135
 1602TIP3    H126221   1.512   5.628  10.857  0.7756 -1.0317 -1.0874
 1602TIP3    H226222   1.380   5.651  10.788  0.9852  0.3365 -1.0622
 1603TIP3   OH226223   2.316   2.582  15.712  0.1555 -0.4511  0.1875
 1603TIP3    H126224   2.273   2.582  15.627  0.0676 -0.7503  0.2276
 1603TIP3    H226225   2.300   2.669  15.748  0.2764 -0.2925 -0.1425
 1604TIP3   OH226226   1.887   4.924   6.571  0.2938  0.3275 -0.0036
 1604TIP3    H126227   1.928   4.838   6.583  0.4675  0.5482  1.1252
 1604TIP3    H226228   1.918   4.953   6.485  1.7684  0.0845  0.4089
 1605TIP3   OH226229   3.818   2.599  12.891 -0.1430 -0.5859 -0.2660
 1605TIP3    H126230   3.815   2.571  12.982  1.8567  2.6707  0.9541
 1605TIP3    H226231   3.774   2.684  12.890  0.5315 -0.2105 -2.1934
 1606TIP3   OH226232   1.895   1.612   1.977 -0.1478  0.0937 -0.2981
 1606TIP3    H126233   1.891   1.666   1.898  0.8365 -0.1936 -0.5562
 1606TIP3    H226234   1.944   1.664   2.040  0.0850 -0.1571 -0.2703
 1607TIP3   OH226235   6.331   6.483  12.855 -0.5308  0.4579  0.1043
 1607TIP3    H126236   6.336   6.417  12.786  0.6266  1.5216 -0.8447
 1607TIP3    H226237   6.383   6.447  12.927 -1.0326 -0.2580  0.1220
 1608TIP3   OH226238   1.924   6.706  14.285  0.6431 -0.4338 -0.5614
 1608TIP3    H126239   1.892   6.632  14.234  1.7592 -1.6981  0.4907
 1608TIP3    H226240   1.908   6.681  14.376  1.3241  0.4738 -0.1717
 1609TIP3   OH226241   5.488   6.092   0.275  0.6724 -0.5663 -0.1663
 1609TIP3    H126242   5.397   6.068   0.253  0.9961 -1.6106 -0.4319
 1609TIP3    H226243   5.483   6.124   0.365 -0.0495 -0.0226 -0.3838
 1610TIP3   OH226244   5.146   0.911  11.823 -0.1433  0.0553 -0.0095
 1610TIP3    H126245   5.107   0.839  11.873 -0.6640 -1.0538 -1.9320
 1610TIP3    H226246   5.240   0.898  11.832 -0.2278 -0.3522  0.3505
 1611TIP3   OH226247   2.516   0.249   4.373  0.1872 -0.3723 -0.7277
 1611TIP3    H126248   2.432   0.242   4.327 -0.3870  1.5133 -0.0628
 1611TIP3    H226249   2.576   0.197   4.321 -1.1832 -1.0042 -1.7481
 1612TIP3   OH226250   4.811   4.239   3.364 -0.0281 -0.0339  0.3572
 1612TIP3    H126251   4.808   4.161   3.420  1.2651 -0.7561 -0.5288
 1612TIP3    H226252   4.724   4.277   3.371 -1.1296 -2.2925 -0.1821
 1613TIP3   OH226253   5.152   1.467  15.051 -0.0715 -0.0488  0.4793
 1613TIP3    H126254   5.122   1.507  14.969 -1.0139 -0.8492  0.3987
 1613TIP3    H226255   5.244   1.489  15.057 -0.5931  2.3897  0.6224
 1614TIP3   OH226256   1.807   2.580  15.477  0.9190  0.2448 -0.9658
 1614TIP3    H126257   1.745   2.650  15.455 -0.0785 -0.8844 -1.9358
 1614TIP3    H226258   1.755   2.519  15.530  2.7492  1.9460  3.2327
 1615TIP3   OH226259   4.318   0.370  13.311 -0.2697 -0.2260 -0.0169
 1615TIP3    H126260   4.238   0.358  13.362  0.4468  1.6743  1.6951
 1615TIP3    H226261   4.387   0.384  13.376  1.4396 -1.4624 -1.4400
 1616TIP3   OH226262   1.817   1.188   5.988 -0.4481 -0.2240  0.7558
 1616TIP3    H126263   1.760   1.145   5.924  0.7053 -0.9137  0.1591
 1616TIP3    H226264   1.836   1.274   5.950 -1.7811  0.3833  1.3828
 1617TIP3   OH226265   0.258   4.199  14.727  0.1790 -0.0158 -0.8743
 1617TIP3    H126266   0.252   4.143  14.650 -2.3120 -2.3640  0.8610
 1617TIP3    H226267   0.177   4.183  14.775  1.4427  1.6264  2.0700
 1618TIP3   OH226268   3.740   1.016  12.694  0.7297  0.2965  0.4802
 1618TIP3    H126269   3.646   1.031  12.684  0.5262 -1.1009  0.0633
 1618TIP3    H226270   3.781   1.089  12.649 -0.1702  0.6085  0.1452
 1619TIP3   OH226271   2.624   5.874   4.632  0.2190  0.0037  0.5641
 1619TIP3    H126272   2.565   5.914   4.569  1.5746 -0.3214 -0.9820
 1619TIP3    H226273   2.568   5.849   4.706 -1.6446 -0.7589 -1.0361
 1620TIP3   OH226274   0.642   2.694   2.173  0.0963 -0.5968  0.0074
 1620TIP3    H126275   0.680   2.715   2.258 -1.0114 -1.3986  0.7352
 1620TIP3    H226276   0.709   2.721   2.109  1.6519 -1.4819  1.1899
 1621TIP3   OH226277   4.893   0.281   4.559  0.2049 -0.2051 -0.2293
 1621TIP3    H126278   4.846   0.353   4.601 -0.4762 -0.4048 -0.6289
 1621TIP3    H226279   4.840   0.260   4.481  1.6900  0.4787 -1.4712
 1622TIP3   OH226280   1.725   6.427   0.342  0.2070  0.2694  0.2094
 1622TIP3    H126281   1.781   6.462   0.410 -0.6324  2.5465 -0.1916
 1622TIP3    H226282   1.741   6.483   0.266 -0.0829 -1.1933 -0.9804
 1623TIP3   OH226283   3.034   2.243  12.394 -0.1043 -0.0886  0.1799
 1623TIP3    H126284   2.983   2.285  12.463  1.5279  1.3761  0.5554
 1623TIP3    H226285   3.085   2.176  12.440  0.0625  0.0433  0.1862
 1624TIP3   OH226286   1.861   5.492  15.715  0.3710  0.1497 -0.2913
 1624TIP3    H126287   1.897   5.501  15.804 -0.3510 -0.0050  0.0270
 1624TIP3    H226288   1.937   5.493  15.658  0.9768 -1.3057  0.4450
 1625TIP3   OH226289   3.986   5.044   4.314  0.1192  0.0069  0.5984
 1625TIP3    H126290   4.042   4.968   4.301  0.7088  0.3089  1.2937
 1625TIP3    H226291   3.950   5.064   4.227 -1.1394 -1.8838  0.6259
 1626TIP3   OH226292   0.015   4.939  13.864  1.2181 -0.0709  0.4586
 1626TIP3    H126293  -0.057   4.967  13.920  1.1892 -1.8402  1.3609
 1626TIP3    H226294   0.027   5.012  13.803 -2.4786 -0.3958 -0.9023
 1627TIP3   OH226295   1.618   3.578   4.209  0.5438 -0.0296  0.1592
 1627TIP3    H126296   1.526   3.550   4.205  0.0431  1.1459  1.9751
 1627TIP3    H226297   1.667   3.496   4.214 -0.4348 -0.6766 -0.3407
 1628TIP3   OH226298   4.618   3.763   3.067  0.2894  1.1282  0.3702
 1628TIP3    H126299   4.579   3.690   3.019  0.6589 -0.0078  1.7136
 1628TIP3    H226300   4.543   3.816   3.094 -0.1715  0.2058  0.9691
 1629TIP3   OH226301   2.446   2.135  11.327  0.1752 -0.2415  0.1842
 1629TIP3    H126302   2.495   2.218  11.330 -0.1878  0.0094 -0.5554
 1629TIP3    H226303   2.369   2.155  11.273 -0.7762 -0.6142  1.3753
 1630TIP3   OH226304   1.183   0.800  14.946  0.7717  0.8309 -0.0620
 1630TIP3    H126305   1.246   0.746  14.994  0.8396  1.6943  0.8643
 1630TIP3    H226306   1.098   0.761  14.966  1.0357 -1.0942 -2.3088
 1631TIP3   OH226307   3.790   2.656   0.374 -0.1769 -0.1280  0.1392
 1631TIP3    H126308   3.843   2.598   0.319 -0.7110 -1.0960  0.6223
 1631TIP3    H226309   3.706   2.662   0.328  0.3063  1.3481 -0.5898
 1632TIP3   OH226310   0.446   0.508   4.864 -0.2662  0.0504  0.2741
 1632TIP3    H126311   0.357   0.535   4.887 -0.3261 -0.2752  0.4242
 1632TIP3    H226312   0.474   0.454   4.938  0.4899  1.1100  0.7753
 1633TIP3   OH226313   3.912   4.076  15.356  0.0192 -0.1487  0.4213
 1633TIP3    H126314   3.844   4.143  15.368 -0.9045 -1.2006  1.2910
 1633TIP3    H226315   3.994   4.121  15.375 -0.3327  1.3171 -1.2506
 1634TIP3   OH226316   4.239   5.518   2.149 -0.0448 -0.2630  0.0290
 1634TIP3    H126317   4.259   5.505   2.242  1.2686  0.4853 -0.1214
 1634TIP3    H226318   4.318   5.559   2.113 -0.1889 -1.3347 -1.6053
 1635TIP3   OH226319   3.328   3.922  14.273  0.0556  0.6328 -0.0813
 1635TIP3    H126320   3.238   3.954  14.281 -0.4912 -0.2638 -2.0353
 1635TIP3    H226321   3.377   3.975  14.335 -1.5826  2.1021  0.0646
 1636TIP3   OH226322   5.804   0.488   5.844  0.0434 -0.0986 -0.0762
 1636TIP3    H126323   5.845   0.448   5.920  0.5728 -1.7701 -1.2004
 1636TIP3    H226324   5.850   0.571   5.833  0.3581 -0.1094  1.0493
 1637TIP3   OH226325   4.298   2.435  13.679  0.0123  0.3645 -0.1049
 1637TIP3    H126326   4.374   2.378  13.690 -0.7189 -1.4739 -3.1225
 1637TIP3    H226327   4.233   2.401  13.740  0.0560 -1.2662 -0.9112
 1638TIP3   OH226328   0.115   1.424  11.507  0.0598 -0.3011 -0.3048
 1638TIP3    H126329   0.140   1.402  11.417  0.8263 -1.7674  0.2316
 1638TIP3    H226330   0.156   1.509  11.523  0.2476 -0.2082 -1.2033
 1639TIP3   OH226331   2.979   4.366   2.471 -0.2047 -0.7375 -0.1264
 1639TIP3    H126332   2.959   4.351   2.564  0.2465 -0.3849  0.0316
 1639TIP3    H226333   2.922   4.439   2.446 -0.1807 -0.7013 -0.0747
 1640TIP3   OH226334   0.838   1.218   4.363 -0.1599  0.3265 -0.0923
 1640TIP3    H126335   0.802   1.163   4.293  0.5788  3.0805 -2.8684
 1640TIP3    H226336   0.761   1.254   4.407 -0.6524 -0.9720  0.1435
 1641TIP3   OH226337   1.326   1.307  10.524  0.1430  0.3736  0.3447
 1641TIP3    H126338   1.359   1.371  10.462  2.5199 -1.8907 -0.9275
 1641TIP3    H226339   1.373   1.327  10.606  0.9540  0.2335 -0.0732
 1642TIP3   OH226340   2.800   4.210   0.534  0.6094 -0.8656  0.2182
 1642TIP3    H126341   2.886   4.249   0.548  1.9980 -3.1626 -1.0669
 1642TIP3    H226342   2.763   4.259   0.461  1.1529 -0.3022  0.3115
 1643TIP3   OH226343   0.719   5.344  11.442  0.3417 -0.4907 -0.7422
 1643TIP3    H126344   0.731   5.280  11.512 -0.0002 -0.7100 -0.8788
 1643TIP3    H226345   0.748   5.427  11.479  0.3465 -0.6407 -0.4082
 1644TIP3   OH226346   5.920   4.557   5.545  0.3359 -0.7348  0.2857
 1644TIP3    H126347   5.949   4.639   5.584  0.3410  0.2851 -1.7394
 1644TIP3    H226348   5.992   4.497   5.560  0.5463 -0.2451  1.3472
 1645TIP3   OH226349   3.657   2.601  16.448 -0.0886 -0.1126  0.0453
 1645TIP3    H126350   3.662   2.675  16.387 -0.6950  0.7269  0.9699
 1645TIP3    H226351   3.659   2.642  16.535  0.5888 -1.2639  0.5984
 1646TIP3   OH226352   4.877   6.060  15.226  0.1926 -0.3317  0.2225
 1646TIP3    H126353   4.904   5.997  15.159  0.0502 -0.0807 -0.0729
 1646TIP3    H226354   4.873   6.009  15.307  0.1629 -0.6827 -0.0002
 1647TIP3   OH226355   5.659   2.718   3.428  0.0961 -0.3405  0.1475
 1647TIP3    H126356   5.574   2.726   3.470  0.5974 -1.1170  1.3496
 1647TIP3    H226357   5.656   2.781   3.356 -0.2819  2.0515  2.1539
 1648TIP3   OH226358   2.588   3.693   3.464  0.3044  0.1454 -0.4472
 1648TIP3    H126359   2.610   3.722   3.376  1.0784  0.7010 -0.0895
 1648TIP3    H226360   2.619   3.763   3.521  0.9130 -0.7316  0.3419
 1649TIP3   OH226361   2.134   2.795  11.332 -0.3375 -0.8418 -0.5808
 1649TIP3    H126362   2.055   2.827  11.376 -0.7443 -1.0823 -1.1087
 1649TIP3    H226363   2.176   2.873  11.297  1.4534 -0.2966  2.4648
 1650TIP3   OH226364   4.000   2.933   0.058  0.1064 -0.2778  0.3934
 1650TIP3    H126365   3.931   2.993   0.030  0.2475  0.4234  1.4990
 1650TIP3    H226366   3.955   2.850   0.072  0.4416 -1.7768 -4.9443
 1651TIP3   OH226367   2.608   2.747  12.956  0.1937 -0.3844  0.4505
 1651TIP3    H126368   2.669   2.734  13.029 -1.7933  0.4165  2.3794
 1651TIP3    H226369   2.522   2.744  12.997 -0.9631  1.4474 -1.6796
 1652TIP3   OH226370   3.873   1.007   0.258 -0.2543  0.0968  0.0991
 1652TIP3    H126371   3.924   1.089   0.254 -0.1911  0.0834  0.5716
 1652TIP3    H226372   3.786   1.035   0.285 -0.5418  0.1345 -0.8458
 1653TIP3   OH226373   4.532   6.474  15.456  0.3247 -0.0439 -0.5697
 1653TIP3    H126374   4.562   6.453  15.367 -0.9340 -0.5468 -0.9025
 1653TIP3    H226375   4.602   6.526  15.493  1.0740 -0.1934 -1.7148
 1654TIP3   OH226376   6.227   0.407   2.798  0.1597  0.1841 -0.1191
 1654TIP3    H126377   6.202   0.365   2.880  1.4257  1.0378  0.7603
 1654TIP3    H226378   6.297   0.468   2.824 -0.0642  1.1519 -1.6846
 1655TIP3   OH226379   5.907   3.463  13.644  0.2247  0.0083  0.4715
 1655TIP3    H126380   5.992   3.425  13.623  0.1988  0.1972  0.0166
 1655TIP3    H226381   5.889   3.433  13.733  1.1037  0.5682  0.8525
 1656TIP3   OH226382   4.502   0.487  15.603 -0.2165 -0.0786  0.0521
 1656TIP3    H126383   4.409   0.511  15.600  0.0756  1.1364 -2.6437
 1656TIP3    H226384   4.509   0.409  15.549  0.2871 -0.4311  0.6074
 1657TIP3   OH226385   2.281   1.757  15.560  0.0207  0.2362 -0.0483
 1657TIP3    H126386   2.249   1.785  15.474  2.6284 -2.5310 -2.1508
 1657TIP3    H226387   2.325   1.833  15.596 -1.9268  1.7374 -0.6518
 1658TIP3   OH226388   3.031   4.690   4.317 -0.1079  0.2905 -0.0558
 1658TIP3    H126389   3.029   4.785   4.303 -1.6832  0.2743 -0.0345
 1658TIP3    H226390   2.940   4.666   4.332  0.2313 -1.2950 -0.4209
 1659TIP3   OH226391   4.719   6.049  16.783  0.2149  0.4826  0.5862
 1659TIP3    H126392   4.720   6.098  16.701 -2.6856  0.5528  0.4909
 1659TIP3    H226393   4.811   6.048  16.811  2.3463 -3.2655 -4.7429
 1660TIP3   OH226394   3.835   5.470   3.394  0.0119  0.0343  0.0858
 1660TIP3    H126395   3.776   5.530   3.347 -0.7030 -0.6442  0.1051
 1660TIP3    H226396   3.856   5.516   3.475 -1.7119 -0.3373  0.7821
 1661TIP3   OH226397   0.901   5.576   1.783  0.2048  0.0205 -0.0349
 1661TIP3    H126398   0.926   5.485   1.767 -2.3111 -0.3141 -2.9397
 1661TIP3    H226399   0.957   5.627   1.725 -1.1132 -0.1290 -1.5049
 1662TIP3   OH226400   5.572   3.059   3.836 -0.0864 -0.2043 -0.0867
 1662TIP3    H126401   5.665   3.046   3.855 -0.3477  0.3218  1.7068
 1662TIP3    H226402   5.526   2.999   3.895 -0.9058 -0.1649 -0.6634
 1663TIP3   OH226403   1.954   0.698  11.953  0.2021 -0.5047  0.0293
 1663TIP3    H126404   1.942   0.790  11.979  0.6038  0.0950 -1.7873
 1663TIP3    H226405   1.940   0.698  11.859 -0.5730 -2.4723  0.1030
 1664TIP3   OH226406   4.283   1.397  11.676  0.4157 -0.0966 -0.4791
 1664TIP3    H126407   4.343   1.333  11.638 -0.3869 -1.4783  0.5006
 1664TIP3    H226408   4.335   1.444  11.741  0.8114 -0.2697 -0.6709
 1665TIP3   OH226409   3.285   1.178  11.444  0.1905  0.0600  0.2865
 1665TIP3    H126410   3.211   1.177  11.383  0.5020  0.1995 -0.0956
 1665TIP3    H226411   3.306   1.085  11.457  0.1176  0.0288  0.1877
 1666TIP3   OH226412   2.525   0.557  12.958  0.5867 -0.0093  0.3890
 1666TIP3    H126413   2.479   0.547  13.041 -0.4895 -0.5402 -0.2560
 1666TIP3    H226414   2.487   0.490  12.901  0.7995  0.8243 -0.7640
 1667TIP3   OH226415   3.986   4.948   6.407 -0.4076  0.4401 -0.3294
 1667TIP3    H126416   3.893   4.969   6.399 -0.0250  2.3766 -0.1418
 1667TIP3    H226417   4.030   5.016   6.357  0.9229 -0.4600 -0.4207
 1668TIP3   OH226418   6.444   0.561   2.861 -0.1512 -0.1340 -0.0075
 1668TIP3    H126419   6.509   0.519   2.917  0.2996 -1.6892 -1.6005
 1668TIP3    H226420   6.495   0.594   2.787 -0.8410  1.1058  0.0553
 1669TIP3   OH226421   2.944   5.781  11.962 -0.1145  0.3197 -0.7278
 1669TIP3    H126422   2.867   5.783  12.018  0.4845 -1.3868  0.2354
 1669TIP3    H226423   2.931   5.705  11.906  1.3614 -0.7126  0.2529
 1670TIP3   OH226424   4.440   6.053  15.033  0.0278  0.4052  0.5587
 1670TIP3    H126425   4.486   5.974  15.004 -2.8976 -0.7593 -1.3668
 1670TIP3    H226426   4.508   6.106  15.076  2.1228 -3.0999  1.9969
 1671TIP3   OH226427   3.387   5.650   3.463  0.1323 -0.3873  0.2158
 1671TIP3    H126428   3.303   5.662   3.419  0.1829  1.2505  0.5124
 1671TIP3    H226429   3.369   5.591   3.536 -0.5622 -0.7405 -0.2316
 1672TIP3   OH226430   1.664   3.993  12.560  0.1548  0.5877 -0.3798
 1672TIP3    H126431   1.697   3.913  12.601  1.5903  1.2540 -0.1693
 1672TIP3    H226432   1.740   4.030  12.515 -0.7014  1.3814 -1.2248
 1673TIP3   OH226433   1.731   4.136   5.873  0.2104 -0.0070 -0.1957
 1673TIP3    H126434   1.738   4.054   5.824  4.0806  0.0221  0.0334
 1673TIP3    H226435   1.778   4.200   5.820 -0.2175  1.3631  1.0087
 1674TIP3   OH226436   4.377   6.555  12.219 -0.0916 -0.1942  0.1544
 1674TIP3    H126437   4.361   6.618  12.289 -0.2112 -0.1035  0.0445
 1674TIP3    H226438   4.473   6.549  12.214 -0.0547  0.8680 -0.6346
 1675TIP3   OH226439   4.336   5.986   2.982 -0.2974 -0.6631 -0.0836
 1675TIP3    H126440   4.244   6.008   2.965  0.0278  0.5669 -0.3072
 1675TIP3    H226441   4.386   6.044   2.925  0.6328 -1.4129 -0.0613
 1676TIP3   OH226442   6.370   0.759   3.286  0.1827  0.5567  0.0643
 1676TIP3    H126443   6.411   0.799   3.362 -2.2182  1.2607  1.0892
 1676TIP3    H226444   6.289   0.721   3.320 -0.5774  0.1818 -2.0109
 1677TIP3   OH226445   4.186   2.962  16.247  0.3602  0.1843 -0.0501
 1677TIP3    H126446   4.137   2.883  16.223 -0.5527  0.6809  0.1534
 1677TIP3    H226447   4.165   2.976  16.339  0.6247  0.5868 -0.0489
 1678TIP3   OH226448   4.206   1.996   4.979  1.3743 -0.6028 -1.0978
 1678TIP3    H126449   4.183   2.082   5.014  2.1070 -0.9836  0.3958
 1678TIP3    H226450   4.122   1.951   4.970  1.1577 -0.4909  0.2123
 1679TIP3   OH226451   4.039   3.043   5.324 -0.1047  0.1393 -0.1753
 1679TIP3    H126452   4.048   3.104   5.397 -0.6367  0.3285 -0.2650
 1679TIP3    H226453   4.126   3.041   5.284  0.1042  0.2837  0.2626
 1680TIP3   OH226454   0.212   4.992  11.899  0.3252 -0.4755 -0.4116
 1680TIP3    H126455   0.279   5.029  11.958 -0.7089 -1.1116  1.2245
 1680TIP3    H226456   0.262   4.957  11.826  2.0873 -2.7851  1.7002
 1681TIP3   OH226457   5.754   1.599  16.140 -0.0837 -0.1969  0.2190
 1681TIP3    H126458   5.694   1.532  16.106 -1.8439  1.8546 -0.9585
 1681TIP3    H226459   5.800   1.631  16.063  1.4462 -0.6377  0.9056
 1682TIP3   OH226460   0.851   6.564   3.176  0.1010  0.1169 -0.3949
 1682TIP3    H126461   0.920   6.566   3.110  1.2292  1.1473  0.7822
 1682TIP3    H226462   0.843   6.654   3.206  0.1980 -0.4533  1.4536
 1683TIP3   OH226463   4.057   6.678   4.890  0.2685  0.3634  0.4957
 1683TIP3    H126464   3.965   6.694   4.911  0.2034 -0.2052  0.6803
 1683TIP3    H226465   4.105   6.719   4.961  0.1224  0.0390  0.7870
 1684TIP3   OH226466   4.007   5.800   1.684  0.7435 -0.3064  0.0067
 1684TIP3    H126467   4.025   5.755   1.767 -0.4283  0.7863  0.8914
 1684TIP3    H226468   4.058   5.751   1.619  0.5180 -2.1090  1.1163
 1685TIP3   OH226469   5.747   3.644   1.978  0.1439 -0.2678 -0.6371
 1685TIP3    H126470   5.839   3.619   1.987 -0.0890 -0.6523  1.0448
 1685TIP3    H226471   5.746   3.738   1.995  0.2321 -0.2513 -0.7224
 1686TIP3   OH226472   1.896   6.395  15.982  0.3233  0.0667 -0.0324
 1686TIP3    H126473   1.811   6.359  16.008  0.8179 -0.1334  1.3363
 1686TIP3    H226474   1.909   6.361  15.893 -0.5985 -0.6798  0.0984
 1687TIP3   OH226475   1.693   6.464  12.380 -0.0196 -0.0189  0.3903
 1687TIP3    H126476   1.600   6.486  12.382  0.1870  0.8829  0.3376
 1687TIP3    H226477   1.703   6.395  12.445 -0.8530 -0.6499 -0.1227
 1688TIP3   OH226478   1.404   3.801  16.677  0.1685 -0.0315  0.4723
 1688TIP3    H126479   1.485   3.824  16.722  0.6007  2.1285 -1.2643
 1688TIP3    H226480   1.415   3.834  16.588 -1.5219 -2.1835 -0.6499
 1689TIP3   OH226481   2.461   0.529   2.385 -0.3301 -0.8218  0.3277
 1689TIP3    H126482   2.540   0.557   2.433  0.5226  1.4951 -2.1764
 1689TIP3    H226483   2.490   0.455   2.332 -0.4314 -1.3264  0.9634
 1690TIP3   OH226484   0.753   4.015   3.878  0.3842 -0.8692 -0.2876
 1690TIP3    H126485   0.797   3.950   3.933 -1.1169  0.3302  2.5216
 1690TIP3    H226486   0.819   4.084   3.866  0.3803 -0.5898  1.1035
 1691TIP3   OH226487   0.517   2.276  11.016 -0.2257  0.2155  0.2051
 1691TIP3    H126488   0.486   2.282  11.106 -0.7189  0.8401  0.0005
 1691TIP3    H226489   0.477   2.350  10.972 -2.7247 -1.8414 -1.3039
 1692TIP3   OH226490   3.701   6.494   3.990 -0.0508  0.0403 -0.0285
 1692TIP3    H126491   3.723   6.469   4.080 -1.6339  0.2561  0.4590
 1692TIP3    H226492   3.715   6.414   3.939 -0.2695 -0.4227  0.6249
 1693TIP3   OH226493   0.857   1.508   2.215  0.0693  0.1430  0.3201
 1693TIP3    H126494   0.911   1.551   2.281  0.6197 -0.0933  0.0294
 1693TIP3    H226495   0.918   1.454   2.164  0.1329  2.2252 -1.9984
 1694TIP3   OH226496   3.450   4.741  13.993  0.2208 -0.2699 -0.4045
 1694TIP3    H126497   3.468   4.807  14.060  1.1467 -0.6477 -0.2648
 1694TIP3    H226498   3.426   4.791  13.915 -0.4397  0.1847  0.0815
 1695TIP3   OH226499   2.307   4.439  11.603 -0.0748  0.4046  0.5668
 1695TIP3    H126500   2.261   4.355  11.613  0.8743 -0.2818 -0.5835
 1695TIP3    H226501   2.308   4.455  11.509 -0.5476  1.9212  0.7901
 1696TIP3   OH226502   3.145   4.473  12.067  0.1445  0.1240  0.3548
 1696TIP3    H126503   3.145   4.383  12.100 -0.4706  0.1486  0.4208
 1696TIP3    H226504   3.204   4.520  12.126  0.4299 -0.2209  0.3507
 1697TIP3   OH226505   6.771   4.008   0.704 -0.2617 -0.1417 -0.4143
 1697TIP3    H126506   6.740   3.924   0.739 -0.5711  0.5737  1.1200
 1697TIP3    H226507   6.862   3.992   0.679 -0.1288 -0.7947  0.4369
 1698TIP3   OH226508   5.699   4.789  12.651  0.4441  0.3508 -0.0183
 1698TIP3    H126509   5.633   4.838  12.700  0.1014 -0.1740  0.0662
 1698TIP3    H226510   5.725   4.718  12.710 -1.3578 -1.4396 -1.2136
 1699TIP3   OH226511   1.836   3.145   3.146 -0.3541 -0.1749  0.1362
 1699TIP3    H126512   1.821   3.205   3.073  0.6364 -1.8125 -1.4765
 1699TIP3    H226513   1.796   3.063   3.118 -1.1036 -0.5129  2.0241
 1700TIP3   OH226514   2.715   3.124   5.555 -0.0042 -0.0949 -0.6160
 1700TIP3    H126515   2.623   3.116   5.581 -0.4475 -0.1440 -2.0896
 1700TIP3    H226516   2.741   3.034   5.534  0.9712 -0.3682  1.5713
 1701TIP3   OH226517   1.758   3.925   1.253 -0.0789 -0.4592 -0.3658
 1701TIP3    H126518   1.761   3.841   1.207  1.9669 -1.0496  0.7113
 1701TIP3    H226519   1.770   3.902   1.345 -1.5680  0.8897  0.2029
 1702TIP3   OH226520   0.310   0.128   1.913  0.1017 -0.5973  0.3680
 1702TIP3    H126521   0.261   0.153   1.991 -0.4272 -2.2545  0.6102
 1702TIP3    H226522   0.243   0.107   1.847  0.5112 -0.7191 -0.0180
 1703TIP3   OH226523   5.773   2.277  12.308 -0.0706 -0.1721 -0.1113
 1703TIP3    H126524   5.719   2.265  12.386  0.6229  0.1488  0.4361
 1703TIP3    H226525   5.742   2.358  12.268 -1.2996 -1.0094 -0.9134
 1704TIP3   OH226526   4.817   1.703  12.942 -0.1693  0.1066 -0.6059
 1704TIP3    H126527   4.765   1.666  13.014  0.2083 -0.1239 -0.4495
 1704TIP3    H226528   4.857   1.781  12.980  0.5324 -0.3613 -0.3768
 1705TIP3   OH226529   5.378   6.174   4.555  0.2748 -0.4058 -0.4349
 1705TIP3    H126530   5.370   6.270   4.560  0.3785 -0.4228  0.1673
 1705TIP3    H226531   5.442   6.152   4.623  1.3256 -0.7775 -1.5025
 1706TIP3   OH226532   4.621   3.522  13.747  0.5941 -0.0674 -0.0893
 1706TIP3    H126533   4.549   3.522  13.685  1.4654  0.5229 -1.1425
 1706TIP3    H226534   4.599   3.454  13.811 -0.9881  0.2818 -0.2454
 1707TIP3   OH226535   3.837   0.336  15.805 -0.1464  0.2669  0.4026
 1707TIP3    H126536   3.743   0.322  15.800  0.0939 -1.4086 -0.1849
 1707TIP3    H226537   3.857   0.339  15.898 -0.6195 -0.7642  0.5479
 1708TIP3   OH226538   5.718   3.164   0.290  0.3070 -0.7339  0.3714
 1708TIP3    H126539   5.677   3.168   0.377 -2.4286  0.1662 -0.8665
 1708TIP3    H226540   5.770   3.244   0.284 -0.8010  0.0135  0.5923
 1709TIP3   OH226541   5.623   0.984   5.460 -0.8777 -0.2854  0.4908
 1709TIP3    H126542   5.660   0.930   5.529 -0.7987  0.5351  1.1107
 1709TIP3    H226543   5.666   1.069   5.471 -0.4487 -0.2841 -0.9165
 1710TIP3   OH226544   4.467   3.819  10.669 -0.2835  0.1414  0.2977
 1710TIP3    H126545   4.461   3.738  10.719 -0.9922  0.9626  1.5825
 1710TIP3    H226546   4.391   3.870  10.697  0.4948  1.5104 -0.0156
 1711TIP3   OH226547   6.181   0.924  12.316 -0.4563  0.1644 -0.3033
 1711TIP3    H126548   6.107   0.974  12.350 -0.9416 -1.3504  1.0231
 1711TIP3    H226549   6.254   0.947  12.373 -0.7488 -0.7773  0.4908
 1712TIP3   OH226550   0.995   1.019  11.520  0.3460 -0.5267 -0.1278
 1712TIP3    H126551   0.998   1.023  11.424 -0.5895  0.6920 -0.1301
 1712TIP3    H226552   1.043   1.096  11.549  1.1025 -1.1843  0.4189
 1713TIP3   OH226553   1.033   6.185   2.870 -0.1156 -0.3640 -0.2223
 1713TIP3    H126554   1.057   6.275   2.850  1.4348 -1.0676 -1.6987
 1713TIP3    H226555   1.009   6.187   2.963  3.1716  0.9575  0.7463
 1714TIP3   OH226556   5.930   2.374  13.707  0.2848 -0.1998  0.1851
 1714TIP3    H126557   5.971   2.331  13.783  0.0754 -2.2626 -0.8090
 1714TIP3    H226558   6.002   2.424  13.668  1.5625 -2.5105 -0.6278
 1715TIP3   OH226559   0.992   0.138  13.431  0.4826  0.2869 -0.2098
 1715TIP3    H126560   1.016   0.230  13.430  1.4244  0.0764 -2.3304
 1715TIP3    H226561   1.075   0.091  13.422 -0.1523 -0.6494 -1.5870
 1716TIP3   OH226562   0.857   3.002   1.505 -0.5825 -0.0825 -0.2751
 1716TIP3    H126563   0.888   2.980   1.417 -2.1665  0.0315 -0.8890
 1716TIP3    H226564   0.800   2.929   1.529 -0.4479  0.0614  0.5281
 1717TIP3   OH226565   0.615   0.997  13.255  0.3584 -0.1457 -0.6555
 1717TIP3    H126566   0.678   1.061  13.288  0.4495 -0.2600 -0.6073
 1717TIP3    H226567   0.531   1.026  13.291  0.6063 -0.8670  0.5530
 1718TIP3   OH226568   0.785   2.403   1.290 -0.2246  0.1627  0.4731
 1718TIP3    H126569   0.868   2.435   1.327  0.4209  1.4489 -1.8749
 1718TIP3    H226570   0.754   2.475   1.235 -0.4805 -1.9072 -2.3440
 1719TIP3   OH226571   1.577   3.502  14.160 -0.3333  0.4131  0.1508
 1719TIP3    H126572   1.501   3.552  14.131 -2.1062 -1.0117  2.0123
 1719TIP3    H226573   1.561   3.413  14.130  1.4294  0.3583 -0.7806
 1720TIP3   OH226574   5.990   1.592   1.215 -0.2662  0.3603  0.4812
 1720TIP3    H126575   5.912   1.567   1.264  0.4465  0.8446  1.8929
 1720TIP3    H226576   6.063   1.579   1.276  0.6768  0.7196 -0.5289
 1721TIP3   OH226577   2.838   1.985  14.011 -0.4500  0.0061 -0.4006
 1721TIP3    H126578   2.894   1.929  14.064 -1.1512 -0.4369 -0.1119
 1721TIP3    H226579   2.897   2.050  13.973  0.1771 -0.1440  0.3032
 1722TIP3   OH226580   1.224   6.248   4.543  0.1493 -0.0087  0.1310
 1722TIP3    H126581   1.240   6.314   4.476 -0.7002  1.4269  1.2615
 1722TIP3    H226582   1.265   6.283   4.622 -1.4197 -0.1830  1.0661
 1723TIP3   OH226583   4.776   2.391  13.684  0.6396 -0.5387 -0.4772
 1723TIP3    H126584   4.817   2.373  13.769 -0.3305 -1.4237 -0.1759
 1723TIP3    H226585   4.771   2.486  13.680  1.9770 -0.4233 -0.1773
 1724TIP3   OH226586   4.279   4.456  12.944 -0.1735 -0.7668  0.0361
 1724TIP3    H126587   4.262   4.379  12.998  0.3262 -0.7149  0.2701
 1724TIP3    H226588   4.367   4.483  12.968 -0.5142  0.1486  0.2858
 1725TIP3   OH226589   5.677   2.033  12.800 -0.2404  0.0427 -0.4385
 1725TIP3    H126590   5.631   1.989  12.872 -0.2055 -0.6029 -0.8069
 1725TIP3    H226591   5.767   2.000  12.806 -0.1648  0.2199 -0.5972
 1726TIP3   OH226592   2.304   3.412   3.779 -0.4593  0.5998 -0.2402
 1726TIP3    H126593   2.269   3.412   3.868 -0.6072  1.3002 -0.2959
 1726TIP3    H226594   2.372   3.344   3.781 -1.6408 -0.6139 -0.0800
 1727TIP3   OH226595   1.197   3.412  13.739 -0.4874  0.0467  0.2558
 1727TIP3    H126596   1.292   3.418  13.728 -0.1772 -2.8490  0.6593
 1727TIP3    H226597   1.166   3.502  13.725  2.2226  0.9854 -0.4041
 1728TIP3   OH226598   6.698   2.113  13.981  0.5153 -0.5962  0.2757
 1728TIP3    H126599   6.700   2.138  14.073  1.4471  2.8492 -0.5204
 1728TIP3    H226600   6.614   2.146  13.949  0.1239 -1.9127 -0.1389
 1729TIP3   OH226601   6.654   5.917  16.191  0.5376 -0.2110 -0.6538
 1729TIP3    H126602   6.684   5.872  16.270  1.0290 -0.1158 -0.7847
 1729TIP3    H226603   6.569   5.878  16.172 -0.4786  1.0519  0.9807
 1730TIP3   OH226604   1.706   0.349  13.623 -0.8990  0.2555  0.2358
 1730TIP3    H126605   1.785   0.358  13.570 -1.8180  0.9816 -1.0628
 1730TIP3    H226606   1.733   0.377  13.710  0.3822  0.0941 -0.0841
 1731TIP3   OH226607   4.242   1.260  12.993  0.4092 -0.1740  0.3439
 1731TIP3    H126608   4.225   1.338  13.046  1.0969 -0.6652  1.3194
 1731TIP3    H226609   4.245   1.188  13.056  0.6769 -0.8650 -0.4314
 1732TIP3   OH226610   6.558   2.031   3.476  0.4628 -0.2065  0.6495
 1732TIP3    H126611   6.635   2.006   3.425  1.2321  0.0046  1.6659
 1732TIP3    H226612   6.577   2.119   3.508 -1.3641  0.9542 -1.2435
 1733TIP3   OH226613   6.753   2.182  14.267  0.2045 -0.0293 -0.0325
 1733TIP3    H126614   6.810   2.108  14.246  0.0668 -0.2116  0.2289
 1733TIP3    H226615   6.707   2.155  14.346 -2.0689 -0.9550 -1.5446
 1734TIP3   OH226616   4.371   4.385   6.171  0.5426  0.1612 -0.3689
 1734TIP3    H126617   4.278   4.399   6.190  0.5342  3.2834 -2.0495
 1734TIP3    H226618   4.417   4.433   6.240  0.9070 -0.5414 -0.1119
 1735TIP3   OH226619   4.316   6.548   2.630 -1.0681 -0.0190 -0.7687
 1735TIP3    H126620   4.232   6.547   2.584 -1.8052 -1.8862  0.4756
 1735TIP3    H226621   4.318   6.464   2.676  0.8314  0.6293  0.4117
 1736TIP3   OH226622   3.142   0.636  11.818  0.6170  0.0623  0.0877
 1736TIP3    H126623   3.177   0.573  11.754 -0.0723 -1.5680  1.2404
 1736TIP3    H226624   3.164   0.598  11.903  0.9838  1.8857  0.8406
 1737TIP3   OH226625   1.054   2.238  13.450 -0.4781  0.3524  0.2710
 1737TIP3    H126626   1.137   2.201  13.421  0.0114  0.6738  1.2267
 1737TIP3    H226627   1.054   2.226  13.545 -1.0656  1.2825  0.4009
 1738TIP3   OH226628   3.901   1.775   4.014  0.4728 -0.2070 -0.1097
 1738TIP3    H126629   3.810   1.798   4.028  0.6846  0.6447 -0.0494
 1738TIP3    H226630   3.922   1.813   3.928  0.2612 -2.0206 -1.0171
 1739TIP3   OH226631   4.383   0.426  14.003 -0.1712 -0.0655  0.1111
 1739TIP3    H126632   4.466   0.458  13.969  0.5575 -0.3153  1.6066
 1739TIP3    H226633   4.330   0.505  14.016 -0.4175  0.0553 -1.3676
 1740TIP3   OH226634   6.663   5.012  13.049  0.3955  0.0808 -0.2849
 1740TIP3    H126635   6.647   4.930  13.001  0.4250  0.6419 -1.2744
 1740TIP3    H226636   6.744   5.046  13.012  0.9537  0.0423  0.8585
 1741TIP3   OH226637   4.007   1.610   5.563  0.0190  0.5857 -0.1886
 1741TIP3    H126638   3.920   1.640   5.588 -0.1503  0.0104 -0.0820
 1741TIP3    H226639   4.066   1.680   5.593 -0.3871  0.8985 -0.1163
 1742TIP3   OH226640   1.436   0.663  10.849 -0.2327 -0.2254 -0.1675
 1742TIP3    H126641   1.494   0.735  10.874  0.0879 -0.8619  0.9509
 1742TIP3    H226642   1.467   0.588  10.898  0.3327 -1.5306 -2.3857
 1743TIP3   OH226643   0.550   3.243  14.780  0.0518 -0.3927 -0.8058
 1743TIP3    H126644   0.570   3.276  14.868 -0.0109 -0.6526 -0.6943
 1743TIP3    H226645   0.493   3.310  14.742  1.1701  0.3837 -1.1464
 1744TIP3   OH226646   3.184   4.431   4.028  0.2398 -0.4504  0.3348
 1744TIP3    H126647   3.154   4.517   4.000 -1.2485 -0.8496  0.6213
 1744TIP3    H226648   3.280   4.437   4.026  0.1693  1.2841  0.5997
 1745TIP3   OH226649   2.567   1.113  12.760 -0.4948  0.0139  0.0450
 1745TIP3    H126650   2.573   1.076  12.671  0.9811  0.8129 -0.2187
 1745TIP3    H226651   2.623   1.057  12.813  0.8159  1.1082 -0.1187
 1746TIP3   OH226652   1.974   4.924  12.862  1.0099  0.3307 -0.2929
 1746TIP3    H126653   1.938   4.958  12.944 -0.3803  0.5662 -0.9686
 1746TIP3    H226654   1.910   4.950  12.795  2.9345  1.6017 -1.7358
 1747TIP3   OH226655   6.105   3.062  13.402 -0.0404  0.1919 -0.6644
 1747TIP3    H126656   6.186   3.081  13.451  0.6293 -1.3856 -1.1173
 1747TIP3    H226657   6.087   2.970  13.420 -1.4659  0.3787 -1.0099
 1748TIP3   OH226658   6.472   4.582   1.891  0.3044 -0.3149  0.0267
 1748TIP3    H126659   6.381   4.607   1.877  0.1233 -0.2576  1.2085
 1748TIP3    H226660   6.486   4.592   1.985  1.1734 -1.5155  0.0538
 1749TIP3   OH226661   1.255   4.205  14.993  0.0975  0.0642 -0.0204
 1749TIP3    H126662   1.171   4.160  14.994 -0.1551  0.5167 -0.4150
 1749TIP3    H226663   1.318   4.140  15.023 -0.5684  0.0985  1.5215
 1750TIP3   OH226664   0.337   6.356   3.918 -0.0764 -0.0972  0.3742
 1750TIP3    H126665   0.297   6.338   3.833 -0.4602 -0.8297  0.7083
 1750TIP3    H226666   0.265   6.349   3.981  0.7716 -2.7663  1.1501
 1751TIP3   OH226667   5.143   6.723  15.115  0.0536  0.0606  0.0498
 1751TIP3    H126668   5.230   6.763  15.106  0.8156 -1.7992 -1.4630
 1751TIP3    H226669   5.160   6.629  15.120 -1.8705 -0.3627 -0.4975
 1752TIP3   OH226670   1.474   4.463  16.088 -0.5557 -0.3292 -0.2315
 1752TIP3    H126671   1.434   4.378  16.105 -2.0945  0.5046  0.4598
 1752TIP3    H226672   1.474   4.471  15.992  0.9685 -1.6929 -0.4033
 1753TIP3   OH226673   3.422   4.212   4.206  0.3544 -0.7697 -0.1674
 1753TIP3    H126674   3.402   4.194   4.298 -0.8324 -0.5488 -0.3621
 1753TIP3    H226675   3.502   4.162   4.188  1.5253  0.4450  1.4010
 1754TIP3   OH226676   4.165   2.918  11.930  0.5397  0.0726  0.0954
 1754TIP3    H126677   4.143   2.859  12.002 -2.0161 -1.8713 -2.0488
 1754TIP3    H226678   4.104   2.894  11.860  1.5248  3.1731 -2.0644
 1755TIP3   OH226679   0.556   1.808   4.977  0.5122  0.4813  0.0626
 1755TIP3    H126680   0.585   1.755   5.051  2.1406  0.1483 -0.7580
 1755TIP3    H226681   0.636   1.825   4.928 -0.5332  0.7081 -1.6225
 1756TIP3   OH226682   3.998   3.689  16.281 -0.2800 -0.2279 -0.3534
 1756TIP3    H126683   4.089   3.662  16.297 -0.7795 -1.6942  0.0952
 1756TIP3    H226684   3.955   3.611  16.248 -1.4470  0.4060 -0.3726
 1757TIP3   OH226685   3.312   0.322   1.146  0.9597  0.1297  0.2303
 1757TIP3    H126686   3.406   0.321   1.129  0.7256 -1.2405 -1.3575
 1757TIP3    H226687   3.304   0.338   1.240  2.8220 -0.7682  0.5928
 1758TIP3   OH226688   0.018   5.935  15.067  0.2112 -0.1859 -0.1643
 1758TIP3    H126689  -0.046   5.976  15.125  0.6934  0.1169  0.1605
 1758TIP3    H226690   0.034   6.000  14.998 -0.1528 -0.4343 -0.4869
 1759TIP3   OH226691   1.618   2.594   2.312 -0.2548  0.2652 -0.2326
 1759TIP3    H126692   1.591   2.613   2.222  0.0959  0.9048 -0.2156
 1759TIP3    H226693   1.651   2.505   2.309  0.3106  0.4840 -0.8840
 1760TIP3   OH226694   3.201   1.743   4.490 -0.4154 -0.0908  0.2035
 1760TIP3    H126695   3.208   1.727   4.584  1.5291 -1.2383 -0.0801
 1760TIP3    H226696   3.291   1.741   4.458 -1.1376 -3.1907 -2.1848
 1761TIP3   OH226697   5.571   5.604  12.731 -0.1369 -0.7072 -0.2251
 1761TIP3    H126698   5.622   5.542  12.783  0.2417 -0.6653 -0.5411
 1761TIP3    H226699   5.487   5.560  12.716 -0.9639 -0.0070  1.9377
 1762TIP3   OH226700   6.590   0.086  12.288 -0.2002  0.1608 -0.1590
 1762TIP3    H126701   6.656   0.082  12.219 -0.1729  1.3565 -0.2204
 1762TIP3    H226702   6.516   0.038  12.253  0.6013 -1.1447 -0.1123
 1763TIP3   OH226703   6.029   4.512  16.681 -0.8794  0.2609  0.0069
 1763TIP3    H126704   5.964   4.558  16.628  0.4674  1.7081 -0.4671
 1763TIP3    H226705   6.024   4.555  16.767 -0.5049  0.4329 -0.0556
 1764TIP3   OH226706   6.153   6.283  16.551 -0.3788 -1.0799  0.1009
 1764TIP3    H126707   6.239   6.286  16.592  0.7302 -0.9903 -2.0899
 1764TIP3    H226708   6.143   6.369  16.510 -1.9493 -0.7502  1.0640
 1765TIP3   OH226709   4.485   3.413  13.333 -0.3321  0.5180  0.0571
 1765TIP3    H126710   4.472   3.459  13.416 -0.8761  0.9558 -0.2685
 1765TIP3    H226711   4.398   3.385  13.307 -0.0228 -0.5820  0.1765
 1766TIP3   OH226712   0.340   4.053   1.848 -0.1516  1.3854  0.2008
 1766TIP3    H126713   0.281   3.980   1.862 -2.4229  3.2829  1.2149
 1766TIP3    H226714   0.353   4.055   1.753  0.7008 -0.7907  0.2091
 1767TIP3   OH226715   4.106   2.388   4.934 -0.4888  0.4649 -0.0875
 1767TIP3    H126716   4.172   2.321   4.915 -2.2872 -1.0329 -1.4393
 1767TIP3    H226717   4.032   2.338   4.969 -1.6814  1.8177 -0.6103
 1768TIP3   OH226718   5.531   1.572  14.255 -0.3481  0.2903  0.2577
 1768TIP3    H126719   5.531   1.551  14.348 -0.4536 -0.1211  0.1662
 1768TIP3    H226720   5.619   1.605  14.238 -0.0546 -0.4236  0.3336
 1769TIP3   OH226721   4.774   0.869  15.706  0.2148  0.1025  0.2324
 1769TIP3    H126722   4.789   0.822  15.788  0.0483  1.6816  1.2131
 1769TIP3    H226723   4.761   0.800  15.641 -0.6120 -1.1959  1.6932
 1770TIP3   OH226724   2.496   0.086  11.304 -0.2625 -0.2395 -0.2507
 1770TIP3    H126725   2.459   0.167  11.340 -1.2603 -1.3046  1.2415
 1770TIP3    H226726   2.482   0.094  11.210  0.5362  1.7279 -0.2606
 1771TIP3   OH226727   6.051   6.542   3.514  0.0094  0.2914 -0.2054
 1771TIP3    H126728   6.135   6.573   3.479  1.4108 -2.3586  0.5615
 1771TIP3    H226729   5.990   6.554   3.441  1.1691  1.7128 -1.0091
 1772TIP3   OH226730   6.515   6.760  13.877 -0.0764  1.0283  0.3898
 1772TIP3    H126731   6.504   6.754  13.972  0.8211  2.0668  0.5821
 1772TIP3    H226732   6.460   6.833  13.850  1.4134  2.2399  0.4793
 1773TIP3   OH226733   6.774   1.591  12.542  0.1877 -0.2021 -0.0079
 1773TIP3    H126734   6.865   1.623  12.534  0.3690 -0.3773  1.1987
 1773TIP3    H226735   6.722   1.671  12.545  0.4332 -0.0534  0.6009
 1774TIP3   OH226736   4.048   2.286   2.602 -0.3140  0.4341 -0.0351
 1774TIP3    H126737   4.081   2.253   2.518  2.1348  2.6374 -0.0704
 1774TIP3    H226738   4.005   2.369   2.579 -1.0445  0.2722  0.7186
 1775TIP3   OH226739   2.060   2.353   1.330  0.2792 -0.9450 -0.0985
 1775TIP3    H126740   2.015   2.365   1.246  0.5305  0.6473 -0.0413
 1775TIP3    H226741   2.149   2.384   1.313  0.6075 -1.5416  0.5092
 1776TIP3   OH226742   0.617   0.031  14.043  0.4775 -0.0854  0.4058
 1776TIP3    H126743   0.607   0.066  14.132  0.4379  2.1637 -0.4317
 1776TIP3    H226744   0.638   0.107  13.989 -1.1869 -1.0864 -1.8275
 1777TIP3   OH226745   3.211   3.915  15.505  0.3775 -0.3099  0.1625
 1777TIP3    H126746   3.159   3.834  15.501 -0.5947  0.2946  0.3405
 1777TIP3    H226747   3.147   3.984  15.523  1.5227  0.1718  2.8336
 1778TIP3   OH226748   3.660   4.740  14.239 -0.1767  0.0640  0.6542
 1778TIP3    H126749   3.609   4.733  14.320 -1.6259 -1.3336 -0.3061
 1778TIP3    H226750   3.664   4.650  14.206  0.2811  0.6230 -0.8859
 1779TIP3   OH226751   4.308   3.071   2.048 -0.3450 -0.1561  0.6633
 1779TIP3    H126752   4.361   3.114   2.115  1.9334 -1.5934 -0.0942
 1779TIP3    H226753   4.218   3.093   2.071  0.5205  2.2451  2.1624
 1780TIP3   OH226754   1.500   0.271   1.660 -0.2762 -0.4435 -0.2366
 1780TIP3    H126755   1.493   0.284   1.565  0.3262 -1.6138 -0.4729
 1780TIP3    H226756   1.440   0.335   1.698  0.8259  1.3174 -1.3101
 1781TIP3   OH226757   0.869   3.138   0.982  0.2745 -0.0604  0.0161
 1781TIP3    H126758   0.858   3.234   0.979 -0.8509 -0.1725  0.2707
 1781TIP3    H226759   0.905   3.121   1.069 -0.3652  0.0545  0.3065
 1782TIP3   OH226760   4.098   0.457   5.454 -0.0704  0.3626 -0.7040
 1782TIP3    H126761   4.190   0.465   5.431 -0.2379  1.3543 -1.0986
 1782TIP3    H226762   4.072   0.546   5.480 -0.2840 -0.3868  1.8947
 1783TIP3   OH226763   3.871   6.122   3.227 -0.5539 -0.1499 -0.3071
 1783TIP3    H126764   3.817   6.183   3.177  0.3635  0.5367 -0.4864
 1783TIP3    H226765   3.958   6.162   3.227  0.3020 -1.8934 -1.2007
 1784TIP3   OH226766   5.951   1.763   1.017  0.2489 -0.0815  0.0877
 1784TIP3    H126767   5.872   1.731   0.974  0.6362 -0.2120 -0.5411
 1784TIP3    H226768   5.975   1.694   1.080 -0.4658  0.2276  0.7125
 1785TIP3   OH226769   3.018   2.697  10.966 -0.3194  0.3394 -0.3517
 1785TIP3    H126770   3.069   2.633  10.916  1.9541  1.0641  0.9123
 1785TIP3    H226771   2.930   2.658  10.973  0.8216 -2.3757 -0.1337
 1786TIP3   OH226772   1.412   5.539   5.483  0.1637 -0.2219  0.3726
 1786TIP3    H126773   1.479   5.470   5.480  1.4038  0.8524  1.6399
 1786TIP3    H226774   1.440   5.602   5.417  0.2636  0.0994  0.7170
 1787TIP3   OH226775   2.421   2.042   2.938 -0.0329  0.0320 -0.1102
 1787TIP3    H126776   2.390   1.966   2.987 -1.2999  0.1294 -0.7172
 1787TIP3    H226777   2.500   2.070   2.985  0.1842 -1.3518  0.4049
 1788TIP3   OH226778   6.664   3.025   5.339 -0.2492  0.0253 -0.4779
 1788TIP3    H126779   6.687   3.004   5.249  1.1449  2.3316 -0.7397
 1788TIP3    H226780   6.733   3.084   5.368 -1.7790  0.9923  1.4277
 1789TIP3   OH226781   3.642   1.849   4.097  0.2497  0.4865 -0.5632
 1789TIP3    H126782   3.577   1.917   4.081  0.2683  0.7420  0.3746
 1789TIP3    H226783   3.668   1.861   4.189 -0.8108 -1.6910  0.1044
 1790TIP3   OH226784   5.192   6.721  11.327  0.0946 -0.0032  0.0410
 1790TIP3    H126785   5.249   6.657  11.285 -1.1685 -0.8559 -0.4404
 1790TIP3    H226786   5.250   6.772  11.384  1.2812 -0.9768 -0.2635
 1791TIP3   OH226787   6.333   0.140  16.118  0.0945  0.6057  0.0440
 1791TIP3    H126788   6.304   0.103  16.034 -2.9189 -0.1024  1.2594
 1791TIP3    H226789   6.384   0.217  16.094 -0.0465  0.0134 -2.4309
 1792TIP3   OH226790   2.021   0.996  12.347  0.8875 -0.2675 -0.1703
 1792TIP3    H126791   2.093   1.021  12.290  0.1482  1.8500 -0.2591
 1792TIP3    H226792   1.942   1.017  12.296  0.2017 -1.0216  0.5513
 1793TIP3   OH226793   2.568   1.851  16.506 -0.2308  0.8659  0.4486
 1793TIP3    H126794   2.656   1.874  16.474 -0.4521 -0.0351 -0.8731
 1793TIP3    H226795   2.514   1.848  16.428 -0.7094 -1.8514  0.7992
 1794TIP3   OH226796   1.407   2.204  16.738  0.3361 -0.5339  0.4835
 1794TIP3    H126797   1.334   2.158  16.779 -0.5426  0.9844  0.7076
 1794TIP3    H226798   1.375   2.227  16.651  0.9826 -0.8699  0.1503
 1795TIP3   OH226799   0.559   4.588   0.507  0.4747  0.0652 -0.2835
 1795TIP3    H126800   0.603   4.527   0.566 -2.5259 -1.5569  0.5083
 1795TIP3    H226801   0.484   4.620   0.557 -1.5046 -0.4016 -2.7185
 1796TIP3   OH226802   5.983   1.524  10.928 -0.0314 -0.7125 -0.2643
 1796TIP3    H126803   6.060   1.467  10.929  1.0086  0.5616 -2.1538
 1796TIP3    H226804   6.013   1.606  10.967 -0.4779 -0.2732 -0.8295
 1797TIP3   OH226805   5.916   0.979   0.336  0.2042 -0.5354 -0.0178
 1797TIP3    H126806   5.888   0.941   0.252 -0.9617  2.0281 -0.8754
 1797TIP3    H226807   5.841   1.032   0.364  0.7522 -0.9460  2.4550
 1798TIP3   OH226808   0.135   1.412  16.181 -0.1476 -0.5431 -0.2685
 1798TIP3    H126809   0.166   1.338  16.130  0.5295  0.7210 -1.7594
 1798TIP3    H226810   0.214   1.449  16.220 -0.5139 -0.7491  0.7008
 1799TIP3   OH226811   1.006   0.197  16.049 -0.2598  0.1427  0.6968
 1799TIP3    H126812   1.088   0.147  16.059 -0.5121  0.0267  2.5106
 1799TIP3    H226813   1.006   0.256  16.124 -1.6724  0.3906  0.5140
 1800TIP3   OH226814   5.814   0.650   0.950  0.1285 -0.1158  0.7374
 1800TIP3    H126815   5.895   0.599   0.947 -1.0233 -2.0190 -1.9163
 1800TIP3    H226816   5.749   0.590   0.986 -1.0083 -0.2086 -1.3426
 1801TIP3   OH226817   2.943   3.837   2.494 -0.0763  0.1667  0.0464
 1801TIP3    H126818   2.940   3.868   2.404  1.4941 -0.6123 -0.3050
 1801TIP3    H226819   3.036   3.831   2.515 -0.4049 -0.0760  1.5795
 1802TIP3   OH226820   0.477   1.542   5.571  0.3358  0.3710 -0.2572
 1802TIP3    H126821   0.462   1.462   5.521  0.7040  0.4788 -0.5451
 1802TIP3    H226822   0.418   1.535   5.646  1.3770 -0.8718  0.5100
 1803TIP3   OH226823   2.480   4.318   0.045 -0.1725  0.3162  0.3903
 1803TIP3    H126824   2.465   4.313   0.140 -1.1189  0.2183  0.2391
 1803TIP3    H226825   2.457   4.230   0.013  0.5114  0.2306  0.1120
 1804TIP3   OH226826   5.597   2.734   5.893 -0.1844 -0.1764  0.0319
 1804TIP3    H126827   5.663   2.737   5.824  1.7068 -1.2098  1.6755
 1804TIP3    H226828   5.601   2.645   5.927 -1.3220  0.1801  1.2209
 1805TIP3   OH226829   4.492   5.816   6.188 -0.2666 -0.2688  0.1276
 1805TIP3    H126830   4.426   5.824   6.119 -0.5125  0.9591  0.4711
 1805TIP3    H226831   4.478   5.893   6.243  0.0020 -1.1526  1.4874
 1806TIP3   OH226832   6.192   5.504   6.391  0.2400 -0.3297 -0.0814
 1806TIP3    H126833   6.171   5.551   6.471  0.6451 -0.1956 -0.0571
 1806TIP3    H226834   6.238   5.567   6.336  0.2919 -0.5319 -0.2735
 1807TIP3   OH226835   6.713   1.002  10.428 -0.4939  0.4280  0.3545
 1807TIP3    H126836   6.631   1.050  10.432 -2.0920 -2.1267  0.5645
 1807TIP3    H226837   6.740   0.992  10.520 -0.4421  0.4766  0.3449
 1808TIP3   OH226838   2.735   0.191  14.435 -0.3099  0.1555  0.1239
 1808TIP3    H126839   2.745   0.279  14.397 -0.0203 -0.3290 -0.9580
 1808TIP3    H226840   2.651   0.194  14.481 -1.9529  0.0684 -2.6432
 1809TIP3   OH226841   2.765   6.035  16.060  0.9857  0.5327  0.2876
 1809TIP3    H126842   2.670   6.036  16.049  0.9445  0.5556  0.6248
 1809TIP3    H226843   2.789   6.126  16.073  0.9351  0.4375  1.1214
 1810TIP3   OH226844   6.342   2.324  13.793  0.3415 -0.1127 -0.3996
 1810TIP3    H126845   6.415   2.380  13.766 -0.6173  1.9349  1.0526
 1810TIP3    H226846   6.379   2.267  13.860  0.7688  0.4483 -0.1527
 1811TIP3   OH226847   3.865   1.135  17.190  0.5253 -0.2208 -0.6824
 1811TIP3    H126848   3.925   1.171  17.256  0.7094 -0.2626 -0.8263
 1811TIP3    H226849   3.873   1.040  17.201 -1.1958 -0.2306  0.8129
 1812TIP3   OH226850   0.190   0.739  11.606  0.1411  0.5860  0.1082
 1812TIP3    H126851   0.242   0.743  11.525  1.0404  0.4652  0.6635
 1812TIP3    H226852   0.193   0.646  11.630  0.6619  0.7662  0.7675
 1813TIP3   OH226853   3.663   3.665   7.031  0.2895  0.1217 -0.0381
 1813TIP3    H126854   3.618   3.607   6.970  1.2406  0.0269 -0.6643
 1813TIP3    H226855   3.754   3.636   7.030  1.2781  2.8557 -1.9202
 1814TIP3   OH226856   3.500   4.958  11.760  0.2720  0.1646  0.3934
 1814TIP3    H126857   3.584   4.925  11.728 -1.0622  0.0160 -3.5321
 1814TIP3    H226858   3.519   5.048  11.789  1.5280  0.9627 -2.5064
 1815TIP3   OH226859   2.236   0.793   5.665 -0.1246 -0.4813 -0.0960
 1815TIP3    H126860   2.175   0.854   5.706  0.2631  1.5330 -2.2832
 1815TIP3    H226861   2.287   0.756   5.738 -0.4349  1.7657  1.3399
 1816TIP3   OH226862   1.169   1.983  16.523 -0.5760  0.5181  0.3655
 1816TIP3    H126863   1.162   2.074  16.495  1.7038  0.8519  0.6863
 1816TIP3    H226864   1.187   1.934  16.443 -0.0142  0.6165  0.4291
 1817TIP3   OH226865   6.222   0.556   5.842 -0.2445 -0.2466 -0.5600
 1817TIP3    H126866   6.227   0.648   5.867 -0.2620 -0.1216 -1.0081
 1817TIP3    H226867   6.181   0.513   5.917  0.2125  0.0288 -0.1499
 1818TIP3   OH226868   0.115   6.568  13.540 -0.3360  0.3039  0.3626
 1818TIP3    H126869   0.119   6.597  13.449  2.6538  4.0971  1.3972
 1818TIP3    H226870   0.031   6.602  13.573 -1.2184 -0.6973 -0.7822
 1819TIP3   OH226871   3.999   3.794  13.653 -0.0691 -0.3137  0.1871
 1819TIP3    H126872   4.090   3.803  13.623  0.1438  0.6766  1.0759
 1819TIP3    H226873   3.992   3.702  13.677  1.0441 -0.1778  1.1330
 1820TIP3   OH226874   0.962   0.478  15.002 -0.5642 -0.5558  0.5133
 1820TIP3    H126875   0.902   0.405  14.987  0.1486 -1.2005  0.7186
 1820TIP3    H226876   1.023   0.474  14.928 -0.4820 -0.2106  0.5598
 1821TIP3   OH226877   5.345   3.140  16.465  0.2344 -0.3818  0.2306
 1821TIP3    H126878   5.440   3.145  16.463  0.3996 -0.6385  3.2180
 1821TIP3    H226879   5.324   3.104  16.551 -2.6045  1.1553  0.3223
 1822TIP3   OH226880   3.578   1.809   1.564 -0.1202  0.1110  0.1314
 1822TIP3    H126881   3.532   1.725   1.563  0.7182 -0.3457 -0.4403
 1822TIP3    H226882   3.513   1.871   1.598 -1.5862 -0.2927 -1.7445
 1823TIP3   OH226883   4.620   0.127   1.149 -0.3510 -0.7343  0.4103
 1823TIP3    H126884   4.621   0.037   1.180  2.8786 -0.8958  0.2347
 1823TIP3    H226885   4.536   0.137   1.104 -1.2528 -3.2763  1.3796
 1824TIP3   OH226886   3.901   1.220  16.150  0.2074  0.6850 -0.3526
 1824TIP3    H126887   3.916   1.126  16.136 -0.8054  0.3248  0.8486
 1824TIP3    H226888   3.923   1.260  16.066  0.3614 -0.6547 -0.9821
 1825TIP3   OH226889   5.533   3.959  11.304 -0.7244  0.0363 -0.2377
 1825TIP3    H126890   5.619   3.993  11.327 -0.4443  0.2712 -1.5793
 1825TIP3    H226891   5.532   3.957  11.208 -2.5352  0.9075 -0.2834
 1826TIP3   OH226892   5.889   4.211   4.252 -0.2136  0.4281  0.2918
 1826TIP3    H126893   5.955   4.146   4.231  0.0064  0.7419  0.0017
 1826TIP3    H226894   5.901   4.280   4.187 -0.6188  0.6338  0.4296
 1827TIP3   OH226895   2.649   3.549  15.950 -0.1980  0.1948  0.0134
 1827TIP3    H126896   2.740   3.548  15.979 -0.6089 -2.8993  1.5733
 1827TIP3    H226897   2.597   3.541  16.030 -1.7980  0.3872 -0.9489
 1828TIP3   OH226898   0.108   0.905   1.768 -0.3627 -0.3912 -0.7698
 1828TIP3    H126899   0.155   0.954   1.701  0.2587  0.1877  0.0776
 1828TIP3    H226900   0.099   0.817   1.732  2.6332 -0.9367 -0.4137
 1829TIP3   OH226901   4.475   2.811   3.549  0.5075  0.3660 -0.5751
 1829TIP3    H126902   4.487   2.905   3.565  0.1853  0.1352  1.3338
 1829TIP3    H226903   4.546   2.770   3.599 -0.4604 -0.4621  0.1608
 1830TIP3   OH226904   5.920   4.591   4.533  0.3034 -0.7698 -0.1765
 1830TIP3    H126905   5.832   4.629   4.539  0.2964 -0.4043 -1.9338
 1830TIP3    H226906   5.971   4.638   4.598 -0.4502  0.0776 -0.1738
 1831TIP3   OH226907   3.553   6.283  13.512  0.0656  0.5910 -0.5585
 1831TIP3    H126908   3.520   6.270  13.423 -0.9991 -2.1209  0.1419
 1831TIP3    H226909   3.475   6.302  13.563  0.0277 -1.8935  0.4307
 1832TIP3   OH226910   6.034   1.416   3.199 -0.1880 -0.1066  0.0655
 1832TIP3    H126911   5.960   1.403   3.140 -0.9129  0.2090  0.8948
 1832TIP3    H226912   6.109   1.379   3.151 -1.2153 -2.3984  0.0968
 1833TIP3   OH226913   6.022   3.554  15.198 -0.3102  0.0976  0.0168
 1833TIP3    H126914   5.938   3.523  15.231  0.2036 -0.8321  0.5028
 1833TIP3    H226915   6.066   3.589  15.275 -0.4304  1.0168 -0.3233
 1834TIP3   OH226916   6.336   2.220   3.711 -0.1755 -0.4439  0.4532
 1834TIP3    H126917   6.296   2.239   3.796 -0.8753  1.2339 -0.2259
 1834TIP3    H226918   6.263   2.209   3.651  0.2776 -2.6683  0.2110
 1835TIP3   OH226919   6.068   4.840  14.061 -0.0934 -0.2952  0.1852
 1835TIP3    H126920   5.982   4.879  14.046 -0.6411 -1.0982  1.0774
 1835TIP3    H226921   6.087   4.791  13.981 -0.7119 -0.5287  0.1715
 1836TIP3   OH226922   5.147   5.916   6.140  0.0681  0.0270 -0.6744
 1836TIP3    H126923   5.239   5.927   6.166 -0.9808  1.9050  2.7200
 1836TIP3    H226924   5.118   5.837   6.185 -0.0368 -0.5972 -1.7889
 1837TIP3   OH226925   1.921   4.959  15.041 -0.0547 -0.1233 -0.1622
 1837TIP3    H126926   1.855   5.006  14.989  0.8409 -1.8830 -3.1300
 1837TIP3    H226927   1.963   4.900  14.979  2.0671 -1.4838  2.3585
 1838TIP3   OH226928   5.152   1.562   0.663  0.1373  0.0936 -0.1400
 1838TIP3    H126929   5.198   1.489   0.623  1.5135 -0.5557  2.4164
 1838TIP3    H226930   5.065   1.560   0.622  1.3097 -0.5643 -2.8398
 1839TIP3   OH226931   6.569   5.962  15.204 -0.5980  0.3757 -0.3682
 1839TIP3    H126932   6.519   6.034  15.165 -0.8246  0.3468 -0.1326
 1839TIP3    H226933   6.543   5.962  15.296  1.3265  1.6365  0.2225
 1840TIP3   OH226934   0.431   0.378   3.873 -0.2069 -0.1773 -0.1744
 1840TIP3    H126935   0.399   0.336   3.953  0.2606 -0.7793 -0.2967
 1840TIP3    H226936   0.354   0.380   3.816 -0.4245 -0.1707  0.1119
 1841TIP3   OH226937   6.233   6.221   2.627 -0.0158  0.4016 -0.3127
 1841TIP3    H126938   6.194   6.230   2.714 -2.4345  0.0471 -1.2952
 1841TIP3    H226939   6.280   6.303   2.613 -0.5246  0.9117  0.8744
 1842TIP3   OH226940   1.834   3.360   3.855  0.6400  0.2514 -0.2596
 1842TIP3    H126941   1.840   3.450   3.887  1.2858  0.4908 -0.9882
 1842TIP3    H226942   1.921   3.344   3.817  1.2786 -1.4372  1.7522
 1843TIP3   OH226943   0.628   3.578   3.244  0.1693 -0.1192  0.0053
 1843TIP3    H126944   0.619   3.485   3.265 -0.0680  0.5192  3.3574
 1843TIP3    H226945   0.719   3.599   3.266 -0.5117  0.9432  2.0796
 1844TIP3   OH226946   1.019   4.593   2.318 -0.2558 -0.0995 -0.4217
 1844TIP3    H126947   1.055   4.577   2.405 -0.5345  0.3177 -0.2269
 1844TIP3    H226948   1.094   4.584   2.259  0.0972  0.3756 -0.0602
 1845TIP3   OH226949   3.975   3.765   0.191 -0.1003  0.2998  0.0448
 1845TIP3    H126950   4.041   3.787   0.126 -1.2858  1.0981 -0.9541
 1845TIP3    H226951   3.977   3.669   0.195 -0.3109  0.1919 -1.5544
 1846TIP3   OH226952   0.393   4.078   4.819 -0.3816 -0.3084 -0.2361
 1846TIP3    H126953   0.468   4.134   4.797 -0.2262 -1.0978 -1.8501
 1846TIP3    H226954   0.426   4.020   4.888  0.8449 -1.2672 -1.5498
 1847TIP3   OH226955   1.375   0.653  15.793  0.2252  0.1643  0.7771
 1847TIP3    H126956   1.350   0.561  15.794 -0.0568  0.2416  1.5457
 1847TIP3    H226957   1.291   0.700  15.788  0.1773  0.4156  2.8797
 1848TIP3   OH226958   1.670   2.748  14.499  0.2313 -0.5454 -0.3314
 1848TIP3    H126959   1.681   2.653  14.509  0.2692 -0.4912  0.1409
 1848TIP3    H226960   1.760   2.782  14.501  0.1237 -0.1466  3.0699
 1849TIP3   OH226961   0.681   3.204  16.301 -0.2461 -0.5119 -0.3874
 1849TIP3    H126962   0.617   3.224  16.232 -2.6979 -0.3775  1.7805
 1849TIP3    H226963   0.659   3.116  16.331  0.6397 -0.4891  0.3941
 1850TIP3   OH226964   3.252   2.408   2.515 -0.2802 -1.1022  0.0730
 1850TIP3    H126965   3.166   2.405   2.473 -0.3502 -0.3537  0.1463
 1850TIP3    H226966   3.237   2.374   2.603 -0.8080  0.2790  0.5540
 1851TIP3   OH226967   3.215   6.718   3.848  0.2945 -0.0256 -0.4182
 1851TIP3    H126968   3.306   6.689   3.854  0.4648  0.0042 -2.3296
 1851TIP3    H226969   3.199   6.764   3.930  2.9181  2.4892 -1.1498
 1852TIP3   OH226970   4.958   5.304   5.374 -0.2093  0.6831  0.1466
 1852TIP3    H126971   4.917   5.386   5.347  0.0889  1.0823  0.8775
 1852TIP3    H226972   4.983   5.318   5.466  1.0292  0.2431 -0.1047
 1853TIP3   OH226973   4.363   0.688   3.720 -0.4262 -0.3338  0.6840
 1853TIP3    H126974   4.313   0.672   3.800  0.5779 -0.6188  1.2638
 1853TIP3    H226975   4.391   0.601   3.692  0.0173 -0.1456  0.5453
 1854TIP3   OH226976   4.971   3.608   4.715  0.1180 -0.4077  0.0062
 1854TIP3    H126977   5.036   3.541   4.738  0.2800 -0.6949 -1.2239
 1854TIP3    H226978   5.022   3.677   4.672 -0.4786 -1.0376 -1.7852
 1855TIP3   OH226979   4.814   3.338  15.103  0.0556 -0.2897  0.2443
 1855TIP3    H126980   4.875   3.312  15.034  3.3169  0.0819  2.7251
 1855TIP3    H226981   4.763   3.260  15.120  1.9937 -1.6753  0.0647
 1856TIP3   OH226982   3.367   3.819   5.804 -0.2943 -0.1131  0.2454
 1856TIP3    H126983   3.407   3.797   5.888 -0.5444  0.6623  0.5870
 1856TIP3    H226984   3.331   3.907   5.818 -0.0935  0.1420 -0.7598
 1857TIP3   OH226985   6.501   3.404  13.976 -0.4297 -0.0223  0.4272
 1857TIP3    H126986   6.518   3.487  14.021 -2.2989  1.3962 -1.3215
 1857TIP3    H226987   6.418   3.373  14.012 -0.8137 -0.0300 -0.4490
 1858TIP3   OH226988   2.913   4.908  16.426 -0.2541  0.1161  0.3217
 1858TIP3    H126989   2.841   4.859  16.385  1.1280 -1.7983  0.1026
 1858TIP3    H226990   2.992   4.860  16.402  0.9832  1.2864  1.8625
 1859TIP3   OH226991   4.536   3.790   2.066  0.0428  0.0917 -0.8261
 1859TIP3    H126992   4.441   3.780   2.067 -0.1564  1.5572  0.9410
 1859TIP3    H226993   4.558   3.807   1.975 -1.8677  3.1733 -0.8405
 1860TIP3   OH226994   4.669   1.289   3.939  0.1021 -0.3736  0.1074
 1860TIP3    H126995   4.664   1.304   4.033 -1.4225  3.0685 -0.3791
 1860TIP3    H226996   4.586   1.248   3.916 -0.8313  1.4913 -0.0396
 1861TIP3   OH226997   3.562   0.277  15.169 -0.1274  0.3077  0.0458
 1861TIP3    H126998   3.555   0.191  15.127  0.6036 -0.1993  0.9214
 1861TIP3    H226999   3.476   0.291  15.208 -0.4653  0.2929 -0.6728
 1862TIP3   OH227000   2.480   2.906   0.136  0.6838  0.2113  0.8878
 1862TIP3    H127001   2.385   2.906   0.131  0.7049 -1.7399 -0.9947
 1862TIP3    H227002   2.501   2.840   0.202  0.7367  1.0649  1.7319
 1863TIP3   OH227003   6.406   1.694  17.146 -0.0508 -0.1250  0.2598
 1863TIP3    H127004   6.405   1.643  17.227  0.9591 -1.1119 -0.3374
 1863TIP3    H227005   6.489   1.742  17.149  0.1943 -0.4967 -0.3784
 1864TIP3   OH227006   3.677   5.480  13.822 -0.4699 -0.1630  0.2870
 1864TIP3    H127007   3.667   5.399  13.773  1.1335 -0.3291  0.1669
 1864TIP3    H227008   3.740   5.458  13.892  1.7493  1.4634 -1.0612
 1865TIP3   OH227009   5.401   1.294  13.076 -0.1345 -0.8168  0.0000
 1865TIP3    H127010   5.388   1.208  13.035 -2.5722 -0.1068 -0.8748
 1865TIP3    H227011   5.364   1.285  13.164  1.4855 -1.2011  0.6767
 1866TIP3   OH227012   3.165   6.479  14.487 -0.4268  0.2717  0.9637
 1866TIP3    H127013   3.090   6.470  14.429 -0.5958  0.9660  1.0684
 1866TIP3    H227014   3.149   6.415  14.557  0.2697 -1.2783 -0.2469
 1867TIP3   OH227015   4.520   3.354   0.541  0.3944 -0.1883 -0.5222
 1867TIP3    H127016   4.608   3.325   0.518  0.8908  0.0037  0.9915
 1867TIP3    H227017   4.533   3.439   0.583 -0.5472 -0.0252 -0.5408
 1868TIP3   OH227018   6.773   6.583   2.394 -0.2864 -0.0797 -0.1329
 1868TIP3    H127019   6.745   6.647   2.460  0.5942  0.8927 -0.6747
 1868TIP3    H227020   6.763   6.629   2.311 -0.3017 -0.8973 -0.5875
 1869TIP3   OH227021   3.902   2.411   3.742 -0.5083  0.4816  0.3888
 1869TIP3    H127022   3.880   2.416   3.835 -1.3413  1.4263  0.1510
 1869TIP3    H227023   3.954   2.489   3.725  0.6926 -0.3100  0.3166
 1870TIP3   OH227024   1.001   2.365   3.851 -0.1715  0.3165 -0.5766
 1870TIP3    H127025   1.037   2.330   3.769  0.5001  0.9149 -0.5454
 1870TIP3    H227026   1.005   2.291   3.912 -1.4586 -0.3837 -1.2974
 1871TIP3   OH227027   4.912   3.048   6.852  0.0613 -0.2570 -0.3239
 1871TIP3    H127028   4.978   3.015   6.791  0.1125 -1.1993  0.2218
 1871TIP3    H227029   4.835   2.993   6.836 -0.0331 -0.2912  0.2211
 1872TIP3   OH227030   1.163   6.612  12.497  0.7312 -0.1924 -0.3727
 1872TIP3    H127031   1.164   6.678  12.566 -0.8376 -0.3016 -0.2083
 1872TIP3    H227032   1.197   6.533  12.539 -1.3978 -0.6068  0.7018
 1873TIP3   OH227033   4.085   6.106   1.453  0.1303  0.2714  0.4555
 1873TIP3    H127034   4.157   6.092   1.514 -0.3680  1.8234  1.4886
 1873TIP3    H227035   4.037   6.181   1.490 -0.7598  0.6519 -1.3439
 1874TIP3   OH227036   2.190   5.835  13.565  0.7438  0.1219 -0.3148
 1874TIP3    H127037   2.265   5.846  13.624  0.0831 -0.1399  0.5961
 1874TIP3    H227038   2.189   5.741  13.546  1.3951  0.3071 -1.3631
 1875TIP3   OH227039   0.649   6.391   0.763 -0.0314  0.5811  0.4600
 1875TIP3    H127040   0.731   6.404   0.812 -0.4851 -0.6060  1.5979
 1875TIP3    H227041   0.599   6.471   0.778  1.4262  1.9505 -1.3969
 1876TIP3   OH227042   5.899   6.358  16.638 -0.0382  0.5451  0.8326
 1876TIP3    H127043   5.940   6.411  16.706 -0.0534 -1.4427  2.5112
 1876TIP3    H227044   5.970   6.337  16.577  0.2543  1.3622  0.8850
 1877TIP3   OH227045   2.176   3.867   3.190 -0.5910 -0.7350 -0.3215
 1877TIP3    H127046   2.137   3.953   3.209  1.7789  0.6175 -1.1993
 1877TIP3    H227047   2.204   3.835   3.275 -0.9612 -0.3508 -0.0483
 1878TIP3   OH227048   4.017   4.538  16.891  0.3433  0.2371 -0.1568
 1878TIP3    H127049   4.067   4.563  16.968 -1.2550  0.0636  0.9881
 1878TIP3    H227050   4.045   4.599  16.823  0.6639  1.3874  0.9757
 1879TIP3   OH227051   2.819   0.543   5.586  0.1443 -0.4275 -0.0826
 1879TIP3    H127052   2.760   0.607   5.626 -0.2167  0.1278 -1.4290
 1879TIP3    H227053   2.833   0.477   5.654 -1.2144 -0.0355  0.6150
 1880TIP3   OH227054   2.612   0.418  10.666  0.2103  0.4387  0.2069
 1880TIP3    H127055   2.573   0.331  10.679 -0.2795  0.6799  0.4012
 1880TIP3    H227056   2.705   0.406  10.681 -0.0127  0.2068  1.5745
 1881TIP3   OH227057   4.226   1.769  15.351  0.2950 -0.1166 -0.3178
 1881TIP3    H127058   4.131   1.781  15.342 -0.2452 -4.2632 -2.7106
 1881TIP3    H227059   4.262   1.855  15.331 -2.9033  0.9408 -2.5026
 1882TIP3   OH227060   1.643   1.721   5.185 -0.2941  0.3588  0.4728
 1882TIP3    H127061   1.708   1.788   5.165 -1.1216  0.4782 -2.2054
 1882TIP3    H227062   1.675   1.642   5.140 -0.5684 -0.3773  1.5350
 1883TIP3   OH227063   5.669   4.140  13.615  0.4729 -0.3080 -0.4853
 1883TIP3    H127064   5.646   4.067  13.557 -0.4381 -1.5713  1.3568
 1883TIP3    H227065   5.589   4.193  13.619  0.3247 -0.5600  0.0511
 1884TIP3   OH227066   0.279   4.494   0.711  0.7545  0.2313  0.4171
 1884TIP3    H127067   0.284   4.402   0.738  1.6919  0.7338  2.1112
 1884TIP3    H227068   0.203   4.498   0.653 -1.6344 -0.9407  3.2400
 1885TIP3   OH227069   4.458   1.368   5.077 -0.6119 -0.4965 -0.0597
 1885TIP3    H127070   4.535   1.312   5.072 -1.1735 -1.1505 -2.6083
 1885TIP3    H227071   4.389   1.311   5.110 -0.3934 -0.3212  0.7303
 1886TIP3   OH227072   4.205   0.000  12.504  0.1508  0.1437 -0.4895
 1886TIP3    H127073   4.290  -0.036  12.478  0.4184 -0.4001  1.0688
 1886TIP3    H227074   4.219   0.095  12.506  0.5786  0.0880 -0.7117
 1887TIP3   OH227075   0.491   0.131  10.495  0.2657  0.5191  0.1042
 1887TIP3    H127076   0.433   0.117  10.570  0.6056  4.2186  1.2726
 1887TIP3    H227077   0.435   0.114  10.419 -0.7242 -1.2047  1.1348
 1888TIP3   OH227078   5.668   0.540   1.774  0.5518 -0.0935  0.1983
 1888TIP3    H127079   5.678   0.563   1.681  0.5839  0.2008  0.2755
 1888TIP3    H227080   5.755   0.511   1.801  1.1741  2.1671  0.7864
 1889TIP3   OH227081   0.950   2.715  14.569 -0.2480 -0.3956 -0.0425
 1889TIP3    H127082   0.952   2.620  14.564  1.2781 -0.3831  0.0473
 1889TIP3    H227083   1.035   2.740  14.604 -0.3355  1.0516 -0.7634
 1890TIP3   OH227084   4.774   2.223  11.454  0.2926  0.1506 -0.7188
 1890TIP3    H127085   4.790   2.287  11.385  0.0597  0.1133 -0.8108
 1890TIP3    H227086   4.711   2.266  11.512 -0.4725 -0.2793 -1.2010
 1891TIP3   OH227087   3.144   5.326  12.921 -0.7240  0.2020  0.1006
 1891TIP3    H127088   3.122   5.415  12.894  0.7080  0.2397 -1.0464
 1891TIP3    H227089   3.179   5.285  12.842  1.5880 -0.3662  1.3121
 1892TIP3   OH227090   2.620   4.956  11.192  0.4624 -1.0554  0.2650
 1892TIP3    H127091   2.606   4.959  11.097 -1.3478  0.1703  0.5122
 1892TIP3    H227092   2.621   4.862  11.213 -0.5248 -1.3313 -0.7965
 1893TIP3   OH227093   0.713   0.870  14.871 -0.6423 -0.1808 -0.2980
 1893TIP3    H127094   0.698   0.953  14.916  0.0635 -1.1859  1.9539
 1893TIP3    H227095   0.798   0.880  14.830 -0.3673  0.0751  0.3238
 1894TIP3   OH227096   4.302   1.632  12.783 -0.1929 -0.0223 -0.1112
 1894TIP3    H127097   4.348   1.554  12.751 -1.4047 -1.0658  0.5775
 1894TIP3    H227098   4.349   1.706  12.744 -0.4146 -1.1456 -2.7306
 1895TIP3   OH227099   0.378   4.062  14.058 -0.0409  0.3980  0.3115
 1895TIP3    H127100   0.352   4.021  13.975 -1.1365  1.0397  0.3168
 1895TIP3    H227101   0.425   3.994  14.105 -2.5059 -1.1614  0.6675
 1896TIP3   OH227102   2.106   4.630   1.950  0.3197 -0.4474 -0.1946
 1896TIP3    H127103   2.065   4.563   2.005  1.2830 -2.1935 -1.4892
 1896TIP3    H227104   2.198   4.603   1.945  0.9372  1.4852 -0.0781
 1897TIP3   OH227105   4.559   6.194  13.379  0.4732  0.0427 -0.4147
 1897TIP3    H127106   4.518   6.272  13.417 -0.7245 -0.6993 -0.1394
 1897TIP3    H227107   4.487   6.133  13.366  1.4798 -1.2482 -0.0817
 1898TIP3   OH227108   5.402   4.380   2.908  0.8395  0.3861  0.2491
 1898TIP3    H127109   5.372   4.294   2.937 -2.6000  1.6862  1.1142
 1898TIP3    H227110   5.357   4.394   2.824  2.0901  1.0054 -0.3475
 1899TIP3   OH227111   1.023   3.647   0.656  0.4659 -0.1227  0.6838
 1899TIP3    H127112   0.937   3.679   0.685  0.7683  0.7667  0.6435
 1899TIP3    H227113   1.086   3.691   0.713  1.0420  1.2214 -0.8797
 1900TIP3   OH227114   5.753   4.897  12.401 -0.5518 -0.2887  0.0772
 1900TIP3    H127115   5.737   4.859  12.487 -0.9653  0.6695  0.4442
 1900TIP3    H227116   5.759   4.822  12.342  0.2940 -0.9853  1.0182
 1901TIP3   OH227117   5.052   2.406  11.449  0.0291  0.2258 -0.3464
 1901TIP3    H127118   5.085   2.399  11.360 -0.1676 -1.1281 -0.3255
 1901TIP3    H227119   5.069   2.321  11.489 -0.6976  0.5089  0.6282
 1902TIP3   OH227120   2.149   2.193   2.931 -0.0324 -0.0219 -0.4929
 1902TIP3    H127121   2.080   2.130   2.950  1.0890 -0.5438  2.3337
 1902TIP3    H227122   2.229   2.141   2.925  0.5581  0.8765 -0.7017
 1903TIP3   OH227123   3.061   5.577  12.849 -0.4062  0.2051 -0.8970
 1903TIP3    H127124   3.094   5.655  12.804 -1.4027  0.5450 -1.0775
 1903TIP3    H227125   3.012   5.530  12.781  0.2389 -0.6097 -0.8028
 1904TIP3   OH227126   4.407   6.229  16.140 -0.0902 -0.0078 -0.0475
 1904TIP3    H127127   4.397   6.216  16.234  2.3256  1.8944  0.5876
 1904TIP3    H227128   4.502   6.236  16.127 -0.3958  0.5505 -2.4997
 1905TIP3   OH227129   4.223   1.079  16.319  0.6700  0.4565  0.1955
 1905TIP3    H127130   4.158   1.148  16.333  2.2444  1.8849  0.8734
 1905TIP3    H227131   4.222   1.029  16.401 -1.2907 -1.1595 -0.7066
 1906TIP3   OH227132   2.992   4.291  17.093  0.2757  0.1826  0.0104
 1906TIP3    H127133   2.919   4.301  17.153  1.1419 -0.5628  1.2379
 1906TIP3    H227134   3.040   4.215  17.126  1.3320  0.3570 -1.0471
 1907TIP3   OH227135   5.095   2.579  16.189 -0.1501 -0.1729  0.2153
 1907TIP3    H127136   5.114   2.652  16.131  0.0525 -0.0295  0.4625
 1907TIP3    H227137   5.039   2.521  16.137  0.5455 -0.3490 -0.3378
 1908TIP3   OH227138   1.716   3.121   0.860 -0.1989 -0.2078  0.2053
 1908TIP3    H127139   1.799   3.082   0.833 -0.4537  0.0263 -0.9637
 1908TIP3    H227140   1.664   3.048   0.891  0.0316 -0.5174 -0.1351
 1909TIP3   OH227141   3.930   2.504  17.121 -0.2517 -0.0735  0.0871
 1909TIP3    H127142   3.974   2.520  17.204 -0.3750  3.4199 -0.3827
 1909TIP3    H227143   4.001   2.505  17.056 -0.5889  2.0416 -0.2969
 1910TIP3   OH227144   5.032   5.349   1.076 -0.5005 -0.1531 -0.4735
 1910TIP3    H127145   5.093   5.338   1.003  0.4881  2.0547 -0.0518
 1910TIP3    H227146   5.084   5.327   1.154 -0.8614 -0.2412 -0.2568
 1911TIP3   OH227147   2.358   5.892  15.170  0.0865 -0.0949  0.3970
 1911TIP3    H127148   2.383   5.982  15.151 -0.0084 -0.0052  0.6977
 1911TIP3    H227149   2.301   5.867  15.097 -0.2313  0.2302  0.5283
 1912TIP3   OH227150   3.917   4.835  14.071 -0.3404 -0.0075 -0.2852
 1912TIP3    H127151   3.949   4.751  14.105 -1.3632 -0.0352  0.6342
 1912TIP3    H227152   3.996   4.889  14.062  0.0646 -0.2790  1.3538
 1913TIP3   OH227153   4.038   0.201   0.100  0.3157 -0.1228  0.1604
 1913TIP3    H127154   4.081   0.231   0.181 -1.2807 -0.3766  1.1558
 1913TIP3    H227155   4.095   0.132   0.067  1.3707  0.4667  0.6701
 1914TIP3   OH227156   2.024   2.590   3.163 -0.3122 -0.3227 -0.4061
 1914TIP3    H127157   1.962   2.527   3.126 -0.4954  0.4214 -1.3982
 1914TIP3    H227158   1.969   2.654   3.207 -0.0833 -1.3963  1.5599
 1915TIP3   OH227159   5.658   3.609  17.160  1.0067 -0.7962 -0.3745
 1915TIP3    H127160   5.671   3.699  17.128 -0.4400 -1.2561 -2.5111
 1915TIP3    H227161   5.568   3.608  17.192  1.7996 -0.9034  2.0035
 1916TIP3   OH227162   1.392   4.686   4.999  0.0269  0.2560  0.0182
 1916TIP3    H127163   1.363   4.723   5.082  1.1385  0.3633  0.3830
 1916TIP3    H227164   1.488   4.693   5.002  0.0577  1.1838 -1.6953
 1917TIP3   OH227165   1.786   3.613  12.447 -0.1909  0.1394 -0.7004
 1917TIP3    H127166   1.781   3.525  12.482 -0.5168  1.2484  2.2900
 1917TIP3    H227167   1.722   3.663  12.497 -0.3155  2.0313 -2.5889
 1918TIP3   OH227168   4.658   5.172  12.922 -0.1596 -0.1656 -0.2635
 1918TIP3    H127169   4.621   5.099  12.972  0.1076  0.6427  1.1587
 1918TIP3    H227170   4.736   5.136  12.880  0.9238 -0.3175  1.7808
 1919TIP3   OH227171   1.458   1.408  13.728 -0.4264  0.4853  0.1066
 1919TIP3    H127172   1.418   1.459  13.799 -0.7539  0.5899 -0.1494
 1919TIP3    H227173   1.384   1.381  13.674 -0.2231 -0.0159  0.0803
 1920TIP3   OH227174   2.911   5.642   4.226 -0.0161 -0.2353 -0.1468
 1920TIP3    H127175   2.835   5.584   4.227 -0.7751  0.7212  1.1855
 1920TIP3    H227176   2.882   5.721   4.271  1.1703  0.9751 -1.3989
 1921TIP3   OH227177   2.032   3.408  15.988  0.2508  0.2115  0.1109
 1921TIP3    H127178   2.000   3.363  16.066 -0.5590  0.8994  0.1955
 1921TIP3    H227179   1.986   3.366  15.916  1.2956 -0.6931 -0.0594
 1922TIP3   OH227180   4.081   4.261  16.313  0.0922  0.0900  0.3365
 1922TIP3    H127181   4.071   4.290  16.404 -1.3060 -1.1817  0.6317
 1922TIP3    H227182   4.076   4.166  16.318 -1.9059  0.0442 -1.2245
 1923TIP3   OH227183   1.332   4.016   0.967  0.2718  0.3666  0.6035
 1923TIP3    H127184   1.364   4.086   0.911  1.3283 -1.1732 -0.8254
 1923TIP3    H227185   1.395   4.012   1.039  0.6702  0.3833  0.2622
 1924TIP3   OH227186   4.258   0.524  14.395 -0.5366 -0.5027  0.1325
 1924TIP3    H127187   4.264   0.482  14.481  2.0844 -0.4764  0.0481
 1924TIP3    H227188   4.250   0.618  14.414  2.3124 -0.2288  0.4991
 1925TIP3   OH227189   5.265   4.768   6.212  0.1249  0.3773  0.3779
 1925TIP3    H127190   5.207   4.696   6.237  1.3968 -0.8503 -0.0313
 1925TIP3    H227191   5.281   4.816   6.293 -2.8099  1.8321  0.1955
 1926TIP3   OH227192   5.981   3.414   3.837 -0.6453  0.0080 -0.2695
 1926TIP3    H127193   5.912   3.459   3.886 -0.6200  0.1671 -0.3797
 1926TIP3    H227194   6.060   3.427   3.889 -0.8905 -1.0671  0.4007
 1927TIP3   OH227195   5.973   3.623  12.926 -0.1298 -0.0487 -0.2838
 1927TIP3    H127196   6.050   3.674  12.953  0.0478  0.6761 -2.0424
 1927TIP3    H227197   5.960   3.561  12.998  1.7597  0.1798  0.3274
 1928TIP3   OH227198   3.220   3.006  11.610 -0.2688 -0.2488  0.0441
 1928TIP3    H127199   3.279   2.980  11.539 -0.3450 -1.4457  0.4037
 1928TIP3    H227200   3.213   3.102  11.602  3.0646  0.1884  1.0247
 1929TIP3   OH227201   5.224   1.603  13.585  0.5489  0.4908  0.1000
 1929TIP3    H127202   5.144   1.603  13.638  0.1694  0.2826 -0.4557
 1929TIP3    H227203   5.287   1.653  13.636 -0.2316  1.4789  0.1334
 1930TIP3   OH227204   2.198   3.135   6.067  0.2289  0.5398  0.0116
 1930TIP3    H127205   2.153   3.061   6.107  1.0791 -0.5870 -1.0312
 1930TIP3    H227206   2.217   3.194   6.140  1.5619 -1.3366  1.2815
 1931TIP3   OH227207   6.157   1.970   0.188  0.6108 -0.2426 -0.0083
 1931TIP3    H127208   6.206   1.932   0.261  1.5105  1.3438  0.2764
 1931TIP3    H227209   6.079   2.008   0.229  1.6058  1.5327  0.3495
 1932TIP3   OH227210   5.738   3.773  14.325 -0.4139  0.5381  0.3488
 1932TIP3    H127211   5.813   3.820  14.359  0.1754 -0.8413  1.0398
 1932TIP3    H227212   5.711   3.823  14.247  0.4700  1.6988  0.7656
 1933TIP3   OH227213   1.811   4.025  14.526 -0.4473 -0.1183  0.2882
 1933TIP3    H127214   1.787   3.954  14.465 -2.2134  1.0842 -0.5089
 1933TIP3    H227215   1.846   4.094  14.470  0.5726 -0.0469  0.9826
 1934TIP3   OH227216   0.688   3.509   4.750 -0.0202 -0.3151  0.4816
 1934TIP3    H127217   0.656   3.531   4.662  2.1243 -0.9415 -0.5327
 1934TIP3    H227218   0.772   3.555   4.757  0.0358 -0.5992  2.0566
 1935TIP3   OH227219   1.735   2.851  16.063  0.3402  0.1291  0.0468
 1935TIP3    H127220   1.640   2.850  16.056  0.3461 -1.0621 -0.0778
 1935TIP3    H227221   1.762   2.931  16.017 -0.4604 -0.8013 -2.2048
 1936TIP3   OH227222   1.843   2.872   5.240  0.6501 -0.3065 -0.6127
 1936TIP3    H127223   1.830   2.870   5.335  3.0411  0.4628 -0.2074
 1936TIP3    H227224   1.823   2.962   5.215  0.6760 -0.3358 -0.7414
 1937TIP3   OH227225   5.271   5.852  13.567 -0.3179 -0.4832 -0.1887
 1937TIP3    H127226   5.366   5.854  13.553 -0.5974  2.0267 -2.5384
 1937TIP3    H227227   5.234   5.863  13.479 -2.7717  0.0476  0.8373
 1938TIP3   OH227228   2.649   1.125  11.262  0.4248 -0.3438  0.1567
 1938TIP3    H127229   2.555   1.109  11.258 -0.1679  2.2731  1.3820
 1938TIP3    H227230   2.676   1.090  11.347  0.0986  0.6324  0.6896
 1939TIP3   OH227231   3.084   1.515   0.721  0.1814 -0.5876 -0.1319
 1939TIP3    H127232   3.033   1.519   0.640 -0.6490 -0.6825  0.3722
 1939TIP3    H227233   3.113   1.605   0.736  0.5910 -0.6219 -0.6846
 1940TIP3   OH227234   1.806   1.635  13.798  0.0320 -0.2531  0.8875
 1940TIP3    H127235   1.794   1.724  13.765 -0.5031 -0.8153 -0.5292
 1940TIP3    H227236   1.749   1.630  13.874 -0.7230  0.3121  0.3789
 1941TIP3   OH227237   3.865   1.950   6.107  0.0075  0.1298  0.0316
 1941TIP3    H127238   3.937   1.964   6.169 -1.1136  1.3880  1.1065
 1941TIP3    H227239   3.889   1.870   6.060  1.1090 -0.6355  1.7989
 1942TIP3   OH227240   1.301   0.703  11.366  0.7323  0.3739 -0.3559
 1942TIP3    H127241   1.360   0.649  11.419  2.6822  0.2086 -2.5468
 1942TIP3    H227242   1.318   0.676  11.276 -1.2126  1.8285 -1.2282
 1943TIP3   OH227243   4.705   5.393   3.145 -0.3651  0.1267 -0.3052
 1943TIP3    H127244   4.671   5.464   3.199  0.6169  0.7720 -0.5041
 1943TIP3    H227245   4.798   5.390   3.165 -0.0794  0.0133 -1.5498
 1944TIP3   OH227246   5.230   6.071  15.797  0.0591 -0.2226  0.5349
 1944TIP3    H127247   5.275   6.048  15.878  0.5729 -0.0868  0.2990
 1944TIP3    H227248   5.300   6.070  15.731 -0.2501  0.1949  0.1948
 1945TIP3   OH227249   0.331   4.560  12.628  0.0733  0.0881 -0.2468
 1945TIP3    H127250   0.373   4.643  12.650  0.8127 -0.4923  0.5943
 1945TIP3    H227251   0.403   4.505  12.596 -0.3588 -0.3418 -0.4936
 1946TIP3   OH227252   2.805   2.838   5.005 -0.7873 -0.2553  0.4360
 1946TIP3    H127253   2.737   2.783   5.044 -1.7600  1.0787  0.6818
 1946TIP3    H227254   2.786   2.835   4.911  0.5269 -2.0892  0.1625
 1947TIP3   OH227255   4.896   5.930   1.216  0.0196 -0.7435  0.6305
 1947TIP3    H127256   4.883   5.899   1.127 -1.7760 -0.5154  0.7775
 1947TIP3    H227257   4.859   5.861   1.271 -0.4607 -0.1162  1.1120
 1948TIP3   OH227258   6.208   6.535  14.304 -0.4949  0.0999 -0.5984
 1948TIP3    H127259   6.296   6.497  14.307 -0.0615  1.0357 -1.2667
 1948TIP3    H227260   6.217   6.619  14.349 -0.5431  1.1712 -2.5188
 1949TIP3   OH227261   0.431   6.249  12.642  0.1727 -0.7973  0.1481
 1949TIP3    H127262   0.492   6.323  12.637 -0.4559 -0.2501  0.4911
 1949TIP3    H227263   0.464   6.187  12.577  0.8768 -0.3430  0.0587
 1950TIP3   OH227264   3.597   2.753  12.591 -0.1377 -0.1425 -0.0622
 1950TIP3    H127265   3.596   2.700  12.512  0.4019 -0.7649  0.3392
 1950TIP3    H227266   3.569   2.840  12.562  0.2312 -0.3133 -0.9697
 1951TIP3   OH227267   4.618   6.749   0.007  0.1017  0.0851  0.0815
 1951TIP3    H127268   4.649   6.839   0.014  2.7687 -0.6933 -0.5641
 1951TIP3    H227269   4.570   6.746  -0.076  1.4322  0.5723 -0.7379
 1952TIP3   OH227270   0.822   4.726  11.586 -0.1731  0.0015 -0.5485
 1952TIP3    H127271   0.779   4.770  11.512 -0.9049 -1.7557 -1.2456
 1952TIP3    H227272   0.762   4.737  11.659  0.8263  2.2642  0.0276
 1953TIP3   OH227273   1.325   1.961  12.677  0.1576  0.5800  0.2843
 1953TIP3    H127274   1.303   1.869  12.667  0.2726  0.5124  0.6403
 1953TIP3    H227275   1.280   1.988  12.758 -0.3151  0.9723 -0.1047
 1954TIP3   OH227276   1.895   6.540   3.378 -0.2861 -0.1035  0.3737
 1954TIP3    H127277   1.844   6.595   3.319 -0.3411  0.4561  0.9336
 1954TIP3    H227278   1.864   6.451   3.361  0.2031 -0.0501 -0.9428
 1955TIP3   OH227279   6.453   3.927   2.897 -0.3778 -0.7606 -0.2158
 1955TIP3    H127280   6.358   3.918   2.887 -0.3407 -0.3604 -1.0348
 1955TIP3    H227281   6.464   4.012   2.940 -0.3712 -0.4138 -0.8805
 1956TIP3   OH227282   5.243   2.061  14.887 -0.2210 -0.7181  0.0027
 1956TIP3    H127283   5.209   2.050  14.798  0.1465  1.6209 -0.4793
 1956TIP3    H227284   5.166   2.085  14.940  0.0839  1.5349 -0.4772
 1957TIP3   OH227285   1.113   1.616  16.397 -0.4367  0.3611  0.4583
 1957TIP3    H127286   1.053   1.690  16.398  0.0910  0.8383 -0.6224
 1957TIP3    H227287   1.098   1.573  16.312 -1.6181 -1.5539  1.5590
 1958TIP3   OH227288   2.024   0.370   3.172 -0.4353  0.1266 -0.1173
 1958TIP3    H127289   1.955   0.406   3.117  0.2913 -0.9304 -1.8030
 1958TIP3    H227290   2.005   0.276   3.176  0.3626 -0.0327  0.1802
 1959TIP3   OH227291   1.571   0.160  13.006  0.3240 -0.6582 -0.1491
 1959TIP3    H127292   1.601   0.222  12.939 -1.0354 -1.1617 -1.2833
 1959TIP3    H227293   1.596   0.074  12.972  0.3923 -0.8595  0.4129
 1960TIP3   OH227294   2.590   5.471   2.409  0.6577  0.4149  0.0297
 1960TIP3    H127295   2.530   5.543   2.390  0.3354  0.0017 -0.5727
 1960TIP3    H227296   2.655   5.508   2.468 -1.0324  0.5021  1.9638
 1961TIP3   OH227297   2.363   2.196  12.871  0.0942  0.2982  0.7233
 1961TIP3    H127298   2.369   2.282  12.912  0.8425  1.0564 -0.8780
 1961TIP3    H227299   2.386   2.211  12.779 -0.9629 -1.4018  0.1198
 1962TIP3   OH227300   0.030   0.960   6.245  0.3318  0.4949  0.2044
 1962TIP3    H127301  -0.017   0.878   6.259 -0.9443  1.0474 -0.5555
 1962TIP3    H227302  -0.035   1.028   6.266  0.7618  1.2899 -0.9407
 1963TIP3   OH227303   3.993   2.820  12.829 -0.0678 -0.5808 -0.2908
 1963TIP3    H127304   3.909   2.855  12.803 -0.2725  0.2146  1.2897
 1963TIP3    H227305   3.974   2.731  12.859 -0.7218  0.1716  1.7235
 1964TIP3   OH227306   0.189   2.536   3.695 -0.9613  0.3367  0.6941
 1964TIP3    H127307   0.118   2.512   3.636 -0.4402 -0.9550  0.5652
 1964TIP3    H227308   0.266   2.490   3.661 -0.9151 -1.5998  3.1242
 1965TIP3   OH227309   5.908   2.105   5.105  0.2535  0.2866 -0.4239
 1965TIP3    H127310   5.897   2.153   5.023 -1.1185 -0.7238 -0.8735
 1965TIP3    H227311   5.834   2.044   5.107  0.1226  0.4472  1.6874
 1966TIP3   OH227312   5.247   0.241  14.842  0.3415  0.0385 -0.1104
 1966TIP3    H127313   5.285   0.317  14.886  0.4120 -0.8331  1.3950
 1966TIP3    H227314   5.290   0.166  14.881  0.8461 -0.8039 -2.1293
 1967TIP3   OH227315   1.618   1.305  10.622  0.2414  0.9226  0.6961
 1967TIP3    H127316   1.688   1.370  10.619 -0.3212  1.5177  0.1693
 1967TIP3    H227317   1.614   1.269  10.533  0.4571  0.2548  0.9474
 1968TIP3   OH227318   0.275   6.107  13.380 -0.0413  0.2433  0.0386
 1968TIP3    H127319   0.353   6.075  13.335 -0.2899 -0.4914  0.1169
 1968TIP3    H227320   0.305   6.128  13.468  0.1676  0.3930 -0.0697
 1969TIP3   OH227321   3.155   5.234   3.735  0.5624  0.0944  0.1799
 1969TIP3    H127322   3.230   5.274   3.779  1.4539  0.0052 -1.2087
 1969TIP3    H227323   3.192   5.162   3.684 -0.7616 -1.3450  1.1302
 1970TIP3   OH227324   1.089   6.177   5.205 -0.1709 -0.0270  1.0838
 1970TIP3    H127325   1.002   6.141   5.223 -0.1279 -0.0479  1.2523
 1970TIP3    H227326   1.085   6.204   5.113  0.2119 -1.6872  0.5441
 1971TIP3   OH227327   3.599   1.122  13.719 -0.2927  0.6524 -0.3874
 1971TIP3    H127328   3.536   1.060  13.684 -1.0536  1.0718  0.2215
 1971TIP3    H227329   3.576   1.131  13.811  0.3351  1.2032 -0.2757
 1972TIP3   OH227330   0.049   1.121  14.475 -0.0291  0.2296 -0.1707
 1972TIP3    H127331  -0.038   1.157  14.494  0.1780  1.0497 -0.7394
 1972TIP3    H227332   0.101   1.197  14.449  0.4776 -0.4549 -1.2125
 1973TIP3   OH227333   5.732   5.654  14.043  0.0419 -0.5716 -0.4949
 1973TIP3    H127334   5.688   5.584  13.997  0.5908 -1.3522  0.1323
 1973TIP3    H227335   5.821   5.622  14.057 -0.1521 -0.4505  1.2408
 1974TIP3   OH227336   0.417   1.057   2.389 -0.3244 -0.0816 -0.2214
 1974TIP3    H127337   0.361   1.134   2.388  0.3743  0.4790  1.4278
 1974TIP3    H227338   0.481   1.073   2.319 -0.6507  0.4542 -0.4007
 1975TIP3   OH227339   6.713   5.072   5.061  0.0134 -0.0639  0.2413
 1975TIP3    H127340   6.694   5.079   4.967  0.4037 -0.6367  0.1100
 1975TIP3    H227341   6.807   5.057   5.065 -0.1646 -1.1554  0.6590
 1976TIP3   OH227342   0.688   0.571   4.209 -0.6009 -0.3429 -0.1583
 1976TIP3    H127343   0.700   0.519   4.289  0.9699 -0.4698 -0.4582
 1976TIP3    H227344   0.705   0.661   4.236 -0.4420 -0.3390 -0.2739
 1977TIP3   OH227345   3.010   5.729   5.053 -0.0333  0.3413  1.1394
 1977TIP3    H127346   2.982   5.729   5.145  1.1623  0.0631  1.5280
 1977TIP3    H227347   2.955   5.795   5.011 -0.2681  0.8266  2.1683
 1978TIP3   OH227348   1.051   4.346   5.848  0.2757 -0.3675 -0.1103
 1978TIP3    H127349   1.076   4.266   5.802  0.0272 -1.0476  0.9136
 1978TIP3    H227350   1.133   4.394   5.859  0.4946 -0.6889 -0.3241
 1979TIP3   OH227351   4.693   5.799   3.291  0.1279 -0.1453  0.2687
 1979TIP3    H127352   4.686   5.874   3.231 -0.6628  0.3906  1.0123
 1979TIP3    H227353   4.724   5.837   3.373  1.4095 -0.9112  0.1607
 1980TIP3   OH227354   3.686   5.633   1.085  0.3045 -0.2443 -0.5216
 1980TIP3    H127355   3.729   5.594   1.161 -1.1012  1.0263  0.9953
 1980TIP3    H227356   3.658   5.719   1.115 -2.2588 -0.5625 -1.7756
 1981TIP3   OH227357   0.552   3.604   5.091 -0.0140  0.5376  0.6744
 1981TIP3    H127358   0.548   3.697   5.069  0.4242  0.9523  2.2347
 1981TIP3    H227359   0.644   3.587   5.109 -0.1917 -0.0331  1.0777
 1982TIP3   OH227360   0.571   1.724  14.510 -0.0617 -0.1424  0.1795
 1982TIP3    H127361   0.522   1.692  14.435 -0.5253 -0.8548  0.7700
 1982TIP3    H227362   0.512   1.787  14.552  1.2490  2.4400 -1.5859
 1983TIP3   OH227363   3.314   5.108  11.537 -0.3991 -0.2358 -0.2864
 1983TIP3    H127364   3.253   5.148  11.476 -1.2075  0.2781  0.8371
 1983TIP3    H227365   3.261   5.085  11.613  0.8612  0.5848  0.8824
 1984TIP3   OH227366   2.209   4.272  16.820 -0.5084  0.8827  0.0762
 1984TIP3    H127367   2.213   4.309  16.908 -1.4235  1.9759 -0.3293
 1984TIP3    H227368   2.232   4.344  16.761  2.2942 -0.3386 -0.5389
 1985TIP3   OH227369   5.075   5.570  14.191 -0.4429  0.0619  0.6075
 1985TIP3    H127370   5.014   5.628  14.237  0.3390  1.7104 -0.3481
 1985TIP3    H227371   5.106   5.509  14.258 -0.7114  1.2397  1.8334
 1986TIP3   OH227372   4.985   3.101   1.803 -0.4084  0.0352 -0.0068
 1986TIP3    H127373   4.933   3.091   1.883 -0.5769 -0.7950 -0.2080
 1986TIP3    H227374   5.065   3.051   1.820  0.4390  1.4677  0.3769
 1987TIP3   OH227375   6.219   3.912   2.776  0.1063 -0.3969  0.5972
 1987TIP3    H127376   6.235   3.969   2.701 -1.0650 -0.7741  0.0408
 1987TIP3    H227377   6.216   3.824   2.738 -2.0300 -0.4626  0.8064
 1988TIP3   OH227378   4.032   4.402   5.536 -0.0457  0.3746  0.0085
 1988TIP3    H127379   3.948   4.424   5.495 -0.4358  0.1738  0.6945
 1988TIP3    H227380   4.028   4.443   5.622  0.4717  0.1693  0.1337
 1989TIP3   OH227381   5.366   4.392  15.658 -0.6144  0.1492  0.5646
 1989TIP3    H127382   5.434   4.357  15.600 -1.3312  0.8753 -0.7692
 1989TIP3    H227383   5.337   4.316  15.709  0.6260 -0.3333  0.5689
 1990TIP3   OH227384   0.864   2.373   0.174 -0.3244  0.2538 -0.9560
 1990TIP3    H127385   0.800   2.310   0.140  0.5634 -1.3739  0.2698
 1990TIP3    H227386   0.818   2.418   0.245  0.2299 -1.8679  0.8411
 1991TIP3   OH227387   0.936   5.304  14.806 -0.7081 -0.3654 -0.7017
 1991TIP3    H127388   0.849   5.317  14.844 -0.8333  1.0849 -1.4231
 1991TIP3    H227389   0.966   5.220  14.842 -2.9929 -1.6502 -1.5421
 1992TIP3   OH227390   5.046   6.227  13.120 -0.1899 -0.3439  0.0345
 1992TIP3    H127391   5.130   6.249  13.080 -0.0661  1.0219  0.9510
 1992TIP3    H227392   4.988   6.208  13.046  1.0137 -1.7810 -0.5978
 1993TIP3   OH227393   3.022   0.965  13.057 -0.2301 -0.0283  0.0600
 1993TIP3    H127394   3.103   0.982  13.105 -1.4824 -0.8600  2.6690
 1993TIP3    H227395   3.051   0.934  12.971  2.1498  1.6440  0.1483
 1994TIP3   OH227396   2.514   3.121  14.894  0.1537 -0.7158  0.0584
 1994TIP3    H127397   2.524   3.177  14.817 -0.2904  0.4883  0.8474
 1994TIP3    H227398   2.447   3.165  14.947  1.3109 -0.8339  1.6990
 1995TIP3   OH227399   6.114   4.442   1.516 -0.4123  0.1671 -0.1696
 1995TIP3    H127400   6.177   4.402   1.456  0.0341 -0.8678  0.9258
 1995TIP3    H227401   6.143   4.533   1.524  2.9655 -0.8984  2.6183
 1996TIP3   OH227402   2.713   1.683   4.441 -0.3349  0.5512  0.0407
 1996TIP3    H127403   2.648   1.640   4.497 -1.4907 -0.5393 -1.9958
 1996TIP3    H227404   2.786   1.622   4.437  0.7723  1.6418  2.0854
 1997TIP3   OH227405   4.506   4.484   5.647 -0.5570  0.4379  0.1012
 1997TIP3    H127406   4.533   4.458   5.559  0.5956 -0.4542  0.6812
 1997TIP3    H227407   4.492   4.578   5.641 -0.1619  0.4445 -0.9556
 1998TIP3   OH227408   0.012   3.076   2.725  0.2359  0.4235  0.0721
 1998TIP3    H127409  -0.036   2.993   2.723  0.6907  0.1394  0.6093
 1998TIP3    H227410  -0.057   3.142   2.730 -0.2973  0.3289 -3.5317
 1999TIP3   OH227411   5.492   2.903   4.869  0.1624 -0.0920  0.1674
 1999TIP3    H127412   5.584   2.884   4.850  0.3361 -1.0117  1.8080
 1999TIP3    H227413   5.444   2.834   4.823  0.1688  1.0351 -1.6379
 2000TIP3   OH227414   4.349   1.635   1.102 -0.2302  0.0139  0.7271
 2000TIP3    H127415   4.397   1.718   1.096 -1.3760  0.5768 -2.3243
 2000TIP3    H227416   4.285   1.649   1.172  0.0735  1.4499  0.7493
 2001TIP3   OH227417   2.302   3.278  13.552  0.3925 -0.5747  0.2533
 2001TIP3    H127418   2.247   3.327  13.614  1.6576  1.5743 -0.1944
 2001TIP3    H227419   2.379   3.253  13.603  0.2432 -1.1659  0.1975
 2002TIP3   OH227420   6.502   0.968   3.449  0.0400 -0.5203  0.0066
 2002TIP3    H127421   6.412   0.963   3.481  0.4487 -0.5686  1.2147
 2002TIP3    H227422   6.513   1.060   3.425 -0.3955 -0.5560 -0.3349
 2003TIP3   OH227423   6.495   5.270   2.487  0.3602 -0.2554 -0.6450
 2003TIP3    H127424   6.484   5.228   2.402 -1.0738  3.0871 -2.2800
 2003TIP3    H227425   6.551   5.346   2.469 -1.2726  1.4303  1.0122
 2004TIP3   OH227426   3.920   3.847   4.583  0.0448 -0.6939 -0.4311
 2004TIP3    H127427   3.895   3.890   4.665  0.1025 -1.6484  0.1041
 2004TIP3    H227428   4.000   3.799   4.605  0.2250 -0.7227 -1.1297
 2005TIP3   OH227429   5.827   6.154  16.881  0.2675  0.2087  0.0735
 2005TIP3    H127430   5.913   6.115  16.862 -0.4932 -0.9745 -1.1876
 2005TIP3    H227431   5.784   6.091  16.938  0.0494  0.5762  0.3192
 2006TIP3   OH227432   0.747   1.486  13.002 -0.6902 -0.0250  0.0515
 2006TIP3    H127433   0.672   1.435  12.970 -1.4178  0.2762  1.2162
 2006TIP3    H227434   0.763   1.550  12.933 -1.1861 -0.4080 -0.4334
 2007TIP3   OH227435   4.099   3.650  12.233  0.3382 -0.4143  0.1881
 2007TIP3    H127436   4.118   3.611  12.319  1.0112 -1.5924 -0.4527
 2007TIP3    H227437   4.111   3.577  12.172  1.5074  0.7734 -1.0741
 2008TIP3   OH227438   3.737   1.366  15.059 -0.1704  0.3258 -0.3624
 2008TIP3    H127439   3.805   1.401  15.117  1.9394 -1.4000 -1.6509
 2008TIP3    H227440   3.722   1.437  14.996  0.4226  0.7327 -0.0599
 2009TIP3   OH227441   0.376   2.172  15.413  0.6202 -0.2714  0.3313
 2009TIP3    H127442   0.300   2.118  15.437  1.3027 -1.1492  0.5681
 2009TIP3    H227443   0.361   2.255  15.458 -0.0635 -0.5324  0.6051
 2010TIP3   OH227444   0.989   5.671  13.432  0.8199  0.0454 -0.5252
 2010TIP3    H127445   0.927   5.598  13.442  1.2417 -0.1703  0.7365
 2010TIP3    H227446   1.001   5.679  13.338  1.3961 -2.0926 -0.6920
 2011TIP3   OH227447   2.561   1.128  15.293  0.2299 -0.2772  0.2040
 2011TIP3    H127448   2.601   1.215  15.288 -0.3629 -0.0646 -1.1830
 2011TIP3    H227449   2.494   1.137  15.361  0.2925  0.2988  0.1989
 2012TIP3   OH227450   5.731   0.361  13.998 -0.4478 -0.3975  0.5271
 2012TIP3    H127451   5.767   0.364  13.909  0.0276  0.8364  0.7406
 2012TIP3    H227452   5.655   0.303  13.991 -0.8759  0.2734 -0.8568
 2013TIP3   OH227453   3.518   5.278   1.467  0.5074  0.1594 -0.0604
 2013TIP3    H127454   3.534   5.187   1.492 -2.4702 -0.4745 -0.0239
 2013TIP3    H227455   3.534   5.328   1.547  2.8248 -0.1751 -0.2531
 2014TIP3   OH227456   1.961   2.708  13.343  0.1952  0.5068  0.3697
 2014TIP3    H127457   1.941   2.750  13.427  2.2221  1.0766  0.6273
 2014TIP3    H227458   1.967   2.780  13.281 -0.4629  0.1613 -0.1115
 2015TIP3   OH227459   5.079   3.177  13.661  0.0512  0.8263 -0.5074
 2015TIP3    H127460   5.146   3.129  13.709 -1.0977  0.4323  0.7880
 2015TIP3    H227461   5.085   3.145  13.571  1.4608  0.6916 -0.3879
 2016TIP3   OH227462   0.802   4.209   6.278 -0.9137 -0.2133  0.0961
 2016TIP3    H127463   0.844   4.123   6.276  0.6859  0.3892  2.5933
 2016TIP3    H227464   0.754   4.210   6.361 -1.1570  1.1733 -0.0357
 2017TIP3   OH227465   1.819   3.831  10.487  0.2626 -0.0586  0.5097
 2017TIP3    H127466   1.745   3.793  10.441  0.7352 -0.9617  0.4841
 2017TIP3    H227467   1.881   3.759  10.497  2.1362  1.1524 -1.4648
 2018TIP3   OH227468   3.761   3.536  14.448 -0.2642  0.3656  0.0957
 2018TIP3    H127469   3.701   3.516  14.376  2.7109  0.3476 -2.6097
 2018TIP3    H227470   3.798   3.451  14.473  0.2832  0.6109  0.1360
 2019TIP3   OH227471   5.693   6.081   3.872  0.3520  0.1283  0.5459
 2019TIP3    H127472   5.786   6.087   3.851 -0.1959  1.2687 -1.8028
 2019TIP3    H227473   5.676   6.159   3.926  0.8142 -0.3407  1.3985
 2020TIP3   OH227474   3.883   6.410   0.328 -0.3773 -0.4302  0.7761
 2020TIP3    H127475   3.892   6.339   0.264 -2.6112  1.4485 -1.8548
 2020TIP3    H227476   3.932   6.483   0.290 -0.6817  0.3814  1.8849
 2021TIP3   OH227477   5.039   5.531  16.663 -0.0150 -0.0913 -0.2256
 2021TIP3    H127478   4.956   5.531  16.710 -1.1422  2.6654 -1.9913
 2021TIP3    H227479   5.090   5.601  16.705  0.1595  0.3411 -1.1395
 2022TIP3   OH227480   3.935   5.037   1.230 -0.1466 -0.2440 -0.0429
 2022TIP3    H127481   4.024   5.065   1.207 -0.1159  0.2005  0.5937
 2022TIP3    H227482   3.895   5.115   1.268 -0.7632 -0.4886 -0.1851
 2023TIP3   OH227483   1.765   2.953  16.639 -0.2517  0.1678  0.2145
 2023TIP3    H127484   1.746   2.919  16.552 -0.4561 -1.6280  0.9023
 2023TIP3    H227485   1.680   2.983  16.672 -0.2504  0.4456 -0.0328
 2024TIP3   OH227486   4.304   4.257  16.966 -0.0477 -0.2781  0.1986
 2024TIP3    H127487   4.237   4.313  17.006 -0.9995  0.4257 -2.2035
 2024TIP3    H227488   4.255   4.198  16.909  1.3102 -0.2970 -1.0053
 2025TIP3   OH227489   5.253   4.012   0.635 -0.8024 -0.6877 -0.2362
 2025TIP3    H127490   5.299   4.061   0.703 -0.9635 -0.9001  0.0267
 2025TIP3    H227491   5.185   4.072   0.604 -0.0851 -0.2129 -0.9271
 2026TIP3   OH227492   4.557   0.397  17.081  0.0906 -0.1913  0.6934
 2026TIP3    H127493   4.516   0.474  17.120 -1.3804 -0.8060  0.4378
 2026TIP3    H227494   4.532   0.401  16.989  1.7307  0.1002  0.2388
 2027TIP3   OH227495   3.818   4.960   0.339  0.0428  0.0937  0.3361
 2027TIP3    H127496   3.787   4.893   0.400 -0.6332  0.3027  0.2339
 2027TIP3    H227497   3.816   5.041   0.390 -0.2909  0.2284  0.1132
 2028TIP3   OH227498   3.902   1.062   1.277  0.2605  0.0655 -0.0493
 2028TIP3    H127499   3.898   1.053   1.181 -0.8087  0.8422 -0.1034
 2028TIP3    H227500   3.995   1.068   1.297  0.5386 -0.9419 -0.9512
 2029TIP3   OH227501   2.685   5.066   1.527 -0.2064 -0.3924  0.2191
 2029TIP3    H127502   2.736   5.097   1.602 -0.4224  0.3726  0.0571
 2029TIP3    H227503   2.602   5.036   1.565 -1.3353  2.2508  0.1052
 2030TIP3   OH227504   4.210   5.461   0.994 -0.7431  0.0537  0.1352
 2030TIP3    H127505   4.232   5.467   0.901 -1.2902  0.3746  0.0213
 2030TIP3    H227506   4.115   5.452   0.996 -0.5334 -3.1438  0.5526
 2031TIP3   OH227507   0.675   3.521   4.423  0.2858 -0.2567  0.3481
 2031TIP3    H127508   0.707   3.567   4.345 -1.2396 -0.8398 -0.6603
 2031TIP3    H227509   0.666   3.430   4.396  1.9480 -0.9437  1.9229
 2032TIP3   OH227510   1.065   1.369   4.288 -0.7069  0.3918 -0.1338
 2032TIP3    H127511   1.088   1.439   4.350  1.3685 -0.3085 -0.0344
 2032TIP3    H227512   0.987   1.329   4.326 -0.4550  1.0478  1.1405
 2033TIP3   OH227513   5.908   4.617   6.093  0.1769 -0.4041 -0.1339
 2033TIP3    H127514   5.956   4.640   6.173 -1.6125  0.4338  0.7638
 2033TIP3    H227515   5.915   4.522   6.088  1.4375 -0.3577  0.2608
 2034TIP3   OH227516   5.449   0.754   5.806  0.3800 -0.3651 -0.1167
 2034TIP3    H127517   5.464   0.660   5.793  0.8401 -0.3623  0.3818
 2034TIP3    H227518   5.385   0.759   5.877 -0.5830 -0.3233 -0.9582
 2035TIP3   OH227519   0.137   5.376   2.579 -0.1453 -0.2586  0.2876
 2035TIP3    H127520   0.077   5.324   2.526 -0.0714 -1.4253  1.3190
 2035TIP3    H227521   0.145   5.459   2.531 -1.0339 -0.8135 -0.8721
 2036TIP3   OH227522   4.730   4.387   2.405 -0.5039  0.2165  0.1714
 2036TIP3    H127523   4.652   4.353   2.362  1.0863 -1.4373 -1.6432
 2036TIP3    H227524   4.793   4.400   2.334  1.5144 -0.3499  1.7425
 2037TIP3   OH227525   1.603   4.294  14.848 -0.0039  0.6753  0.9340
 2037TIP3    H127526   1.678   4.334  14.892  0.2363  1.6406 -0.3023
 2037TIP3    H227527   1.538   4.284  14.918  0.5976  1.5572  1.6555
 2038TIP3   OH227528   3.005   5.911   3.607 -0.2109  0.8171  0.5032
 2038TIP3    H127529   3.010   5.944   3.517  1.2608  1.2319  0.7180
 2038TIP3    H227530   2.975   5.821   3.598 -0.4361  0.9722 -0.3813
 2039TIP3   OH227531   0.217   6.185   2.426  0.0441 -0.1578  0.1847
 2039TIP3    H127532   0.184   6.253   2.485  0.8571  1.1025 -0.7542
 2039TIP3    H227533   0.207   6.104   2.475 -1.4020  0.5627  1.1664
 2040TIP3   OH227534   6.606   2.204  14.489  0.1557 -0.3347 -0.1485
 2040TIP3    H127535   6.535   2.151  14.525 -0.6081  0.9536  0.2929
 2040TIP3    H227536   6.680   2.189  14.548 -0.4957  0.2211  0.8302
 2041TIP3   OH227537   2.358   0.546  15.947 -0.4587  0.4829 -0.5131
 2041TIP3    H127538   2.401   0.498  16.017 -3.7803 -0.5157  1.0287
 2041TIP3    H227539   2.350   0.635  15.980 -2.2900 -0.0507  0.6607
 2042TIP3   OH227540   5.857   2.260  13.177  0.5455  0.0183  0.1622
 2042TIP3    H127541   5.932   2.298  13.131  1.0863  0.2608  1.2097
 2042TIP3    H227542   5.896   2.201  13.241 -0.2207 -0.7837 -0.1009
 2043TIP3   OH227543   5.212   1.483   6.063  0.1714  0.1473  0.6614
 2043TIP3    H127544   5.290   1.538   6.059  0.4856 -0.3122  0.5030
 2043TIP3    H227545   5.217   1.440   6.147 -0.3074  0.6950  0.9783
 2044TIP3   OH227546   0.552   1.027  12.222  0.1585  0.3892  0.1521
 2044TIP3    H127547   0.552   0.960  12.291  1.6036 -0.7895 -0.9364
 2044TIP3    H227548   0.554   0.978  12.140 -0.3634  1.7710 -0.7269
 2045TIP3   OH227549   2.325   1.546  13.934 -0.3844  0.1055  0.7158
 2045TIP3    H127550   2.357   1.564  14.023  1.9914  0.1632 -0.0979
 2045TIP3    H227551   2.318   1.632  13.893  3.3271 -0.1081 -0.6516
 2046TIP3   OH227552   4.221   6.242   0.078  0.7228  0.0522 -0.1220
 2046TIP3    H127553   4.262   6.319   0.116 -0.5169  0.8356 -0.3091
 2046TIP3    H227554   4.243   6.247  -0.015 -0.0730  0.6822 -0.2901
 2047TIP3   OH227555   0.784   6.632  15.679  0.3386  0.4031 -0.0297
 2047TIP3    H127556   0.868   6.611  15.637  0.3148 -2.2457  1.0535
 2047TIP3    H227557   0.718   6.601  15.616  0.1644  1.1172 -0.2157
 2048TIP3   OH227558   1.358   1.172  17.199  1.1062  0.3471  0.4452
 2048TIP3    H127559   1.392   1.094  17.242  0.3744  0.9739  2.2573
 2048TIP3    H227560   1.326   1.141  17.114 -0.8230 -1.6832  1.8229
 2049TIP3   OH227561   2.300   2.420  13.012  0.2478 -0.5797  0.6434
 2049TIP3    H127562   2.320   2.381  13.097  0.2331  0.1795  0.9965
 2049TIP3    H227563   2.248   2.497  13.032  0.5660 -0.1779 -0.0306
 2050TIP3   OH227564   5.221   1.489   2.474  0.3239 -0.0349  0.7693
 2050TIP3    H127565   5.127   1.468   2.470  0.5512 -1.2184  1.3111
 2050TIP3    H227566   5.223   1.582   2.497 -0.7424  1.1400 -3.1720
 2051TIP3   OH227567   4.360   2.718  13.687  0.6638  0.0039  0.1380
 2051TIP3    H127568   4.316   2.634  13.674  0.5946  0.0130  0.3092
 2051TIP3    H227569   4.353   2.734  13.781 -0.0994  0.6289 -0.0144
 2052TIP3   OH227570   2.211   5.716   4.109 -0.1461 -0.1772  0.1828
 2052TIP3    H127571   2.299   5.730   4.143 -0.5290 -0.4368  1.2982
 2052TIP3    H227572   2.214   5.750   4.019  1.1724 -0.4856  0.0994
 2053TIP3   OH227573   2.797   1.287   1.530 -0.2598 -0.0782 -0.8743
 2053TIP3    H127574   2.817   1.379   1.513 -0.4688 -0.1779 -1.7186
 2053TIP3    H227575   2.843   1.239   1.461  0.2992 -0.6531 -0.1083
 2054TIP3   OH227576   6.374   0.901  13.119  0.4642 -0.9118 -0.2360
 2054TIP3    H127577   6.412   0.897  13.031  0.3298 -1.3564 -0.2762
 2054TIP3    H227578   6.449   0.913  13.178  0.4075  1.4269 -0.5524
 2055TIP3   OH227579   1.204   4.108   2.321  0.4940  0.5607  0.1474
 2055TIP3    H127580   1.272   4.042   2.333  1.2221  0.8900 -1.8082
 2055TIP3    H227581   1.159   4.083   2.241  0.0048  1.7760  0.0144
 2056TIP3   OH227582   2.068   5.733   2.489  0.0631 -0.1943  0.1471
 2056TIP3    H127583   2.060   5.801   2.556  1.4097 -0.6793  0.8329
 2056TIP3    H227584   2.138   5.676   2.521  0.9507 -0.2907 -1.8235
 2057TIP3   OH227585   0.636   5.876   2.093  0.0585 -0.6883 -0.0717
 2057TIP3    H127586   0.604   5.966   2.106 -2.1183 -1.6482  2.0405
 2057TIP3    H227587   0.696   5.882   2.019 -0.7390  2.3325 -0.6032
 2058TIP3   OH227588   0.976   0.914   3.962  0.9755  0.0295  0.0287
 2058TIP3    H127589   1.021   0.830   3.958  1.7137  0.4181 -0.0953
 2058TIP3    H227590   1.006   0.953   4.044 -1.6732 -1.0689  1.6615
 2059TIP3   OH227591   6.470   6.079   0.924  0.2864  0.1619  0.3906
 2059TIP3    H127592   6.535   6.147   0.940 -0.3186  0.7604  0.3592
 2059TIP3    H227593   6.420   6.112   0.849  1.9482 -1.7420 -1.7266
 2060TIP3   OH227594   3.361   6.775  10.445  0.3240  0.2724  0.4280
 2060TIP3    H127595   3.304   6.850  10.426  1.1621  0.6974 -0.5001
 2060TIP3    H227596   3.427   6.776  10.375  2.0230  0.3356  1.9475
 2061TIP3   OH227597   3.635   1.887  16.072  0.7271 -0.7382  0.6442
 2061TIP3    H127598   3.609   1.976  16.047 -1.4995 -1.5534 -0.1648
 2061TIP3    H227599   3.724   1.878  16.037 -0.8693 -0.6086 -4.3089
 2062TIP3   OH227600   6.160   1.024  16.893 -0.1956 -0.5270  0.1834
 2062TIP3    H127601   6.110   0.968  16.834  0.6001 -0.7640 -0.2771
 2062TIP3    H227602   6.102   1.098  16.911 -0.3360 -0.2812 -1.1675
 2063TIP3   OH227603   0.347   6.698  14.056  0.5490  0.1243  0.6465
 2063TIP3    H127604   0.436   6.731  14.043  0.6381 -0.3261  0.0643
 2063TIP3    H227605   0.349   6.658  14.143  0.5110  1.3902  1.2479
 2064TIP3   OH227606   4.122   0.232  16.346  0.2500 -0.4231  0.0904
 2064TIP3    H127607   4.059   0.160  16.345 -0.8825  0.5214  0.8185
 2064TIP3    H227608   4.146   0.244  16.254  1.4848 -2.5519  0.0678
 2065TIP3   OH227609   1.326   3.540   4.798 -0.0722  0.6808  0.4594
 2065TIP3    H127610   1.332   3.631   4.827  2.0807 -0.1976  3.2249
 2065TIP3    H227611   1.262   3.500   4.857 -1.5903  0.5075 -1.2370
 2066TIP3   OH227612   0.224   4.741   5.954 -0.1360 -0.2694  0.0961
 2066TIP3    H127613   0.184   4.677   6.013  0.6977 -0.5341  0.3839
 2066TIP3    H227614   0.317   4.739   5.975  0.3936 -1.2967 -2.1040
 2067TIP3   OH227615   5.592   1.618  16.528  0.2038 -0.2833 -0.0558
 2067TIP3    H127616   5.552   1.629  16.615  1.3433  0.8269  0.3705
 2067TIP3    H227617   5.563   1.532  16.499 -2.8282  0.6140  0.0105
 2068TIP3   OH227618   4.180   4.056  14.220  0.2324  0.7587 -0.0565
 2068TIP3    H127619   4.161   4.013  14.136  0.9629  1.6177 -0.6803
 2068TIP3    H227620   4.206   3.985  14.278  0.9898  0.2948 -0.9405
 2069TIP3   OH227621   3.960   6.093  11.281 -0.0541 -0.1543  0.4373
 2069TIP3    H127622   3.995   6.130  11.362 -0.8074  3.4157 -0.6917
 2069TIP3    H227623   3.865   6.103  11.288 -0.1249  0.4248 -0.9391
 2070TIP3   OH227624   0.280   4.727  14.629 -0.6092  0.6647 -0.1089
 2070TIP3    H127625   0.321   4.810  14.654 -1.2014  1.5495 -1.9178
 2070TIP3    H227626   0.187   4.738  14.651 -0.7227  0.5532 -0.5247
 2071TIP3   OH227627   6.011   2.818  17.069 -0.0837  0.4837 -0.2599
 2071TIP3    H127628   6.098   2.857  17.053  0.2734  0.4876  1.4611
 2071TIP3    H227629   5.961   2.888  17.111 -0.2808 -0.1186  0.5196
 2072TIP3   OH227630   3.191   2.977  14.123 -0.7997  0.0933  0.6889
 2072TIP3    H127631   3.220   3.064  14.152  0.4651  0.5627 -1.7592
 2072TIP3    H227632   3.106   2.993  14.082  0.6175  0.7756 -2.2290
 2073TIP3   OH227633   2.682   2.421  14.132  0.2955  0.2049  0.8263
 2073TIP3    H127634   2.690   2.423  14.227 -1.1053 -0.8559  1.0107
 2073TIP3    H227635   2.635   2.339  14.114 -1.5266  1.4808 -0.5809
 2074TIP3   OH227636   4.698   3.093  15.762 -0.9753  0.1773  0.2403
 2074TIP3    H127637   4.623   3.151  15.758 -0.9745  0.4468  2.6445
 2074TIP3    H227638   4.745   3.120  15.841  0.5008 -1.3447 -0.0587
 2075TIP3   OH227639   1.752   4.748   4.241  0.9571  0.0163  0.5226
 2075TIP3    H127640   1.784   4.717   4.156  3.2067 -0.5341  1.4852
 2075TIP3    H227641   1.774   4.841   4.243 -1.4619  0.6815 -0.4627
 2076TIP3   OH227642   0.574   6.219   3.941  0.1465  0.2069 -0.1087
 2076TIP3    H127643   0.638   6.289   3.946  0.7414 -0.3814  1.4932
 2076TIP3    H227644   0.489   6.263   3.946  0.5148  0.8225  1.2837
 2077TIP3   OH227645   1.255   6.094  15.702 -0.4870  0.4554  0.2706
 2077TIP3    H127646   1.244   6.091  15.797  0.3618  1.8318  0.4408
 2077TIP3    H227647   1.166   6.088  15.667 -0.7858 -0.2854  1.1381
 2078TIP3   OH227648   2.169   3.191   2.508 -0.4375 -0.8169  0.0257
 2078TIP3    H127649   2.199   3.244   2.435  1.6618 -0.5697  0.9987
 2078TIP3    H227650   2.140   3.109   2.468  0.8727 -0.7688 -1.0925
 2079TIP3   OH227651   4.121   1.595  10.696 -0.8955  0.1786 -0.0174
 2079TIP3    H127652   4.085   1.601  10.784 -1.6176 -2.0686 -0.0942
 2079TIP3    H227653   4.066   1.653  10.644 -0.7028  1.2340  0.9358
 2080TIP3   OH227654   2.330   1.635  16.095  0.0185  0.0244 -0.4199
 2080TIP3    H127655   2.349   1.716  16.046 -0.9935  1.5858  1.5985
 2080TIP3    H227656   2.238   1.617  16.077 -0.6006  1.0797  1.4140
 2081TIP3   OH227657   5.335   4.854   1.622  0.1507  0.3357  0.4397
 2081TIP3    H127658   5.290   4.785   1.573  0.7819  0.8072 -0.8420
 2081TIP3    H227659   5.353   4.814   1.708  2.0873 -1.7711 -0.8207
 2082TIP3   OH227660   1.808   5.675   3.166  0.0131  0.0970 -0.3075
 2082TIP3    H127661   1.807   5.584   3.195  1.9755  0.1079 -0.0873
 2082TIP3    H227662   1.829   5.726   3.244 -0.6205  0.7076 -0.5244
 2083TIP3   OH227663   0.094   3.934  14.566 -0.3001 -0.0477  0.2650
 2083TIP3    H127664   0.057   3.865  14.621  0.8162 -0.8874  0.0006
 2083TIP3    H227665   0.188   3.914  14.562 -0.0974  0.9726 -0.5490
 2084TIP3   OH227666   3.935   4.556   0.490  0.2833 -0.5999  0.3072
 2084TIP3    H127667   3.911   4.500   0.416  0.2151  0.8616 -0.8103
 2084TIP3    H227668   3.857   4.555   0.547 -0.3511 -0.3392 -0.5278
 2085TIP3   OH227669   5.550   4.289   1.676 -0.4018  0.1808 -0.8980
 2085TIP3    H127670   5.524   4.233   1.748 -1.8659  1.8867 -0.0207
 2085TIP3    H227671   5.498   4.259   1.601 -0.5274 -0.1712 -0.6684
 2086TIP3   OH227672   0.125   4.094  16.506  0.7043  0.3646  0.2720
 2086TIP3    H127673   0.122   4.190  16.502  0.3272  0.3892  1.0716
 2086TIP3    H227674   0.035   4.066  16.493  1.1245 -0.0022 -2.3374
 2087TIP3   OH227675   3.355   3.974  16.951  0.3487 -0.7922 -0.6447
 2087TIP3    H127676   3.275   3.988  17.001 -0.9845 -0.0681 -2.8467
 2087TIP3    H227677   3.426   3.981  17.016 -1.3128 -0.9186  1.2642
 2088TIP3   OH227678   2.824   4.814  10.877  0.0462 -0.1069 -0.2231
 2088TIP3    H127679   2.797   4.864  10.800 -1.4091 -0.0532  0.2908
 2088TIP3    H227680   2.742   4.786  10.917  0.6823  1.2875  2.2649
 2089TIP3   OH227681   2.041   6.719   0.877  0.1287  0.0009  0.0635
 2089TIP3    H127682   1.955   6.758   0.894  0.4056 -0.2562  2.5010
 2089TIP3    H227683   2.102   6.793   0.886  0.3570 -0.2992  1.2585
 2090TIP3   OH227684   5.525   1.588  17.179  0.4244 -0.5401 -0.5940
 2090TIP3    H127685   5.434   1.608  17.154  0.5366 -1.8378 -2.2489
 2090TIP3    H227686   5.576   1.660  17.141  0.1207  0.1227  0.2235
 2091TIP3   OH227687   4.122   5.218   3.844  0.7101 -0.4609 -0.1769
 2091TIP3    H127688   4.092   5.140   3.797  0.9952 -0.6103 -0.1115
 2091TIP3    H227689   4.063   5.287   3.815  0.3945 -0.7216 -0.1622
 2092TIP3   OH227690   0.164   4.349   4.762 -0.1216 -0.1950 -0.3181
 2092TIP3    H127691   0.212   4.309   4.690  0.2181  1.3908 -0.9930
 2092TIP3    H227692   0.081   4.375   4.724 -0.3434 -0.2426  0.1240
 2093TIP3   OH227693   3.576   6.214   5.081 -0.5955 -0.1423 -0.5302
 2093TIP3    H127694   3.670   6.230   5.071 -0.4459 -0.9391 -0.4411
 2093TIP3    H227695   3.565   6.120   5.065 -1.0838 -0.4738  1.4495
 2094TIP3   OH227696   2.204   4.905   3.253  0.0878 -0.3497  0.7541
 2094TIP3    H127697   2.250   4.840   3.306  0.2440 -0.3551  0.6125
 2094TIP3    H227698   2.115   4.906   3.289  0.1334 -0.5087  0.8757
 2095TIP3   OH227699   4.330   6.448  16.004 -0.1685  0.3844 -0.1032
 2095TIP3    H127700   4.340   6.365  16.051  0.3983  0.1218 -0.6788
 2095TIP3    H227701   4.289   6.425  15.921  1.2552  0.4702 -0.8608
 2096TIP3   OH227702   5.982   0.265   3.169  1.1147  0.7958  0.2096
 2096TIP3    H127703   5.965   0.186   3.117  2.1267  0.4177  0.4374
 2096TIP3    H227704   5.932   0.333   3.124  0.8525  0.1920 -0.4478
 2097TIP3   OH227705   4.154   0.056   0.388 -0.6633  0.1168  0.5383
 2097TIP3    H127706   4.249   0.052   0.396 -0.1750 -0.5516 -3.5595
 2097TIP3    H227707   4.131   0.140   0.428  1.7930  0.8762  0.5425
 2098TIP3   OH227708   0.859   2.237   4.664 -0.2099 -0.0342  0.3872
 2098TIP3    H127709   0.868   2.160   4.719  1.9807  0.8000  1.2947
 2098TIP3    H227710   0.798   2.210   4.595 -1.1415 -1.8687  1.8314
 2099TIP3   OH227711   2.325   5.200   2.942 -0.0165 -0.1530 -0.1958
 2099TIP3    H127712   2.234   5.228   2.926  0.5102  1.6009 -0.4152
 2099TIP3    H227713   2.352   5.157   2.861 -1.3614 -2.9136  0.7053
 2100TIP3   OH227714   4.541   1.900  14.516 -0.8394  0.0840 -0.1173
 2100TIP3    H127715   4.573   1.989  14.522  0.7636 -0.4645 -0.1132
 2100TIP3    H227716   4.472   1.895  14.582  0.0490  0.9280  0.9122
 2101TIP3   OH227717   6.346   4.456   5.581 -0.6454  0.6508 -0.1911
 2101TIP3    H127718   6.431   4.448   5.538  0.1045  1.5315  1.0633
 2101TIP3    H227719   6.305   4.531   5.537 -0.2870  0.9496 -0.0224
 2102TIP3   OH227720   3.901   5.940  16.096  0.0879 -0.1241  0.0888
 2102TIP3    H127721   3.970   5.904  16.151  1.4700  3.0282  0.6221
 2102TIP3    H227722   3.819   5.917  16.141  0.7970 -2.5837  0.2596
 2103TIP3   OH227723   1.520   2.401  13.213  0.2693 -0.5677  0.5626
 2103TIP3    H127724   1.546   2.332  13.274 -1.1803 -2.2843 -0.6502
 2103TIP3    H227725   1.440   2.437  13.250  0.2420 -0.5283  0.4648
 2104TIP3   OH227726   6.768   3.452   1.011  0.4536 -0.0886 -0.4391
 2104TIP3    H127727   6.752   3.427   1.102 -0.1671  0.6455 -0.3322
 2104TIP3    H227728   6.842   3.513   1.016  0.5464 -0.2014 -0.4461
 2105TIP3   OH227729   4.813   3.207   1.605  0.6639 -0.1282  0.4670
 2105TIP3    H127730   4.809   3.120   1.565  0.7089 -0.4534  1.1533
 2105TIP3    H227731   4.871   3.196   1.680  1.0988  0.6295  0.2521
 2106TIP3   OH227732   1.843   4.351   5.487 -0.0565 -0.4019  0.1177
 2106TIP3    H127733   1.803   4.432   5.521  2.2233  0.4270  1.0687
 2106TIP3    H227734   1.911   4.382   5.428  0.8299 -1.6344  0.4665
 2107TIP3   OH227735   5.042   3.877   2.067 -0.1185 -0.3617 -0.3711
 2107TIP3    H127736   5.065   3.826   2.145  0.5397  0.8161  0.2292
 2107TIP3    H227737   4.959   3.919   2.089  0.1237  0.0607 -0.2469
 2108TIP3   OH227738   6.342   3.291   2.847  0.3147 -0.0268 -0.1540
 2108TIP3    H127739   6.306   3.253   2.927 -1.8988  0.9719 -0.5941
 2108TIP3    H227740   6.374   3.377   2.874  1.5470 -0.5385  0.0514
 2109TIP3   OH227741   4.117   2.491  16.889 -0.1490 -0.2890 -0.0805
 2109TIP3    H127742   4.092   2.436  16.815 -1.4547  1.7684 -1.2448
 2109TIP3    H227743   4.142   2.575  16.851  0.5064  0.3959  1.7179
 2110TIP3   OH227744   2.370   2.744  13.061 -0.5593  0.2140 -0.8700
 2110TIP3    H127745   2.292   2.698  13.029 -0.8421  0.6276 -0.7773
 2110TIP3    H227746   2.338   2.828  13.092 -0.0658  0.4098 -0.8768
 2111TIP3   OH227747   6.061   1.206   4.336  0.1775 -0.4505 -0.3652
 2111TIP3    H127748   6.068   1.127   4.282 -1.4576  0.8870 -2.6504
 2111TIP3    H227749   5.969   1.230   4.332  0.5994  1.4696  0.4870
 2112TIP3   OH227750   2.728   5.458   0.021 -0.1241 -0.5490  0.5790
 2112TIP3    H127751   2.740   5.453  -0.074 -0.8524  1.3123  0.3557
 2112TIP3    H227752   2.686   5.374   0.043 -1.0629 -0.5289 -0.9341
 2113TIP3   OH227753   2.502   1.718   2.210  0.9502  0.1699  0.5898
 2113TIP3    H127754   2.463   1.643   2.255  0.2749 -0.2060 -0.5931
 2113TIP3    H227755   2.429   1.778   2.195  1.0731  0.0882 -0.3992
 2114TIP3   OH227756   6.384   1.726   4.460 -0.5375  0.4130 -0.9261
 2114TIP3    H127757   6.324   1.794   4.490 -1.8853 -0.2031 -2.1093
 2114TIP3    H227758   6.366   1.718   4.367 -1.5978 -2.6308 -0.5778
 2115TIP3   OH227759   5.225   5.626   6.624  0.1830  0.3833 -0.4898
 2115TIP3    H127760   5.156   5.581   6.575 -0.3564  0.8536 -0.1830
 2115TIP3    H227761   5.177   5.678   6.689  0.8864 -0.3483  0.6445
 2116TIP3   OH227762   2.953   6.294  13.603 -0.1408 -0.5522  0.7019
 2116TIP3    H127763   2.910   6.261  13.683 -0.4171 -0.0840  0.7511
 2116TIP3    H227764   3.034   6.244  13.598  0.2225 -0.0907  1.6684
 2117TIP3   OH227765   4.110   0.255  15.365  0.2029  0.0634 -0.5187
 2117TIP3    H127766   4.043   0.235  15.431  1.0192  0.0462  0.3174
 2117TIP3    H227767   4.143   0.170  15.336  0.6343  0.0926 -0.1211
 2118TIP3   OH227768   0.294   6.640   2.881  0.3918 -0.0443  0.6469
 2118TIP3    H127769   0.304   6.593   2.963  2.5375  0.4172  0.7207
 2118TIP3    H227770   0.354   6.714   2.888  1.0349 -0.2716 -1.4928
 2119TIP3   OH227771   3.577   4.861  14.990 -0.1471 -0.5824 -0.1464
 2119TIP3    H127772   3.530   4.782  14.964  0.7803 -0.7623 -1.3475
 2119TIP3    H227773   3.670   4.838  14.982  0.1421  0.3023  0.5048
 2120TIP3   OH227774   1.748   0.576   2.813  0.2795 -0.3940  0.1709
 2120TIP3    H127775   1.755   0.530   2.730  1.1903 -2.1098  1.1391
 2120TIP3    H227776   1.658   0.609   2.815 -0.2517 -1.7092 -0.7968
 2121TIP3   OH227777   1.329   4.834   1.754 -0.0189  0.2691 -0.3340
 2121TIP3    H127778   1.328   4.751   1.801  0.2437  0.1430 -0.5478
 2121TIP3    H227779   1.296   4.898   1.817 -0.8129 -0.1008 -0.3768
 2122TIP3   OH227780   6.356   1.427   3.462  0.1859  0.0080 -0.8341
 2122TIP3    H127781   6.439   1.436   3.415 -0.0479 -0.9934 -1.4803
 2122TIP3    H227782   6.376   1.451   3.552  0.8061  1.3197 -1.2927
 2123TIP3   OH227783   5.902   0.539   4.671 -0.3713  0.0245  0.5939
 2123TIP3    H127784   5.882   0.539   4.577 -0.6149 -0.9379  0.6381
 2123TIP3    H227785   5.952   0.458   4.685  0.2730  0.5036  1.1763
 2124TIP3   OH227786   0.239   0.745   5.322 -0.0728 -0.1674  0.0498
 2124TIP3    H127787   0.188   0.778   5.397  0.3041  2.2406 -0.6668
 2124TIP3    H227788   0.251   0.652   5.341 -0.4056  0.2436  2.7338
 2125TIP3   OH227789   0.566   5.555  14.214  0.6743 -0.2990 -0.0917
 2125TIP3    H127790   0.510   5.633  14.212 -0.0966 -0.7985  0.7988
 2125TIP3    H227791   0.642   5.581  14.266 -0.2130 -0.4872  1.3880
 2126TIP3   OH227792   0.921   5.446  12.976  0.2390  0.1146  0.3245
 2126TIP3    H127793   0.847   5.426  13.032  0.2924  0.5390  0.5477
 2126TIP3    H227794   0.994   5.397  13.013  0.1025 -0.2033  0.1776
 2127TIP3   OH227795   6.104   2.171  16.940  0.6613  0.4751 -0.3025
 2127TIP3    H127796   6.125   2.114  17.014 -0.0906  0.4095 -0.1309
 2127TIP3    H227797   6.154   2.251  16.956 -0.8305  1.1766  1.2419
 2128TIP3   OH227798   5.981   3.802  15.070  0.1587  0.1611  0.5491
 2128TIP3    H127799   5.920   3.834  15.136 -0.3981  2.2015 -0.8337
 2128TIP3    H227800   6.031   3.880  15.044  0.7818 -0.6924 -0.9635
 2129TIP3   OH227801   6.613   5.302  11.484 -0.3511  0.2532 -0.3886
 2129TIP3    H127802   6.579   5.242  11.550  0.5694  1.7200  1.5112
 2129TIP3    H227803   6.559   5.381  11.493  0.1494  0.6769 -0.9879
 2130TIP3   OH227804   1.471   6.138   2.246 -0.1634 -0.5922 -0.1695
 2130TIP3    H127805   1.388   6.094   2.230 -0.3577  0.2356 -1.6117
 2130TIP3    H227806   1.537   6.079   2.210 -0.2706 -0.5215 -0.4840
 2131TIP3   OH227807   1.729   5.743   6.564 -0.0234  0.0905 -0.0494
 2131TIP3    H127808   1.639   5.714   6.547 -0.8069  1.5661  1.3636
 2131TIP3    H227809   1.783   5.682   6.514 -1.7928 -0.9205 -0.8272
 2132TIP3   OH227810   1.564   1.427   6.586  0.3583  0.3387 -0.7640
 2132TIP3    H127811   1.569   1.477   6.504  0.4564  1.3223 -0.1767
 2132TIP3    H227812   1.489   1.369   6.573 -0.5594  1.5227 -1.0112
 2133TIP3   OH227813   0.405   6.068   6.278 -0.1481 -0.6426 -0.3707
 2133TIP3    H127814   0.340   6.022   6.225 -0.2384  1.6237 -2.4181
 2133TIP3    H227815   0.372   6.061   6.368 -2.9198 -0.1839 -1.2403
 2134TIP3   OH227816   2.202   1.829  15.298 -0.7943 -0.0757 -0.3270
 2134TIP3    H127817   2.269   1.845  15.232 -0.6985 -1.5104 -0.6088
 2134TIP3    H227818   2.127   1.883  15.270 -0.3105  0.3220 -0.8785
 2135TIP3   OH227819   5.421   5.887   2.298 -0.0310  0.0495  0.5439
 2135TIP3    H127820   5.347   5.831   2.321  0.7092 -0.9533  0.5673
 2135TIP3    H227821   5.386   5.948   2.233 -0.2715 -2.1481 -1.5192
 2136TIP3   OH227822   5.527   0.502   5.772 -0.4162  0.6502 -0.3491
 2136TIP3    H127823   5.580   0.436   5.817 -0.0536  1.0569 -0.1780
 2136TIP3    H227824   5.495   0.457   5.694 -1.0004 -0.0455  0.2687
 2137TIP3   OH227825   3.139   1.364   3.745  0.3291 -0.2191 -0.2003
 2137TIP3    H127826   3.121   1.455   3.719  0.6401  0.4416  1.7476
 2137TIP3    H227827   3.211   1.337   3.688 -0.1279  0.5355 -1.1876
 2138TIP3   OH227828   0.760   5.154   3.044  0.0600 -0.1675  0.8267
 2138TIP3    H127829   0.816   5.208   2.988  0.0832  0.3411  1.3304
 2138TIP3    H227830   0.815   5.130   3.118 -0.0665 -0.5627  0.7928
 2139TIP3   OH227831   5.895   3.672  16.817  0.7649 -0.2335  0.2159
 2139TIP3    H127832   5.979   3.714  16.799  0.5528  0.9604  1.8399
 2139TIP3    H227833   5.912   3.579  16.801  2.6388 -0.1291  1.3023
 2140TIP3   OH227834   3.683   0.856   1.041 -0.0076  0.5191  0.3500
 2140TIP3    H127835   3.682   0.897   1.127  1.2892  0.1207  0.5797
 2140TIP3    H227836   3.591   0.849   1.016 -0.3579  1.3128  1.3725
 2141TIP3   OH227837   5.917   3.054  12.595 -0.0316 -0.1948 -0.4872
 2141TIP3    H127838   5.843   3.084  12.649  1.1230  1.1220  0.4241
 2141TIP3    H227839   5.956   2.983  12.646 -0.8622 -1.1526 -1.1493
 2142TIP3   OH227840   0.753   2.596   4.894 -0.1020 -0.0418  0.1905
 2142TIP3    H127841   0.710   2.554   4.820 -1.0419  0.6017  0.3596
 2142TIP3    H227842   0.847   2.589   4.874 -0.3526  0.4529 -1.2459
 2143TIP3   OH227843   3.401   5.096   2.593 -0.2291  0.4455 -0.2962
 2143TIP3    H127844   3.328   5.034   2.594 -0.1641  0.3155 -1.6377
 2143TIP3    H227845   3.474   5.047   2.631 -0.9246  0.7477  1.5693
 2144TIP3   OH227846   1.729   3.149  11.611 -0.1747 -0.8659  0.2296
 2144TIP3    H127847   1.696   3.235  11.635 -1.1582 -1.3026  0.4644
 2144TIP3    H227848   1.700   3.136  11.521 -0.2408 -1.0539  0.2765
 2145TIP3   OH227849   6.776   2.563  13.146  0.3947  0.0696 -0.2811
 2145TIP3    H127850   6.701   2.548  13.088 -0.1085 -2.1254  0.8569
 2145TIP3    H227851   6.737   2.579  13.232  1.2011  1.2275 -0.1037
 2146TIP3   OH227852   3.891   6.510   4.236 -0.2891 -0.0025  0.3352
 2146TIP3    H127853   3.829   6.580   4.255 -1.1032 -0.6329  0.0605
 2146TIP3    H227854   3.924   6.483   4.321  0.9721  1.5273  0.3751
 2147TIP3   OH227855   2.363   4.472   3.489  0.0292 -0.0922  0.8147
 2147TIP3    H127856   2.420   4.412   3.442 -0.8348 -0.7257  0.5433
 2147TIP3    H227857   2.380   4.455   3.582 -0.1157 -0.6643  0.7368
 2148TIP3   OH227858   5.218   1.209   4.770 -0.0667 -0.3404  0.0906
 2148TIP3    H127859   5.216   1.203   4.675  0.4258  0.5492  0.0119
 2148TIP3    H227860   5.131   1.241   4.794 -0.1978 -0.5850 -0.0575
 2149TIP3   OH227861   4.675   1.798   5.707  0.0650  0.7521  0.0588
 2149TIP3    H127862   4.615   1.829   5.775 -0.1752  1.3872 -0.4314
 2149TIP3    H227863   4.716   1.721   5.745 -2.4448 -0.8930 -0.2869
 2150TIP3   OH227864   4.066   4.908   5.512 -0.0460 -0.2684 -0.0233
 2150TIP3    H127865   4.016   4.832   5.540  0.0554 -0.3901 -0.1736
 2150TIP3    H227866   4.001   4.964   5.468  0.0627 -0.6881 -0.7251
 2151TIP3   OH227867   1.178   5.108   2.417  0.3722 -0.0869 -0.0376
 2151TIP3    H127868   1.232   5.175   2.459 -1.6272  1.1027  0.7832
 2151TIP3    H227869   1.134   5.063   2.489  0.6171 -1.3718 -0.6627
 2152TIP3   OH227870   4.208   4.298  14.382  0.3257 -0.2432 -0.0838
 2152TIP3    H127871   4.272   4.266  14.446  0.7988  0.0247 -0.4151
 2152TIP3    H227872   4.199   4.227  14.319  0.0446 -0.4108  0.1432
 2153TIP3   OH227873   6.355   2.389   4.502 -0.6174 -0.8877 -0.3958
 2153TIP3    H127874   6.369   2.349   4.587  1.5501 -1.7375 -1.0971
 2153TIP3    H227875   6.394   2.328   4.439 -0.3955  0.6330 -1.8267
 2154TIP3   OH227876   5.356   3.143  11.435 -0.5627 -0.0469  0.1136
 2154TIP3    H127877   5.338   3.115  11.525  1.2796 -0.2879  0.4343
 2154TIP3    H227878   5.428   3.087  11.407 -0.5646  0.5978 -1.2389
 2155TIP3   OH227879   3.776   6.651  12.179 -0.6795 -0.2253 -0.0735
 2155TIP3    H127880   3.808   6.730  12.136 -1.1778  0.7433  1.2444
 2155TIP3    H227881   3.855   6.598  12.193 -0.2099  0.4177 -0.2212
 2156TIP3   OH227882   0.604   1.418  16.913 -0.0996 -0.0553 -0.2706
 2156TIP3    H127883   0.621   1.340  16.860  0.0909 -0.1235 -0.1082
 2156TIP3    H227884   0.529   1.459  16.870 -2.2158 -1.9468  1.3900
 2157TIP3   OH227885   1.388   6.163   0.905  0.2082 -0.2059  0.4517
 2157TIP3    H127886   1.330   6.122   0.841 -0.2103 -1.0414  1.3589
 2157TIP3    H227887   1.470   6.115   0.897  0.2605 -0.0989  0.3288
 2158TIP3   OH227888   5.920   6.470  16.871 -0.7874 -0.1495 -0.2723
 2158TIP3    H127889   5.880   6.523  16.940 -0.6902  1.1504 -1.1806
 2158TIP3    H227890   6.010   6.458  16.900 -0.8647  0.0165  0.0420
 2159TIP3   OH227891   6.570   0.599  15.303 -0.1781  0.0189  0.5512
 2159TIP3    H127892   6.488   0.567  15.267 -0.5858  1.1662  0.3988
 2159TIP3    H227893   6.610   0.523  15.346 -0.8450 -0.7776 -0.2113
 2160TIP3   OH227894   5.721   4.782  13.941 -0.0381 -0.2786 -0.3685
 2160TIP3    H127895   5.767   4.824  14.014 -0.5541  0.2973 -0.3701
 2160TIP3    H227896   5.646   4.739  13.982 -1.2566  1.4252 -0.7483
 2161TIP3   OH227897   4.647   0.246  10.996 -0.1465  0.3488 -0.1839
 2161TIP3    H127898   4.679   0.237  11.086  1.9722 -0.4109 -0.9530
 2161TIP3    H227899   4.726   0.250  10.943 -1.3560 -0.7418 -2.1732
 2162TIP3   OH227900   6.184   4.058  15.370 -0.1087  0.0226 -0.6073
 2162TIP3    H127901   6.258   4.001  15.388  1.3341  1.3997 -1.8694
 2162TIP3    H227902   6.214   4.145  15.396 -1.9235  0.3767  0.4458
 2163TIP3   OH227903   1.350   6.341   4.013 -0.9983 -0.3226 -0.1722
 2163TIP3    H127904   1.371   6.252   3.986 -1.5350 -0.9429  1.3417
 2163TIP3    H227905   1.416   6.396   3.969 -0.1066 -1.5551 -0.4199
 2164TIP3   OH227906   5.149   0.014   1.994  0.3258  0.3024 -0.0663
 2164TIP3    H127907   5.191  -0.038   1.926  1.0513  0.6668  0.0890
 2164TIP3    H227908   5.190  -0.015   2.076 -1.0008 -0.6019  0.3195
 2165TIP3   OH227909   2.714   6.531   3.309 -0.1095 -0.1886 -0.1273
 2165TIP3    H127910   2.786   6.520   3.371 -0.4534 -0.2189  0.2693
 2165TIP3    H227911   2.740   6.605   3.255  1.5374 -1.8730 -1.8346
 2166TIP3   OH227912   3.099   2.682   5.196  0.0539 -0.0208  0.4547
 2166TIP3    H127913   3.057   2.616   5.141 -0.1832  0.2748  0.2724
 2166TIP3    H227914   3.185   2.695   5.157 -0.1907  0.3395  0.0206
 2167TIP3   OH227915   2.302   2.897   5.656 -0.2381 -0.5579 -0.2328
 2167TIP3    H127916   2.268   2.879   5.569  0.0570 -0.6980 -0.3203
 2167TIP3    H227917   2.228   2.884   5.715 -0.4761 -0.3094 -0.4805
 2168TIP3   OH227918   4.077   2.674  12.442  0.4125  0.3252  0.4504
 2168TIP3    H127919   4.140   2.629  12.498  0.7010 -1.5327 -1.2387
 2168TIP3    H227920   4.040   2.605  12.387  0.0964  2.0078 -1.5957
 2169TIP3   OH227921   6.548   4.780   4.337  0.0738 -0.1029 -0.4003
 2169TIP3    H127922   6.515   4.870   4.344 -0.0714 -0.2304  0.6140
 2169TIP3    H227923   6.638   4.785   4.369  0.5466 -0.0685 -1.6542
 2170TIP3   OH227924   3.160   1.557   2.249 -0.6040  0.5807  0.4626
 2170TIP3    H127925   3.190   1.578   2.338 -0.3444  0.9275  0.2959
 2170TIP3    H227926   3.070   1.589   2.246 -0.7057  0.3251  0.6842
 2171TIP3   OH227927   2.888   1.153   4.995  0.4554 -0.0535  0.2428
 2171TIP3    H127928   2.798   1.148   4.963  1.0252 -3.5172 -1.2691
 2171TIP3    H227929   2.889   1.231   5.051 -3.0729  0.9185 -0.7794
 2172TIP3   OH227930   3.901   5.223   5.653  0.3528 -0.2949  0.7998
 2172TIP3    H127931   3.922   5.152   5.593  0.0441 -0.8544  1.3341
 2172TIP3    H227932   3.957   5.296   5.625  0.3609 -0.6076 -0.0227
 2173TIP3   OH227933   4.751   3.749  14.647  0.4844  0.3195  0.0284
 2173TIP3    H127934   4.691   3.743  14.721 -0.8271 -1.7419 -1.1125
 2173TIP3    H227935   4.706   3.705  14.575  2.9806 -0.5210 -1.1458
 2174TIP3   OH227936   0.723   0.661  11.264  0.3484  0.3276  0.5127
 2174TIP3    H127937   0.701   0.700  11.348  1.6347  2.4692 -0.0469
 2174TIP3    H227938   0.817   0.677  11.254  0.5594 -1.3294 -0.6280
 2175TIP3   OH227939   5.917   4.498   0.195 -0.1151 -0.4802 -0.1738
 2175TIP3    H127940   5.890   4.519   0.285  0.2858  2.3471 -0.6140
 2175TIP3    H227941   5.964   4.415   0.203 -0.0913 -0.3088  2.2256
 2176TIP3   OH227942   2.391   3.819  13.520 -0.2801  0.2047 -0.2424
 2176TIP3    H127943   2.484   3.825  13.501  0.2005 -0.3246  1.6832
 2176TIP3    H227944   2.373   3.893  13.578 -0.5636 -0.8285  1.0518
 2177TIP3   OH227945   5.177   5.998   1.243 -0.1203  0.0737  0.0918
 2177TIP3    H127946   5.083   5.985   1.251 -0.3589  0.6356 -1.5587
 2177TIP3    H227947   5.211   5.912   1.217 -0.5375  0.4739 -1.8875
 2178TIP3   OH227948   3.322   2.824   0.170 -0.3655 -0.4610 -0.4279
 2178TIP3    H127949   3.387   2.894   0.162 -0.9360  0.0533 -0.5914
 2178TIP3    H227950   3.372   2.750   0.203  0.1275  0.2077  0.3793
 2179TIP3   OH227951   3.179   6.497  15.529 -0.3478 -0.3298  0.3484
 2179TIP3    H127952   3.172   6.568  15.592  1.3556 -0.1178  0.3463
 2179TIP3    H227953   3.090   6.461  15.522 -0.5015 -0.7099  3.2485
 2180TIP3   OH227954   1.773   1.670  10.900 -0.5021  0.4092 -0.2761
 2180TIP3    H127955   1.823   1.712  10.830 -0.1505  0.9925  0.3198
 2180TIP3    H227956   1.691   1.720  10.904 -1.0605 -0.4025 -1.0969
 2181TIP3   OH227957   4.012   5.117   3.258  0.4667  0.3110 -0.3564
 2181TIP3    H127958   4.098   5.076   3.251  0.4231  0.2886 -0.7706
 2181TIP3    H227959   3.951   5.052   3.223  0.1465 -0.0958  0.9085
 2182TIP3   OH227960   1.530   1.019   3.657  0.1670 -0.0397  0.1100
 2182TIP3    H127961   1.595   0.954   3.633 -0.1192 -0.2420 -0.1227
 2182TIP3    H227962   1.571   1.103   3.637 -0.2585 -0.2044 -1.6423
 2183TIP3   OH227963   3.677   1.622  16.149  0.3092 -0.0347 -0.4805
 2183TIP3    H127964   3.595   1.589  16.186  0.7753 -0.9726 -0.2551
 2183TIP3    H227965   3.650   1.696  16.093 -0.7360 -0.6341 -0.7935
 2184TIP3   OH227966   0.485   0.877   1.374  0.3717  0.6411 -0.2882
 2184TIP3    H127967   0.524   0.909   1.293  0.7732 -0.0522 -0.3780
 2184TIP3    H227968   0.412   0.937   1.391 -0.4383  0.1339 -1.7837
 2185TIP3   OH227969   1.104   1.705   2.820  0.1049 -0.3300  0.2339
 2185TIP3    H127970   1.042   1.684   2.890 -1.2937 -0.4082 -0.9894
 2185TIP3    H227971   1.050   1.742   2.751  1.5497  0.3673 -0.5675
 2186TIP3   OH227972   1.173   6.587  11.517  0.5437  0.2028  0.6073
 2186TIP3    H127973   1.168   6.499  11.479 -0.2194  0.3404  0.3763
 2186TIP3    H227974   1.081   6.613  11.529  0.7629  1.1586  0.2298
 2187TIP3   OH227975   3.303   0.982   4.466  0.1297  0.0793  0.0606
 2187TIP3    H127976   3.294   1.053   4.402 -1.4978 -0.6713 -0.6067
 2187TIP3    H227977   3.370   0.925   4.429 -0.1730  0.1074 -0.5557
 2188TIP3   OH227978   4.279   5.271  12.284  0.0665 -0.4233 -0.0277
 2188TIP3    H127979   4.198   5.274  12.335 -1.1482 -0.6140 -1.8147
 2188TIP3    H227980   4.272   5.189  12.234  0.4475  0.4381 -1.5609
 2189TIP3   OH227981   1.598   4.354   2.004  0.1250  0.5043 -0.1469
 2189TIP3    H127982   1.595   4.336   1.910  2.1366 -1.6505  0.1044
 2189TIP3    H227983   1.633   4.443   2.010 -0.4006  0.8209 -1.4249
 2190TIP3   OH227984   4.418   2.746  12.202  0.1248 -0.6391  0.1928
 2190TIP3    H127985   4.505   2.723  12.171  0.3682 -1.3122  1.3280
 2190TIP3    H227986   4.431   2.776  12.292 -1.0298 -2.8957  1.2037
 2191TIP3   OH227987   5.854   6.163  13.580 -0.5138 -0.4041  0.0782
 2191TIP3    H127988   5.927   6.167  13.642 -2.2873  2.4382  2.2612
 2191TIP3    H227989   5.866   6.080  13.535  4.4334  0.1765 -0.2892
 2192TIP3   OH227990   5.707   2.406  11.751  0.0060  0.2287 -0.1029
 2192TIP3    H127991   5.745   2.488  11.785  1.0199  0.2648 -1.2742
 2192TIP3    H227992   5.711   2.415  11.656  0.3099 -1.2680 -0.2545
 2193TIP3   OH227993   6.057   2.437  13.117 -0.1193  0.0600 -0.1977
 2193TIP3    H127994   6.147   2.458  13.093 -0.8773  1.6879 -1.8399
 2193TIP3    H227995   6.008   2.516  13.097 -1.4879  0.3327  3.5260
 2194TIP3   OH227996   4.199   1.844   2.358 -0.2160  0.1190  0.2062
 2194TIP3    H127997   4.119   1.835   2.410  0.3572  0.8330  1.2510
 2194TIP3    H227998   4.179   1.915   2.297 -0.8194 -0.5742 -0.4181
 2195TIP3   OH227999   3.579   1.842   5.314  0.6166 -0.7657 -0.0826
 2195TIP3    H128000   3.560   1.782   5.242  3.0246 -2.5571  0.6551
 2195TIP3    H228001   3.583   1.787   5.392 -0.0638  0.8467  1.1473
 2196TIP3   OH228002   1.911   3.574  11.611  0.5284 -0.2708  0.0398
 2196TIP3    H128003   1.931   3.569  11.518 -1.9274  0.3908 -0.5914
 2196TIP3    H228004   1.843   3.509  11.626  2.6565 -2.2204  1.9959
 2197TIP3   OH228005   0.848   4.461   5.155 -0.8521 -0.0409  0.5619
 2197TIP3    H128006   0.897   4.470   5.073 -0.4721 -1.5122  0.5922
 2197TIP3    H228007   0.892   4.389   5.201 -1.0894  0.7375  2.0483
 2198TIP3   OH228008   5.032   4.954   6.171 -0.0481 -0.2773 -0.6580
 2198TIP3    H128009   5.109   4.897   6.177 -2.0237 -3.0254  1.4325
 2198TIP3    H228010   5.014   4.978   6.262 -1.1535  1.0334 -1.2018
 2199TIP3   OH228011   1.943   3.874  11.553 -0.2902  0.0260 -0.3016
 2199TIP3    H128012   1.962   3.782  11.574 -0.6698  0.1954  0.8104
 2199TIP3    H228013   1.988   3.889  11.470 -1.4198 -1.6069 -1.2868
 2200TIP3   OH228014   4.288   0.847  14.724  0.2298 -0.2285  0.4221
 2200TIP3    H128015   4.329   0.794  14.655 -2.0361 -4.0969  1.7155
 2200TIP3    H228016   4.212   0.887  14.682  1.4242  1.3105 -0.3454
 2201TIP3   OH228017   3.904   0.907  11.989  0.1313 -0.2288 -0.2082
 2201TIP3    H128018   3.855   0.989  11.982  0.7603  0.0496 -1.7893
 2201TIP3    H228019   3.842   0.840  11.959 -0.3336 -0.3350  0.9442
 2202TIP3   OH228020   1.593   5.370  11.064 -0.0304  0.5703 -0.5778
 2202TIP3    H128021   1.684   5.371  11.035  0.6001 -1.3624  1.1030
 2202TIP3    H228022   1.592   5.423  11.143 -0.6115  1.4316 -1.1490
 2203TIP3   OH228023   0.325   2.906  13.052 -0.2314  0.2462  0.2915
 2203TIP3    H128024   0.252   2.933  12.997 -0.4701 -1.0587 -0.0535
 2203TIP3    H228025   0.302   2.819  13.083  1.1818 -0.2126  0.1568
 2204TIP3   OH228026   3.739   0.310  11.983 -0.2708  0.6114 -0.1239
 2204TIP3    H128027   3.657   0.276  12.019 -0.2364  1.6866  1.0298
 2204TIP3    H228028   3.745   0.271  11.896 -1.1698 -0.8063  0.4117
 2205TIP3   OH228029   2.715   3.467  11.968 -0.2606  0.6229 -0.3834
 2205TIP3    H128030   2.702   3.551  12.011  0.0193 -0.8777  2.8969
 2205TIP3    H228031   2.799   3.476  11.923 -0.7963  2.4219 -1.1042
 2206TIP3   OH228032   2.476   0.015  11.552  0.1431  0.1705  0.3296
 2206TIP3    H128033   2.403  -0.047  11.563 -0.3975  1.0536  2.0851
 2206TIP3    H228034   2.491   0.017  11.457 -0.8033 -1.5082  0.0960
 2207TIP3   OH228035   3.746   1.207  16.943 -0.0161 -0.1224 -0.1209
 2207TIP3    H128036   3.778   1.177  17.028  0.4834  0.7298 -0.0022
 2207TIP3    H228037   3.720   1.126  16.897  1.0463 -0.7087  0.2938
 2208TIP3   OH228038   5.698   2.916   6.093  0.7182 -0.2574  0.1884
 2208TIP3    H128039   5.759   2.958   6.033 -1.3075  1.2322 -0.9628
 2208TIP3    H228040   5.642   2.862   6.036 -0.0536 -0.3218  0.9858
 2209TIP3   OH228041   6.040   5.875  12.618 -0.5887 -0.8662  0.0493
 2209TIP3    H128042   6.101   5.927  12.566 -0.5659 -2.0460 -1.1472
 2209TIP3    H228043   6.037   5.920  12.703 -0.2596  0.8247 -0.7912
 2210TIP3   OH228044   1.353   4.222  17.146  0.5352  0.2281 -0.0901
 2210TIP3    H128045   1.362   4.305  17.099 -0.4163  1.1036  1.2064
 2210TIP3    H228046   1.370   4.155  17.080  1.7587  1.4485 -1.0727
 2211TIP3   OH228047   3.423   2.145  16.742 -0.5068  0.0219  0.5963
 2211TIP3    H128048   3.502   2.138  16.795 -0.1054 -1.4157 -0.1572
 2211TIP3    H228049   3.358   2.094  16.789 -0.5802  0.0083  0.4801
 2212TIP3   OH228050   5.800   2.895   0.678  0.3808  0.2302  0.5824
 2212TIP3    H128051   5.790   2.900   0.583  0.4888 -1.0819  0.4855
 2212TIP3    H228052   5.862   2.824   0.693  1.1105  1.0508  1.6124
 2213TIP3   OH228053   1.960   2.243  17.107  0.3278  0.0499 -0.3863
 2213TIP3    H128054   1.922   2.313  17.054  1.5639  1.2392  0.2185
 2213TIP3    H228055   1.915   2.164  17.078 -0.8417  1.0264 -1.3767
 2214TIP3   OH228056   1.426   6.130  15.338 -0.5563 -0.0363 -0.1879
 2214TIP3    H128057   1.505   6.183  15.322 -1.1755  0.8681 -0.3303
 2214TIP3    H228058   1.451   6.072  15.410  0.2678  0.1898 -0.2777
 2215TIP3   OH228059   4.852   5.613   5.024 -0.1388 -0.6681  0.5059
 2215TIP3    H128060   4.860   5.546   4.956 -0.8298 -1.1652  0.9068
 2215TIP3    H228061   4.904   5.686   4.991 -1.3211 -0.4790 -1.0875
 2216TIP3   OH228062   3.731   3.307  15.218 -0.2402  0.4568 -0.1334
 2216TIP3    H128063   3.824   3.286  15.224  0.1296  1.7188 -0.8833
 2216TIP3    H228064   3.694   3.279  15.301  0.4286 -1.7384 -0.5207
 2217TIP3   OH228065   1.827   3.096   0.298  0.0307  0.5225 -0.1318
 2217TIP3    H128066   1.783   3.176   0.328 -0.8621  0.8656 -2.1832
 2217TIP3    H228067   1.780   3.071   0.218  1.1739 -1.2904 -0.3065
 2218TIP3   OH228068   3.397   0.395  12.517  0.2000 -0.1747 -0.1684
 2218TIP3    H128069   3.469   0.340  12.484  1.2505  1.1761 -0.2385
 2218TIP3    H228070   3.440   0.477  12.542 -0.9625 -0.2162  2.1582
 2219TIP3   OH228071   1.230   2.728   0.878  0.6738 -0.7219  0.7113
 2219TIP3    H128072   1.208   2.820   0.862  1.5128 -0.7621 -0.8817
 2219TIP3    H228073   1.274   2.700   0.798  0.7173 -2.4316  1.3014
 2220TIP3   OH228074   4.810   4.669  15.493 -0.6308 -0.4820 -0.0335
 2220TIP3    H128075   4.827   4.756  15.455  0.2700 -0.2642  0.8420
 2220TIP3    H228076   4.877   4.613  15.455 -1.2822 -0.8478 -0.6878
 2221TIP3   OH228077   1.793   3.690  14.711 -0.1406  0.8292  0.5560
 2221TIP3    H128078   1.805   3.748  14.636  1.5626 -0.6344 -0.3674
 2221TIP3    H228079   1.796   3.748  14.787  0.0224  2.1089 -0.3941
 2222TIP3   OH228080   2.581   1.742   1.123 -0.2005  0.1596  0.0266
 2222TIP3    H128081   2.656   1.770   1.176  0.2539 -1.6162  0.4131
 2222TIP3    H228082   2.620   1.710   1.042 -0.3050 -2.2577  0.8445
 2223TIP3   OH228083   4.366   6.749   3.042  0.3010 -0.5199  0.6777
 2223TIP3    H128084   4.391   6.758   2.950 -1.3541 -1.2912  0.1111
 2223TIP3    H228085   4.304   6.676   3.043 -1.2121  0.7014  2.0840
 2224TIP3   OH228086   3.237   5.640  16.131  0.1664  0.2231 -0.4573
 2224TIP3    H128087   3.142   5.644  16.141  0.0651 -1.3052 -0.4778
 2224TIP3    H228088   3.251   5.587  16.053  1.0472  1.3745 -1.1056
 2225TIP3   OH228089   0.352   2.367   4.015  0.0254  0.7190 -0.4134
 2225TIP3    H128090   0.385   2.289   4.060 -0.6297  2.0684  2.6875
 2225TIP3    H228091   0.422   2.390   3.953  1.1401 -1.1379  0.0562
 2226TIP3   OH228092   5.474   5.013   4.073  0.0838 -0.0555  0.3515
 2226TIP3    H128093   5.489   5.052   3.986 -0.4968  0.9538  0.6859
 2226TIP3    H228094   5.391   4.967   4.065  0.6886 -1.1331  0.0047
 2227TIP3   OH228095   2.927   3.751  10.586 -0.2090  0.4646  0.9416
 2227TIP3    H128096   2.887   3.835  10.562 -0.3388  0.1927  0.1787
 2227TIP3    H228097   2.987   3.773  10.658  0.3546  1.3544  0.2308
 2228TIP3   OH228098   3.461   0.386  12.923  0.2647 -0.6593  0.3634
 2228TIP3    H128099   3.449   0.295  12.897 -0.8975 -0.3223 -0.3733
 2228TIP3    H228100   3.467   0.384  13.018  2.7332 -1.7440  0.2339
 2229TIP3   OH228101   5.005   3.245   1.218  0.4337 -0.0175  0.9009
 2229TIP3    H128102   4.917   3.229   1.184  0.6855  1.2861 -0.4606
 2229TIP3    H228103   5.063   3.199   1.158  0.8320  1.5423  0.0296
 2230TIP3   OH228104   6.317   6.094   3.452  0.5933 -0.2475  0.2191
 2230TIP3    H128105   6.293   6.063   3.540  0.7420 -1.4026 -0.1283
 2230TIP3    H228106   6.365   6.021   3.414  0.1302  0.0697 -1.0046
 2231TIP3   OH228107   2.354   2.473   2.494 -0.6243 -0.2112  0.1975
 2231TIP3    H128108   2.339   2.525   2.573 -1.0004  0.4079 -0.2684
 2231TIP3    H228109   2.446   2.489   2.472 -1.0803  1.4448 -0.7385
 2232TIP3   OH228110   0.263   0.737   2.573  0.4506  0.0002 -1.0629
 2232TIP3    H128111   0.313   0.778   2.643 -0.0420 -1.3794  0.1610
 2232TIP3    H228112   0.270   0.643   2.591 -1.6380 -0.2774 -1.4831
 2233TIP3   OH228113   5.048   3.752   6.298  0.2727 -0.6345 -0.5145
 2233TIP3    H128114   5.063   3.806   6.221 -1.3818  1.8095  0.7485
 2233TIP3    H228115   4.954   3.761   6.316  0.6563 -0.8228  1.9662
 2234TIP3   OH228116   5.883   4.841  14.759 -0.0162 -0.1810 -0.2270
 2234TIP3    H128117   5.932   4.909  14.804 -0.9317  0.1410  0.2968
 2234TIP3    H228118   5.884   4.767  14.820  2.7433 -1.4362 -1.6149
 2235TIP3   OH228119   3.549   0.622  16.960 -0.5676 -0.0502 -0.1609
 2235TIP3    H128120   3.612   0.694  16.968 -1.5413  0.8017  0.0594
 2235TIP3    H228121   3.543   0.586  17.048  0.0769 -0.5447 -0.3137
 2236TIP3   OH228122   3.122   3.538  10.683 -0.1794 -0.0806 -0.7226
 2236TIP3    H128123   3.074   3.601  10.630  1.9666  1.4379 -1.0278
 2236TIP3    H228124   3.128   3.578  10.769  0.7113 -0.1188 -0.7541
 2237TIP3   OH228125   1.103   3.273   2.079  0.1322 -0.5606  0.0957
 2237TIP3    H128126   1.073   3.363   2.070  0.4894 -0.6020 -2.0687
 2237TIP3    H228127   1.178   3.278   2.139  0.1498  0.5767  0.0012
 2238TIP3   OH228128   3.500   6.528  13.134  0.5668  0.0849  0.1686
 2238TIP3    H128129   3.533   6.535  13.224 -2.0420 -0.1703  1.2431
 2238TIP3    H228130   3.459   6.441  13.131 -0.7053  0.6914 -0.7807
 2239TIP3   OH228131   6.341   3.140  16.493 -0.5748  1.1111 -0.1719
 2239TIP3    H128132   6.259   3.092  16.483  0.9127 -2.0075  1.3670
 2239TIP3    H228133   6.322   3.227  16.457 -4.2721  0.2955 -0.6048
 2240TIP3   OH228134   5.356   6.514   1.551  0.2780  0.4482  0.0895
 2240TIP3    H128135   5.416   6.471   1.489  1.2514  2.4887 -0.4606
 2240TIP3    H228136   5.328   6.443   1.609  0.4402 -1.2673 -1.7940
 2241TIP3   OH228137   0.628   0.171  15.155 -0.3524 -0.1487  0.4594
 2241TIP3    H128138   0.652   0.256  15.192 -1.0613 -0.3445  1.4142
 2241TIP3    H228139   0.568   0.192  15.084 -0.1893  0.1659  0.4109
 2242TIP3   OH228140   4.012   2.829  11.728 -0.1914 -0.4674  0.1804
 2242TIP3    H128141   4.090   2.831  11.671 -0.2074  3.0077  0.0709
 2242TIP3    H228142   3.980   2.739  11.721  2.6486 -1.4984 -1.3535
 2243TIP3   OH228143   2.382   2.769   1.898 -0.0146 -0.2766 -0.1460
 2243TIP3    H128144   2.326   2.844   1.877 -1.2810 -0.6584  1.6531
 2243TIP3    H228145   2.447   2.804   1.959  1.3649  0.0090 -1.7074
 2244TIP3   OH228146   3.361   1.831   3.190 -1.1302  0.1898 -0.5290
 2244TIP3    H128147   3.456   1.846   3.183 -1.0530  1.3544  1.9702
 2244TIP3    H228148   3.354   1.740   3.219 -0.8620 -0.2237 -1.7004
 2245TIP3   OH228149   6.552   6.755  15.612 -0.7408 -0.1168 -0.0505
 2245TIP3    H128150   6.486   6.824  15.606 -0.4565  0.3156  1.4336
 2245TIP3    H228151   6.586   6.762  15.701  3.0926  1.3268 -1.4316
 2246TIP3   OH228152   3.306   0.527  11.642  0.2348 -0.1128  0.1726
 2246TIP3    H128153   3.323   0.586  11.568 -0.4818 -0.1323 -0.0115
 2246TIP3    H228154   3.324   0.440  11.607  1.5936  0.0031  0.5346
 2247TIP3   OH228155   3.792   6.609   3.520  0.2429  0.0159 -0.0551
 2247TIP3    H128156   3.787   6.702   3.494 -1.5324 -0.3968 -1.4136
 2247TIP3    H228157   3.849   6.569   3.454 -1.1893 -0.3257 -1.1297
 2248TIP3   OH228158   0.542   4.288  15.853 -0.3862 -0.6443  0.4441
 2248TIP3    H128159   0.474   4.248  15.906 -0.7381 -0.6376  0.0085
 2248TIP3    H228160   0.620   4.236  15.871 -0.0858  0.3446  2.1912
 2249TIP3   OH228161   1.559   4.607  12.030 -0.4213  0.6070  0.3728
 2249TIP3    H128162   1.646   4.577  12.004  0.3944  0.2951  3.1673
 2249TIP3    H228163   1.503   4.530  12.018 -0.4212  0.8628 -1.6178
 2250TIP3   OH228164   6.636   0.023   0.830 -0.9480  0.6739 -0.0629
 2250TIP3    H128165   6.648   0.026   0.735 -0.9694 -0.4898 -0.1073
 2250TIP3    H228166   6.591   0.105   0.851 -0.3226  1.2709 -0.9586
 2251TIP3   OH228167   1.937   2.871   3.764  0.5520  0.1717  0.8356
 2251TIP3    H128168   2.002   2.848   3.830 -0.4515  0.3874  1.9277
 2251TIP3    H228169   1.854   2.839   3.799 -0.1114  0.9365  0.0230
 2252TIP3   OH228170   3.686   4.482  14.262  0.4487  0.1022  0.2999
 2252TIP3    H128171   3.765   4.469  14.210 -1.1256  0.6209 -2.3985
 2252TIP3    H228172   3.667   4.396  14.298  1.9672 -0.1227  0.6587
 2253TIP3   OH228173   4.541   2.418   1.185  0.3587  0.2896 -0.0334
 2253TIP3    H128174   4.598   2.344   1.167  0.0714  0.0317  0.1041
 2253TIP3    H228175   4.600   2.487   1.215  0.4781 -0.4405  1.5461
 2254TIP3   OH228176   3.863   5.998  14.826 -0.1376  0.7715  0.5945
 2254TIP3    H128177   3.944   5.987  14.775  0.9521  2.0166  1.9816
 2254TIP3    H228178   3.887   5.973  14.915 -1.3025  1.1176  1.0221
 2255TIP3   OH228179   6.585   1.767  15.770  0.2795  0.2389  0.3388
 2255TIP3    H128180   6.655   1.818  15.810  0.1664  0.8285 -0.1960
 2255TIP3    H228181   6.625   1.681  15.753  0.6210  0.3077  0.7909
 2256TIP3   OH228182   4.766   1.090   6.435 -0.4472 -0.0127  0.2751
 2256TIP3    H128183   4.737   1.002   6.457  2.7212 -1.0696  0.6852
 2256TIP3    H228184   4.745   1.100   6.342 -1.0636 -1.0788  0.2866
 2257TIP3   OH228185   0.558   1.517  12.539 -0.4640  0.0091  0.4442
 2257TIP3    H128186   0.551   1.575  12.615  0.2406 -1.0084  1.3287
 2257TIP3    H228187   0.612   1.444  12.570  2.7851  1.1359 -1.9902
 2258TIP3   OH228188   6.592   2.830  13.640 -0.0417  0.2727 -1.1382
 2258TIP3    H128189   6.655   2.795  13.703 -0.5040  0.3302 -0.6360
 2258TIP3    H228190   6.547   2.900  13.687 -2.4784 -1.6018 -0.4488
 2259TIP3   OH228191   6.193   4.692   3.035 -0.0194  0.1667 -0.1253
 2259TIP3    H128192   6.163   4.724   3.120  0.2307 -0.4301  0.1968
 2259TIP3    H228193   6.214   4.772   2.986 -1.3303  0.5586 -0.0756
 2260TIP3   OH228194   0.370   1.167   5.071 -0.0078 -0.5320  0.5156
 2260TIP3    H128195   0.356   1.261   5.073  2.3147 -0.1286  2.8603
 2260TIP3    H228196   0.288   1.130   5.105 -0.4883  0.6994  0.7394
 2261TIP3   OH228197   2.563   3.164   4.469 -0.2466  0.2584  0.0729
 2261TIP3    H128198   2.550   3.168   4.374 -0.0185  1.2299  0.0746
 2261TIP3    H228199   2.540   3.251   4.500 -0.6828 -0.1698  0.9675
 2262TIP3   OH228200   5.736   4.546   3.036  0.0600 -0.1132 -0.4948
 2262TIP3    H128201   5.719   4.584   2.950 -1.3491  1.2085  0.3417
 2262TIP3    H228202   5.679   4.593   3.096  0.3050 -1.6683  1.0401
 2263TIP3   OH228203   2.673   6.601   4.594  0.4226  0.4235  0.1524
 2263TIP3    H128204   2.636   6.689   4.592  2.3745  1.2904  0.4993
 2263TIP3    H228205   2.767   6.614   4.585  0.8318 -1.5781  1.0339
 2264TIP3   OH228206   5.816   0.368  11.162 -0.1333 -0.4744  0.1929
 2264TIP3    H128207   5.896   0.376  11.215 -0.5627 -1.0646  0.9483
 2264TIP3    H228208   5.790   0.276  11.171 -1.3875 -0.0964  0.6900
 2265TIP3   OH228209   4.518   5.882  16.233 -0.4047 -0.6896  0.2271
 2265TIP3    H128210   4.425   5.887  16.212  0.5376 -0.0666 -5.4170
 2265TIP3    H228211   4.536   5.788  16.239 -0.9616 -1.0019 -2.1090
 2266TIP3   OH228212   2.324   0.734   4.109  0.2615  0.0928 -0.1068
 2266TIP3    H128213   2.313   0.652   4.060  1.1738 -1.3015  1.8799
 2266TIP3    H228214   2.297   0.802   4.048 -1.9424 -1.7654 -1.3906
 2267TIP3   OH228215   5.573   3.692  15.134  0.3731 -0.7347 -0.7909
 2267TIP3    H128216   5.568   3.751  15.060 -0.7584  0.4619  0.2060
 2267TIP3    H228217   5.483   3.681  15.163  0.8128 -0.9506  0.5791
 2268TIP3   OH228218   6.777   0.781   3.818  0.1421 -0.1297  0.1170
 2268TIP3    H128219   6.737   0.864   3.844 -0.6311  0.0908 -1.6745
 2268TIP3    H228220   6.706   0.717   3.824  0.7845 -0.7600  1.7006
 2269TIP3   OH228221   0.547   6.573   3.616 -0.6022 -0.3235 -0.5770
 2269TIP3    H128222   0.591   6.591   3.699  0.8269 -1.4225 -1.0418
 2269TIP3    H228223   0.569   6.647   3.560  0.9241 -0.9639 -0.8748
 2270TIP3   OH228224   6.530   5.266  13.667  0.0202 -1.1449  0.0250
 2270TIP3    H128225   6.559   5.176  13.649  1.1092 -1.2507  1.9682
 2270TIP3    H228226   6.444   5.272  13.627 -0.6185 -3.4898  0.8528
 2271TIP3   OH228227   2.284   3.251  13.990 -0.0234  0.8059  0.2713
 2271TIP3    H128228   2.211   3.307  13.963  0.6703  1.5117 -0.1897
 2271TIP3    H228229   2.307   3.282  14.077 -1.9024 -1.1108  1.5806
 2272TIP3   OH228230   3.592   0.138  16.339 -0.3070  0.0613  0.7565
 2272TIP3    H128231   3.632   0.054  16.360 -1.0094 -0.5510 -0.2636
 2272TIP3    H228232   3.575   0.178  16.424  2.5509  0.4452  1.2608
 2273TIP3   OH228233   5.436   3.254  14.605 -0.7450  0.2597  0.1464
 2273TIP3    H128234   5.495   3.269  14.530 -0.4570 -0.2317  0.2681
 2273TIP3    H228235   5.375   3.187  14.574 -0.5155 -0.0739  0.4033
 2274TIP3   OH228236   5.000   0.320  14.723 -0.2707  1.1333  0.5373
 2274TIP3    H128237   5.091   0.294  14.734 -0.4018  1.1727  1.9085
 2274TIP3    H228238   4.978   0.366  14.804 -1.2920  1.7954 -0.0827
 2275TIP3   OH228239   1.081   3.230  13.914 -0.0416  0.0009  0.4875
 2275TIP3    H128240   1.127   3.314  13.903 -0.3945  0.0998 -0.3328
 2275TIP3    H228241   1.102   3.182  13.834  1.3573 -1.2952  1.5748
 2276TIP3   OH228242   2.126   0.498  14.212  0.1189  0.1296  0.1128
 2276TIP3    H128243   2.126   0.585  14.170  2.2718 -0.1839 -0.6856
 2276TIP3    H228244   2.168   0.512  14.297  0.6073 -0.1339 -0.0795
 2277TIP3   OH228245   0.822   3.727   5.791 -0.1853 -0.2319 -0.1944
 2277TIP3    H128246   0.893   3.788   5.773  0.8201 -0.8642  1.3158
 2277TIP3    H228247   0.744   3.766   5.751  1.0429  0.3485 -2.1439
 2278TIP3   OH228248   4.454   6.654  13.561  0.5182  0.1497 -0.0566
 2278TIP3    H128249   4.434   6.745  13.584  0.0677 -0.3176  1.5385
 2278TIP3    H228250   4.550   6.651  13.557  0.5806  0.5063  0.8331
 2279TIP3   OH228251   0.442   5.341  11.224  0.4937  0.0892  0.1061
 2279TIP3    H128252   0.453   5.251  11.195  0.3577  0.1711 -0.2107
 2279TIP3    H228253   0.359   5.368  11.185 -0.2129 -0.1212  1.4066
 2280TIP3   OH228254   4.572   4.041   0.620  0.5477  0.9570  0.2318
 2280TIP3    H128255   4.575   4.084   0.706 -1.2637  0.5061  0.5666
 2280TIP3    H228256   4.626   3.962   0.632  1.0361  1.3416  0.6693
 2281TIP3   OH228257   3.770   0.767   4.800 -0.0643  0.5497 -0.0017
 2281TIP3    H128258   3.718   0.834   4.756  0.9940  2.2370  1.1850
 2281TIP3    H228259   3.710   0.730   4.865 -0.4936  0.8067 -0.2442
 2282TIP3   OH228260   4.509   4.920  16.713 -0.0919  0.5178 -0.6270
 2282TIP3    H128261   4.523   4.970  16.633 -0.7001  2.0854  0.1890
 2282TIP3    H228262   4.423   4.948  16.743  0.0036 -0.2624  0.4350
 2283TIP3   OH228263   0.578   0.380   5.575 -0.3115  0.4862  0.3627
 2283TIP3    H128264   0.570   0.299   5.526  1.6835  0.9867 -0.9230
 2283TIP3    H228265   0.562   0.355   5.666 -0.3145 -1.2293 -0.0752
 2284TIP3   OH228266   4.745   1.984  14.806  0.2877  0.5772  0.7811
 2284TIP3    H128267   4.739   1.891  14.829  0.5982 -0.1626 -1.8194
 2284TIP3    H228268   4.653   2.011  14.795  0.2166  0.3472  0.7851
 2285TIP3   OH228269   0.376   3.038   5.636  0.5476  0.0786  0.7728
 2285TIP3    H128270   0.471   3.033   5.645  0.7013 -1.1533 -0.9767
 2285TIP3    H228271   0.360   3.024   5.543 -1.4409 -1.7579  1.3026
 2286TIP3   OH228272   6.034   3.394   0.568 -0.1311  0.3272 -0.0362
 2286TIP3    H128273   6.002   3.445   0.494 -1.3828 -0.8814 -0.3538
 2286TIP3    H228274   5.958   3.344   0.598  0.7123 -0.2888  1.1613
 2287TIP3   OH228275   1.125   0.661   3.983  0.0394  0.5686 -0.4474
 2287TIP3    H128276   1.156   0.708   4.061  2.5546 -0.4290 -0.7599
 2287TIP3    H228277   1.107   0.572   4.015  1.7775 -0.0470 -1.0834
 2288TIP3   OH228278   1.968   4.938   4.529  0.6646  0.4005 -0.5349
 2288TIP3    H128279   1.970   5.033   4.540  0.1794  0.1995  2.0838
 2288TIP3    H228280   2.049   4.917   4.483 -0.6831  2.2851 -4.1553
 2289TIP3   OH228281   5.939   6.402   3.059  0.3844 -0.1689 -0.1202
 2289TIP3    H128282   5.849   6.433   3.054  0.7114  0.6849 -1.1130
 2289TIP3    H228283   5.990   6.480   3.084  0.6489 -1.0592  2.4708
 2290TIP3   OH228284   4.896   1.313  12.232 -0.0769  0.0381  0.3381
 2290TIP3    H128285   4.849   1.372  12.291 -1.0259  0.3678 -0.6904
 2290TIP3    H228286   4.866   1.226  12.255  0.5307  0.0423  1.1716
 2291TIP3   OH228287   1.585   5.000   3.306 -0.3311  0.2600 -0.1088
 2291TIP3    H128288   1.584   4.922   3.251 -2.3281 -0.4573  0.8545
 2291TIP3    H228289   1.659   4.987   3.365 -0.0640 -0.4232 -0.5839
 2292TIP3   OH228290   6.486   5.959  13.465  0.2915 -0.2086  0.1032
 2292TIP3    H128291   6.547   5.997  13.401 -0.2302  0.2030 -0.1607
 2292TIP3    H228292   6.539   5.897  13.515  0.5688 -1.0366 -1.1631
 2293TIP3   OH228293   5.664   4.660   4.441 -0.1944 -0.3786 -0.1612
 2293TIP3    H128294   5.628   4.624   4.360 -0.6659  1.8475 -1.0007
 2293TIP3    H228295   5.588   4.670   4.499  0.0625 -1.4622  0.3884
 2294TIP3   OH228296   0.522   2.645   2.637  0.2229 -0.5256 -0.4231
 2294TIP3    H128297   0.580   2.677   2.568 -1.5330  1.6114 -1.0299
 2294TIP3    H228298   0.435   2.647   2.598 -0.4931 -2.1866  0.9345
 2295TIP3   OH228299   3.796   1.168  14.127 -0.4158 -0.3352 -1.3153
 2295TIP3    H128300   3.870   1.228  14.136 -0.9294  0.9149 -4.2846
 2295TIP3    H228301   3.823   1.089  14.174  1.9378  0.7848 -0.6232
 2296TIP3   OH228302   3.400   4.694   0.110 -0.8709  0.5889 -0.6588
 2296TIP3    H128303   3.360   4.669   0.026 -0.7220  0.9159 -0.8310
 2296TIP3    H228304   3.448   4.616   0.138 -1.4447  0.2653 -0.5592
 2297TIP3   OH228305   4.805   2.751   6.403  0.3092 -0.0486 -0.2903
 2297TIP3    H128306   4.822   2.671   6.354  1.6145 -0.1077  0.2107
 2297TIP3    H228307   4.775   2.721   6.488 -0.9926  0.0390 -0.7024
 2298TIP3   OH228308   2.086   4.837   2.189  0.0795  0.1313  0.3606
 2298TIP3    H128309   2.120   4.770   2.129 -1.0653 -0.5552  0.4561
 2298TIP3    H228310   2.163   4.888   2.213  0.9630 -1.0417  0.1393
 2299TIP3   OH228311   5.217   5.520  15.847  0.2542  0.4349  0.8977
 2299TIP3    H128312   5.162   5.594  15.874  2.3661  1.6498  2.1175
 2299TIP3    H228313   5.256   5.489  15.928  2.2464  0.3782 -0.0317
 2300TIP3   OH228314   0.401   2.675  15.322  0.0292 -0.0910 -0.6130
 2300TIP3    H128315   0.379   2.590  15.361  1.0368 -0.6233 -1.1555
 2300TIP3    H228316   0.317   2.718  15.310 -0.3515  0.4368  2.7712
 2301TIP3   OH228317   3.321   2.928  15.639  0.0176  0.4678  0.6100
 2301TIP3    H128318   3.307   2.865  15.569 -0.6872  0.0525  1.1139
 2301TIP3    H228319   3.361   2.877  15.709 -0.5370  0.5788  1.0116
 2302TIP3   OH228320   0.302   3.074  15.220 -0.1495 -0.2712  0.1575
 2302TIP3    H128321   0.262   3.000  15.266  0.6856  0.2533  1.8064
 2302TIP3    H228322   0.252   3.081  15.139 -1.5359 -1.4013  0.8575
 2303TIP3   OH228323   5.029   5.630   4.131 -0.3456 -0.7404 -0.3379
 2303TIP3    H128324   4.960   5.695   4.143  1.1618  1.6890 -3.4134
 2303TIP3    H228325   5.060   5.612   4.220 -2.7890  0.4913  0.8649
 2304TIP3   OH228326   0.452   6.663  14.961 -0.1501  0.6877 -0.1977
 2304TIP3    H128327   0.521   6.652  15.026  1.6466  1.2197 -1.9051
 2304TIP3    H228328   0.456   6.756  14.938 -1.6394  0.7854 -0.1500
 2305TIP3   OH228329   4.910   3.530   2.318  0.3608  0.4738  0.3436
 2305TIP3    H128330   4.903   3.489   2.404  2.3877  1.3066  0.9840
 2305TIP3    H228331   4.972   3.475   2.270 -0.9451 -0.1290 -0.7191
 2306TIP3   OH228332   5.658   6.075  12.361 -0.2861  0.2271  0.1066
 2306TIP3    H128333   5.742   6.075  12.316 -0.5221  0.6168 -0.3432
 2306TIP3    H228334   5.630   5.983  12.361  1.4145 -0.3798  2.6977
 2307TIP3   OH228335   3.994   5.276   3.488  0.3950  0.6832  0.4076
 2307TIP3    H128336   4.024   5.220   3.416 -0.1335 -2.2120  2.2810
 2307TIP3    H228337   3.909   5.310   3.458  0.4469 -0.0105 -0.5648
 2308TIP3   OH228338   1.684   6.182   3.020 -0.3474 -0.4292 -0.3601
 2308TIP3    H128339   1.598   6.184   2.977 -1.0741 -1.8447  0.9153
 2308TIP3    H228340   1.708   6.089   3.020  1.1677 -0.0689 -0.6026
 2309TIP3   OH228341   3.912   3.006  15.041 -0.0480 -0.1626 -0.2780
 2309TIP3    H128342   3.827   2.973  15.012 -0.5982 -1.1077  2.1364
 2309TIP3    H228343   3.928   2.960  15.124  1.2311  2.4697  1.0437
 2310TIP3   OH228344   3.683   0.915   2.341  0.1899  0.3096 -0.4641
 2310TIP3    H128345   3.589   0.929   2.327  0.3250  0.6790 -1.0120
 2310TIP3    H228346   3.713   0.875   2.260 -0.3714 -4.2875  1.2775
 2311TIP3   OH228347   1.477   5.835   5.147 -0.5192 -0.0139  0.1025
 2311TIP3    H128348   1.414   5.898   5.114 -0.9973 -0.1779  0.6922
 2311TIP3    H228349   1.562   5.873   5.127 -0.7715 -0.2163 -1.5436
 2312TIP3   OH228350   3.547   4.704  15.938  0.2190 -0.1564 -0.2198
 2312TIP3    H128351   3.467   4.704  15.886 -0.0803 -0.3394  0.2330
 2312TIP3    H228352   3.535   4.633  16.001  0.4703  0.2120  0.2553
 2313TIP3   OH228353   0.989   3.360  16.493 -0.1864  0.1869  0.1753
 2313TIP3    H128354   0.975   3.338  16.401 -0.6966  0.1966  0.2522
 2313TIP3    H228355   1.063   3.305  16.520  0.8052  1.1010 -0.5851
 2314TIP3   OH228356   1.565   5.470  14.070  0.2054 -0.3378 -0.6918
 2314TIP3    H128357   1.557   5.407  14.141 -0.0301  0.1453 -0.2833
 2314TIP3    H228358   1.533   5.423  13.993 -0.8051 -0.4314 -0.2249
 2315TIP3   OH228359   0.398   3.175  15.667  0.4126 -0.3958  0.4136
 2315TIP3    H128360   0.386   3.213  15.579 -0.3641  1.1144  1.1366
 2315TIP3    H228361   0.311   3.177  15.706  1.0867  0.8509  1.9396
 2316TIP3   OH228362   4.469   0.410   6.359 -0.5536  0.4775  0.0939
 2316TIP3    H128363   4.469   0.495   6.315  1.3682  0.2894 -0.3789
 2316TIP3    H228364   4.449   0.430   6.450  2.0519  1.8244  0.4818
 2317TIP3   OH228365   0.722   2.510  14.035 -0.0907 -0.3533  0.4447
 2317TIP3    H128366   0.727   2.601  14.006  1.0625 -0.7482 -0.6496
 2317TIP3    H228367   0.725   2.516  14.131  0.0078  0.7500  0.3915
 2318TIP3   OH228368   5.758   1.702  10.550 -0.0773  0.5225 -0.0957
 2318TIP3    H128369   5.816   1.699  10.474 -0.9248 -0.4793 -0.7280
 2318TIP3    H228370   5.744   1.796  10.565 -1.3790  0.7573 -2.3604
 2319TIP3   OH228371   0.602   3.449   0.852 -0.5716  0.2844 -0.3876
 2319TIP3    H128372   0.557   3.533   0.851 -0.0121  0.5870 -1.2152
 2319TIP3    H228373   0.586   3.411   0.765  0.7089  0.3824 -0.6856
 2320TIP3   OH228374   2.127   4.725   6.777 -0.1256  0.5290  0.3516
 2320TIP3    H128375   2.214   4.716   6.737  0.4238 -0.1877  1.6355
 2320TIP3    H228376   2.066   4.700   6.708  0.7675 -0.3548 -0.1546
 2321TIP3   OH228377   1.654   3.841   3.598 -0.0504  0.0957  0.5094
 2321TIP3    H128378   1.574   3.790   3.606  0.3971 -0.7399 -0.1499
 2321TIP3    H228379   1.706   3.793   3.533  1.2640  0.2375  1.4206
 2322TIP3   OH228380   3.019   1.456   0.240 -0.2451 -0.4220  0.5999
 2322TIP3    H128381   2.989   1.489   0.326  0.6558  1.2000  0.3362
 2322TIP3    H228382   2.966   1.378   0.225  0.3637 -1.4437  3.1629
 2323TIP3   OH228383   3.979   2.632   2.190 -0.2282 -0.3251 -0.8798
 2323TIP3    H128384   4.053   2.643   2.131 -0.7494 -0.4024 -1.5568
 2323TIP3    H228385   3.932   2.715   2.186 -1.5317 -1.0830 -2.3516
 2324TIP3   OH228386   4.607   4.232   0.146  0.0482 -0.0912 -0.0939
 2324TIP3    H128387   4.589   4.300   0.211  1.3729 -1.0449  1.3359
 2324TIP3    H228388   4.522   4.214   0.106 -0.7065  0.8713  1.0241
 2325TIP3   OH228389   4.157   6.146   0.633  0.8090 -0.2295 -0.6185
 2325TIP3    H128390   4.104   6.066   0.629 -0.7079  0.5510  1.9507
 2325TIP3    H228391   4.095   6.217   0.618  1.4402  0.6346  0.7378
 2326TIP3   OH228392   4.495   6.361  15.188 -0.2604 -0.1257 -0.3779
 2326TIP3    H128393   4.556   6.294  15.160  0.9818  0.0424  1.6642
 2326TIP3    H228394   4.462   6.401  15.107  1.7384 -0.7531 -1.5500
 2327TIP3   OH228395   0.137   4.371  15.888 -0.2221  0.5253  0.1430
 2327TIP3    H128396   0.150   4.456  15.931  1.5890  0.6199 -0.4987
 2327TIP3    H228397   0.086   4.391  15.810  0.2672  1.0622 -0.0501
 2328TIP3   OH228398   0.095   6.220  13.557  0.2714 -0.0438 -0.7963
 2328TIP3    H128399   0.008   6.261  13.554  0.6723  0.8641 -0.4016
 2328TIP3    H228400   0.115   6.199  13.466  0.5092  1.6722 -1.1794
 2329TIP3   OH228401   3.594   5.020   3.660  0.0028  0.4524  0.0382
 2329TIP3    H128402   3.565   5.109   3.643  0.1419  0.2267 -1.5362
 2329TIP3    H228403   3.659   5.002   3.593 -0.1745 -0.9112  0.1896
 2330TIP3   OH228404   0.965   2.429  14.619  0.3054  0.0882 -0.0450
 2330TIP3    H128405   0.983   2.342  14.583  0.6255  0.0208  0.2716
 2330TIP3    H228406   0.933   2.412  14.708  2.5275  0.3676  0.8724
 2331TIP3   OH228407   6.613   5.498  11.880  0.1393  0.3129 -0.0529
 2331TIP3    H128408   6.663   5.418  11.863  0.2475  0.4157 -0.2172
 2331TIP3    H228409   6.605   5.501  11.975  2.0382  1.2577  0.1252
 2332TIP3   OH228410   4.188   3.800  11.378  0.1922  0.9731  0.0356
 2332TIP3    H128411   4.206   3.824  11.287 -0.4412 -2.6087 -1.2208
 2332TIP3    H228412   4.099   3.765  11.376  0.7245 -0.6041  1.6809
 2333TIP3   OH228413   4.668   1.200   5.107 -0.3486 -0.0797 -0.0528
 2333TIP3    H128414   4.734   1.180   5.174 -1.0439  1.4721  1.1871
 2333TIP3    H228415   4.682   1.135   5.039  2.6034  0.3129  0.0513
 2334TIP3   OH228416   2.792   2.997  13.888  0.0120 -0.2200 -0.2229
 2334TIP3    H128417   2.762   3.055  13.818 -0.7350 -1.0259 -0.5953
 2334TIP3    H228418   2.814   2.915  13.844 -1.3844 -1.0698  0.5641
 2335TIP3   OH228419   0.592   3.275  15.850  0.7064 -0.2662  0.1356
 2335TIP3    H128420   0.525   3.233  15.797 -0.6677 -0.9689  2.2927
 2335TIP3    H228421   0.618   3.353  15.800 -0.9343 -0.5587 -1.2465
 2336TIP3   OH228422   6.352   1.736  15.633  0.0904  0.2055 -0.1075
 2336TIP3    H128423   6.431   1.759  15.683 -0.2454 -0.8718  0.9610
 2336TIP3    H228424   6.385   1.691  15.555  0.5617  0.4801 -0.0712
 2337TIP3   OH228425   1.477   6.714   0.745 -0.1043  0.3159 -0.6803
 2337TIP3    H128426   1.562   6.743   0.779  0.7421 -0.0567 -2.3560
 2337TIP3    H228427   1.413   6.767   0.793  0.7889 -1.5326  2.9249
 2338TIP3   OH228428   1.992   0.742   3.430  0.2094 -0.5671  0.3131
 2338TIP3    H128429   1.998   0.777   3.341 -1.1403  3.2058  1.5258
 2338TIP3    H228430   2.070   0.776   3.474 -1.0294  0.8957  1.4859
 2339TIP3   OH228431   0.384   5.740  13.917 -0.5445  0.6468  0.3198
 2339TIP3    H128432   0.357   5.832  13.922 -0.9096  0.6605 -1.3724
 2339TIP3    H228433   0.322   5.700  13.856  1.6230  0.0764 -1.6450
 2340TIP3   OH228434   0.410   2.422  14.669  0.2265  0.1745  0.0918
 2340TIP3    H128435   0.342   2.449  14.608 -0.2461  1.6433  1.1896
 2340TIP3    H228436   0.362   2.391  14.746  0.7154  2.1560  1.2660
 2341TIP3   OH228437   2.326   6.550  15.481  0.2188  0.2034  0.0674
 2341TIP3    H128438   2.367   6.567  15.396  0.8837 -1.8991 -0.0917
 2341TIP3    H228439   2.373   6.608  15.542  1.4377 -0.0413 -0.6035
 2342TIP3   OH228440   0.350   1.100   2.656 -0.4840 -1.1480 -0.3577
 2342TIP3    H128441   0.394   1.061   2.580  0.5045 -0.8349  0.0515
 2342TIP3    H228442   0.259   1.113   2.626 -0.1921 -1.3334 -1.3734
 2343TIP3   OH228443   1.658   1.389   0.371  0.2791 -1.0149 -0.1598
 2343TIP3    H128444   1.685   1.326   0.303  3.2574  0.5135 -0.5742
 2343TIP3    H228445   1.724   1.458   0.366 -1.4956  0.9607  1.9078
 2344TIP3   OH228446   0.742   5.426  13.215 -0.4661  0.0603 -0.3487
 2344TIP3    H128447   0.748   5.487  13.288  0.9178  1.1667 -1.3333
 2344TIP3    H228448   0.649   5.425  13.192 -0.8993 -0.1783  1.2762
 2345TIP3   OH228449   2.566   1.405  10.476 -0.5326  0.4006 -0.1477
 2345TIP3    H128450   2.515   1.327  10.458  0.2649 -0.2484  0.3655
 2345TIP3    H228451   2.513   1.456  10.538 -0.3204 -0.5404  0.8329
 2346TIP3   OH228452   3.633   3.412   5.888 -0.0097 -0.1939  0.0361
 2346TIP3    H128453   3.671   3.500   5.896  0.6594 -0.3859 -0.8980
 2346TIP3    H228454   3.542   3.423   5.914 -0.4506  1.1898 -1.8715
 2347TIP3   OH228455   6.640   6.311   2.165 -0.3545 -0.0407  0.0715
 2347TIP3    H128456   6.545   6.317   2.153 -0.2906  0.1147 -0.3630
 2347TIP3    H228457   6.663   6.226   2.128 -0.4918 -0.6439  1.3037
 2348TIP3   OH228458   6.052   4.114   3.983  0.0113 -0.1950 -0.2716
 2348TIP3    H128459   6.063   4.072   4.069 -0.6277 -0.8380 -0.4978
 2348TIP3    H228460   6.061   4.207   4.001  0.6827 -0.3694  0.3668
 2349TIP3   OH228461   4.414   2.340  14.838 -0.5932  0.0009 -0.0275
 2349TIP3    H128462   4.424   2.271  14.903 -1.3881 -3.0386 -2.8345
 2349TIP3    H228463   4.503   2.354  14.804 -0.1678  1.6375  1.6204
 2350TIP3   OH228464   2.719   1.660  11.846 -0.6028  0.5287  0.3339
 2350TIP3    H128465   2.672   1.712  11.780  1.3907  1.8353 -0.1343
 2350TIP3    H228466   2.770   1.597  11.796  1.0483  1.6338  0.5716
 2351TIP3   OH228467   5.056   6.386   3.806  0.3100 -0.2798 -0.0129
 2351TIP3    H128468   5.034   6.298   3.838 -0.6525 -0.4997 -1.2392
 2351TIP3    H228469   5.021   6.445   3.873  0.0583 -0.7978  0.3195
 2352TIP3   OH228470   4.817   1.550   3.673 -0.4435  0.0324  0.0832
 2352TIP3    H128471   4.883   1.494   3.632  0.9749  0.7814  1.2439
 2352TIP3    H228472   4.735   1.500   3.667  0.3609 -1.2290 -0.7739
 2353TIP3   OH228473   0.071   1.300   5.708 -0.2300 -0.1290 -0.2634
 2353TIP3    H128474   0.122   1.225   5.677 -1.8014 -0.3458 -2.6580
 2353TIP3    H228475   0.048   1.277   5.798  1.8487 -1.0799  0.0918
 2354TIP3   OH228476   1.813   4.523  11.941  0.0082  0.0003  0.1969
 2354TIP3    H128477   1.899   4.548  11.908 -1.0278  2.2151 -1.0840
 2354TIP3    H228478   1.780   4.458  11.879  0.9259 -1.2893  1.0091
 2355TIP3   OH228479   5.068   4.921   3.089  0.4883  0.1517 -0.1779
 2355TIP3    H128480   5.058   4.863   3.013  0.1923  0.2244 -0.1951
 2355TIP3    H228481   5.145   4.974   3.068  0.6346 -0.0902 -0.2558
 2356TIP3   OH228482   2.895   4.946  13.349 -0.8326  0.4613  0.1473
 2356TIP3    H128483   2.979   4.914  13.381 -0.5750 -1.5871 -2.2397
 2356TIP3    H228484   2.903   4.944  13.253 -3.5002  0.5047 -0.1700
 2357TIP3   OH228485   5.178   0.116   0.099 -0.0832  0.2078  0.0249
 2357TIP3    H128486   5.214   0.068   0.173  0.0491 -1.0743 -0.8237
 2357TIP3    H228487   5.254   0.143   0.048 -0.2104 -0.2742 -0.4362
 2358TIP3   OH228488   0.474   6.192   0.861 -0.0293 -0.4544  0.0730
 2358TIP3    H128489   0.516   6.177   0.946  0.1343  0.3619  0.1516
 2358TIP3    H228490   0.538   6.244   0.812 -2.0443  3.6119  1.3185
 2359TIP3   OH228491   6.352   3.954   0.483 -0.4469 -0.0724 -0.1060
 2359TIP3    H128492   6.428   3.927   0.535 -0.0826  0.4550 -0.3626
 2359TIP3    H228493   6.328   4.040   0.518 -2.2204 -1.0964  1.3874
 2360TIP3   OH228494   1.161   3.283   1.774 -0.1063 -0.2210  0.4348
 2360TIP3    H128495   1.149   3.279   1.868 -2.7033 -0.6539  0.1711
 2360TIP3    H228496   1.114   3.206   1.741  0.9425 -0.2054 -1.2053
 2361TIP3   OH228497   0.521   6.446   2.564 -0.2777  0.0977 -0.3609
 2361TIP3    H128498   0.566   6.467   2.483  1.5489 -0.1105  0.5441
 2361TIP3    H228499   0.494   6.531   2.599 -0.3737  0.2486 -0.8028
 2362TIP3   OH228500   5.880   5.826   3.043  0.2305  0.4960  0.0471
 2362TIP3    H128501   5.784   5.828   3.041  0.2091 -0.3349 -0.2591
 2362TIP3    H228502   5.902   5.807   3.134  0.0897  0.3075  0.0425
 2363TIP3   OH228503   5.154   5.945  11.934 -0.1738  0.4247  0.5785
 2363TIP3    H128504   5.135   5.881  11.865 -0.1780  0.6665  0.3540
 2363TIP3    H228505   5.075   6.000  11.937 -0.9691 -0.7368  2.0696
 2364TIP3   OH228506   1.248   2.590   3.658  0.2442 -0.3037  0.1295
 2364TIP3    H128507   1.277   2.531   3.588 -0.6179  0.2531 -0.7361
 2364TIP3    H228508   1.242   2.534   3.736  3.8780 -0.4070  0.5137
 2365TIP3   OH228509   6.025   4.259   1.694  0.4305 -0.4545 -0.0855
 2365TIP3    H128510   6.065   4.318   1.630 -0.8740  0.2936 -0.2673
 2365TIP3    H228511   6.068   4.280   1.777 -0.6402  1.4779  0.0398
 2366TIP3   OH228512   1.371   4.671   3.392  0.4665  0.2838 -0.0016
 2366TIP3    H128513   1.400   4.685   3.482 -0.7041  0.7288  0.3208
 2366TIP3    H228514   1.277   4.688   3.394  0.7226  2.2223 -1.6989
 2367TIP3   OH228515   1.164   4.496   2.067  0.1343  0.6197  0.5269
 2367TIP3    H128516   1.075   4.467   2.082 -0.4526  1.6801 -0.7142
 2367TIP3    H228517   1.218   4.436   2.118 -1.2943  0.1741  1.5634
 2368TIP3   OH228518   1.968   0.243   4.753  0.1176 -0.6199  0.4513
 2368TIP3    H128519   1.910   0.276   4.685  0.2662  1.6603  1.3313
 2368TIP3    H228520   2.056   0.251   4.716  0.0342 -2.0974 -0.1112
 2369TIP3   OH228521   6.134   5.130  13.051  0.2140  0.2054  0.5066
 2369TIP3    H128522   6.171   5.139  12.963  0.6067  0.0406  0.6532
 2369TIP3    H228523   6.202   5.084  13.101 -0.2006 -0.1298  0.7702
 2370TIP3   OH228524   2.446   2.302   2.693  0.2882  0.0758 -0.0054
 2370TIP3    H128525   2.421   2.214   2.662  0.0206  0.2093 -0.1754
 2370TIP3    H228526   2.402   2.361   2.632  0.4522  0.3295  0.1237
 2371TIP3   OH228527   5.574   6.214  16.676  0.1138 -0.2531 -0.0987
 2371TIP3    H128528   5.580   6.240  16.584 -1.5093 -0.9627 -0.4401
 2371TIP3    H228529   5.515   6.140  16.676 -1.3919  0.8637  1.7274
 2372TIP3   OH228530   2.906   5.547  11.810  0.2163 -0.5038  0.2964
 2372TIP3    H128531   2.958   5.469  11.826  1.0586  0.2653  1.4792
 2372TIP3    H228532   2.935   5.579  11.725 -0.3966 -1.6431 -0.3747
 2373TIP3   OH228533   1.430   3.290  13.297 -0.4782  0.0275 -0.3384
 2373TIP3    H128534   1.454   3.214  13.350  0.9427 -0.7058 -1.9293
 2373TIP3    H228535   1.336   3.298  13.307 -0.6376 -1.8662 -0.0033
 2374TIP3   OH228536   1.049   4.304  13.341 -0.3074 -0.4800  0.2416
 2374TIP3    H128537   1.100   4.224  13.330  0.1489 -0.3305  1.1514
 2374TIP3    H228538   0.970   4.276  13.387  0.8528 -0.1130  2.5860
 2375TIP3   OH228539   5.022   0.637  14.186  0.4401 -0.0132  0.1376
 2375TIP3    H128540   5.060   0.559  14.227 -0.7133 -0.5831  0.1695
 2375TIP3    H228541   4.999   0.694  14.260  0.9959  0.2334  0.1281
 2376TIP3   OH228542   6.091   6.052   5.920  0.7316  0.4264  0.2420
 2376TIP3    H128543   6.120   6.143   5.928 -0.6591  0.7765  1.7189
 2376TIP3    H228544   6.131   6.008   5.995 -1.8950  0.7876  1.9688
 2377TIP3   OH228545   5.327   0.661   3.426  0.0112  0.2245 -0.0365
 2377TIP3    H128546   5.417   0.678   3.452 -0.2977  0.6743  0.7548
 2377TIP3    H228547   5.292   0.747   3.404 -0.4713  0.1518  0.4481
 2378TIP3   OH228548   4.304   5.953  14.494 -0.1065  0.8191 -0.4945
 2378TIP3    H128549   4.319   6.015  14.566 -0.6370  1.2977 -0.7896
 2378TIP3    H228550   4.392   5.925  14.469  0.0675  0.0591  0.8338
 2379TIP3   OH228551   0.536   0.369   4.630 -0.4595  0.3271 -0.0593
 2379TIP3    H128552   0.513   0.293   4.684 -2.7773  0.3293 -0.9455
 2379TIP3    H228553   0.517   0.445   4.686 -0.7645  0.2986 -0.1254
 2380TIP3   OH228554   5.563   6.754   0.333  0.3540 -0.5571  0.0018
 2380TIP3    H128555   5.541   6.843   0.361 -2.0764 -1.4121  1.1799
 2380TIP3    H228556   5.597   6.712   0.412  3.5258 -0.1952 -1.0424
 2381TIP3   OH228557   2.311   4.162  16.512  0.2936  0.2258 -0.3704
 2381TIP3    H128558   2.262   4.143  16.431  0.8180  1.4040 -0.9906
 2381TIP3    H228559   2.280   4.249  16.538  0.2151 -0.1027  0.6529
 2382TIP3   OH228560   1.342   5.104   0.104  0.0759 -0.2589 -0.1086
 2382TIP3    H128561   1.305   5.171   0.046  0.1285 -1.0185 -1.0486
 2382TIP3    H228562   1.281   5.100   0.178 -0.1814  0.4858 -0.2746
 2383TIP3   OH228563   6.165   6.151   4.742 -0.2570 -0.3514  0.6272
 2383TIP3    H128564   6.108   6.076   4.724  0.6644 -0.9610  0.2347
 2383TIP3    H228565   6.186   6.186   4.655  1.6510 -1.4059  0.6106
 2384TIP3   OH228566   1.125   6.648  17.151  0.0456 -0.0496  0.2507
 2384TIP3    H128567   1.065   6.619  17.219 -3.4317  2.4612 -1.4029
 2384TIP3    H228568   1.170   6.724  17.189 -1.5552  1.0707  0.0296
 2385TIP3   OH228569   5.802   3.729   5.148  0.1183  0.5867 -0.0054
 2385TIP3    H128570   5.743   3.669   5.194 -0.9599  1.1164 -0.6613
 2385TIP3    H228571   5.889   3.694   5.164 -0.4914 -1.3303 -0.6052
 2386TIP3   OH228572   5.521   4.307  14.874  0.6480  0.1546 -0.5078
 2386TIP3    H128573   5.525   4.217  14.908  0.4164  0.3079 -0.0603
 2386TIP3    H228574   5.428   4.322  14.857  0.9420 -0.6222 -3.1913
 2387TIP3   OH228575   0.109   0.159   0.232 -0.0941  0.3803  0.4431
 2387TIP3    H128576   0.130   0.164   0.326  0.1590 -0.5345  0.4401
 2387TIP3    H228577   0.158   0.232   0.193 -0.4511  0.9649  1.0612
 2388TIP3   OH228578   5.936   2.540  10.449 -0.5109  0.7102 -0.3203
 2388TIP3    H128579   5.992   2.579  10.516 -2.8822  2.6749  0.6689
 2388TIP3    H228580   5.939   2.601  10.376 -0.4627  0.2176 -0.7368
 2389TIP3   OH228581   1.259   0.309   2.721 -0.3776 -0.2419  0.5843
 2389TIP3    H128582   1.348   0.280   2.739 -0.6565 -0.0460  2.4837
 2389TIP3    H228583   1.267   0.366   2.644  0.6699 -2.4576 -1.0579
 2390TIP3   OH228584   4.630   5.570   6.214 -0.7687 -0.8382 -0.3001
 2390TIP3    H128585   4.593   5.504   6.273  0.7098 -0.3972  1.1683
 2390TIP3    H228586   4.560   5.635   6.204 -1.1809 -1.1315  0.6254
 2391TIP3   OH228587   3.184   6.485  13.686  0.0749  0.6180  0.1263
 2391TIP3    H128588   3.139   6.486  13.770 -1.1965 -0.6740 -0.4886
 2391TIP3    H228589   3.251   6.417  13.695  0.0915  0.6421  0.1813
 2392TIP3   OH228590   2.018   0.209  16.107 -0.1007  0.1917 -0.1385
 2392TIP3    H128591   2.104   0.244  16.128 -0.2776 -0.2153  1.4412
 2392TIP3    H228592   2.033   0.151  16.033  0.5940  1.7119 -1.2585
 2393TIP3   OH228593   1.802   4.973  12.196  0.3854 -0.4364  0.1987
 2393TIP3    H128594   1.735   4.906  12.197  0.5413 -0.6210 -0.8475
 2393TIP3    H228595   1.879   4.930  12.234  0.3767 -0.7260 -0.1111
 2394TIP3   OH228596   6.459   2.757  13.398  0.4204  0.3163  0.0468
 2394TIP3    H128597   6.500   2.820  13.339  2.0644  0.0082  0.8111
 2394TIP3    H228598   6.507   2.766  13.480 -0.7052 -0.4631  0.8179
 2395TIP3   OH228599   1.768   4.831   2.585 -0.0611  0.0097 -0.1903
 2395TIP3    H128600   1.779   4.901   2.648  0.0043  0.0991 -0.3006
 2395TIP3    H228601   1.856   4.815   2.550  0.5155 -2.1415  1.9455
 2396TIP3   OH228602   0.029   2.096   2.288 -0.2243 -0.3147 -0.4979
 2396TIP3    H128603   0.035   2.082   2.383 -1.8506 -0.9699 -0.4491
 2396TIP3    H228604   0.117   2.080   2.255 -0.0340 -1.9536  0.6876
 2397TIP3   OH228605   6.295   2.281   0.917 -0.2563 -0.2466  0.2571
 2397TIP3    H128606   6.255   2.307   1.000  0.3930 -1.0932  0.8550
 2397TIP3    H228607   6.268   2.190   0.904 -0.3396 -0.1221 -0.4563
 2398TIP3   OH228608   5.703   3.318  13.154 -0.1351 -0.5973 -0.0961
 2398TIP3    H128609   5.610   3.307  13.176  0.1999 -0.5184  1.3930
 2398TIP3    H228610   5.746   3.337  13.237  1.1014  0.2233 -0.9000
 2399TIP3   OH228611   5.106   3.339  15.940 -0.6739  0.1433  0.1631
 2399TIP3    H128612   5.163   3.266  15.916 -2.4640 -1.2969  0.0415
 2399TIP3    H228613   5.106   3.396  15.862 -0.1981 -0.3471 -0.1989
 2400TIP3   OH228614   3.830   5.508  13.221  1.2650 -0.3765 -0.1268
 2400TIP3    H128615   3.804   5.598  13.204  0.8342 -0.4962 -0.1181
 2400TIP3    H228616   3.923   5.504  13.197  1.4337  0.2093  0.4098
 2401TIP3   OH228617   4.628   3.034   1.830 -0.0789 -0.2119 -0.0714
 2401TIP3    H128618   4.576   3.018   1.752 -1.0510  0.1917  0.4782
 2401TIP3    H228619   4.613   3.127   1.851 -1.3727 -0.7574  1.6681
 2402TIP3   OH228620   5.297   3.273   0.712 -0.4257 -0.3952  0.1545
 2402TIP3    H128621   5.349   3.337   0.665  1.2036 -1.8252 -0.0946
 2402TIP3    H228622   5.349   3.252   0.790 -0.8833 -1.4588  0.1921
 2403TIP3   OH228623   1.278   6.052  15.966  0.4369  0.2560  0.4847
 2403TIP3    H128624   1.304   6.117  16.030 -1.8762  2.9602 -1.0845
 2403TIP3    H228625   1.187   6.032  15.988 -0.7620  2.0180 -2.3567
 2404TIP3   OH228626   1.510   2.712   5.224  0.3015  0.0981 -0.5245
 2404TIP3    H128627   1.554   2.656   5.288  0.5656  0.9624  0.0661
 2404TIP3    H228628   1.578   2.774   5.195 -0.7759  2.3408  1.4081
 2405TIP3   OH228629   3.811   2.980   0.422  0.1721 -0.6266  0.6096
 2405TIP3    H128630   3.827   2.890   0.449  0.5446 -0.6055  0.4655
 2405TIP3    H228631   3.882   3.030   0.462  1.2467 -0.7091 -1.0702
 2406TIP3   OH228632   0.673   1.932  12.824  0.0517  0.3905 -0.4038
 2406TIP3    H128633   0.582   1.953  12.844  0.6612  1.3258  1.7095
 2406TIP3    H228634   0.669   1.878  12.745 -2.2472  1.1074 -0.8361
 2407TIP3   OH228635   5.141   1.262   3.794  0.0163  0.0982  0.3625
 2407TIP3    H128636   5.211   1.229   3.850  0.2474  1.1030  0.6874
 2407TIP3    H228637   5.154   1.357   3.792 -1.4230  0.3181  0.5459
 2408TIP3   OH228638   2.158   4.292   3.199 -0.9150 -0.1014  0.3800
 2408TIP3    H128639   2.108   4.217   3.231  0.9846 -1.6977 -0.1517
 2408TIP3    H228640   2.246   4.279   3.236 -0.4146  1.6257 -0.1031
 2409TIP3   OH228641   0.650   1.365   4.508 -0.1070  0.1455  0.0497
 2409TIP3    H128642   0.673   1.388   4.598 -3.3357  1.2093  0.7306
 2409TIP3    H228643   0.649   1.449   4.461 -0.1522 -0.1828 -0.5464
 2410TIP3   OH228644   0.367   1.320   5.430  0.2869 -0.5516 -0.3563
 2410TIP3    H128645   0.391   1.354   5.344 -0.5352  0.3791 -0.2332
 2410TIP3    H228646   0.313   1.243   5.411 -0.8399  0.3046 -0.7070
 2411TIP3   OH228647   1.746   1.670   1.576 -0.2884 -0.3430  0.6274
 2411TIP3    H128648   1.774   1.581   1.555 -1.7209 -1.0375  1.4399
 2411TIP3    H228649   1.707   1.703   1.495 -0.1414 -0.6294  0.4394
 2412TIP3   OH228650   1.426   4.502   1.255  0.5512 -0.0719 -0.7482
 2412TIP3    H128651   1.419   4.412   1.286 -0.1192 -0.4610 -1.9591
 2412TIP3    H228652   1.442   4.553   1.334 -0.4940 -1.0834  0.1587
 2413TIP3   OH228653   5.318   2.037   0.492 -0.7776  0.2631  0.2617
 2413TIP3    H128654   5.392   2.083   0.533 -1.0882  1.2596 -0.2696
 2413TIP3    H228655   5.339   1.944   0.503  1.9040  0.4338 -2.2219
 2414TIP3   OH228656   3.824   3.435   3.905  0.0888  0.1370  0.4650
 2414TIP3    H128657   3.856   3.434   3.815  1.0464 -2.1020  0.7750
 2414TIP3    H228658   3.870   3.509   3.946  1.1606 -0.0447 -0.3769
 2415TIP3   OH228659   0.921   1.866   5.704  0.3856 -0.7443 -0.4736
 2415TIP3    H128660   0.926   1.804   5.777  0.0213 -1.0054 -0.6691
 2415TIP3    H228661   0.881   1.816   5.633 -0.8714  0.0083 -0.3244
 2416TIP3   OH228662   4.499   1.537   5.764  0.4707 -0.1210 -0.8115
 2416TIP3    H128663   4.406   1.519   5.749  0.3954 -1.1584  0.6815
 2416TIP3    H228664   4.540   1.523   5.679 -0.5391 -1.1290 -1.1550
 2417TIP3   OH228665   6.372   5.160  14.450 -0.5210  0.4980  0.3266
 2417TIP3    H128666   6.322   5.201  14.380 -1.3798  0.3683  0.8443
 2417TIP3    H228667   6.401   5.234  14.505  0.2694  0.6096 -0.2297
 2418TIP3   OH228668   0.209   1.594   4.809  0.0640  0.0465  0.1548
 2418TIP3    H128669   0.274   1.526   4.786  0.3189  0.9855 -2.2089
 2418TIP3    H228670   0.125   1.555   4.785 -0.0059 -0.2074  0.7959
 2419TIP3   OH228671   1.095   2.204   0.029 -0.1083  0.3705 -0.4939
 2419TIP3    H128672   1.156   2.131   0.020 -0.2244  0.2197 -0.0951
 2419TIP3    H228673   1.012   2.170  -0.005 -0.0787  0.4240 -0.6167
 2420TIP3   OH228674   1.551   2.176   1.072 -0.1905 -0.3136  0.3891
 2420TIP3    H128675   1.566   2.225   0.991  3.0396 -1.1141  0.3719
 2420TIP3    H228676   1.463   2.141   1.062 -0.1269  0.0659 -2.5360
 2421TIP3   OH228677   2.738   0.684  10.644  0.0193 -0.1427 -0.2866
 2421TIP3    H128678   2.715   0.707  10.554 -0.0871 -0.1508 -0.2619
 2421TIP3    H228679   2.676   0.615  10.668  0.8756 -1.0665 -0.6599
 2422TIP3   OH228680   1.730   0.212  14.658  0.1303  0.1789  0.3101
 2422TIP3    H128681   1.653   0.250  14.616 -1.2443  1.1431  3.3935
 2422TIP3    H228682   1.805   0.249  14.610 -1.2571  0.9839 -1.3429
 2423TIP3   OH228683   5.187   2.441   3.157  0.4687 -0.4150  0.0574
 2423TIP3    H128684   5.244   2.461   3.082  0.7156  0.5017  0.4755
 2423TIP3    H228685   5.246   2.435   3.231  0.0140  0.6307  0.5143
 2424TIP3   OH228686   0.275   5.642  11.983 -0.2416 -0.0430  0.0639
 2424TIP3    H128687   0.207   5.604  11.927 -0.5902 -1.6529  1.5068
 2424TIP3    H228688   0.239   5.727  12.009 -1.2587 -0.4402  0.0041
 2425TIP3   OH228689   2.435   6.162  12.237  0.4178 -0.2472 -0.1803
 2425TIP3    H128690   2.450   6.112  12.318 -0.8579 -0.6613 -0.1733
 2425TIP3    H228691   2.449   6.098  12.167 -1.1825 -0.6476 -0.1728
 2426TIP3   OH228692   1.462   0.678   5.032  0.2198 -0.3603 -0.0505
 2426TIP3    H128693   1.514   0.753   5.061 -0.6791  0.8592 -1.4181
 2426TIP3    H228694   1.414   0.649   5.110  1.2336 -0.0794  0.6917
 2427TIP3   OH228695   2.097   2.355  11.510 -0.0827  0.0160 -0.3650
 2427TIP3    H128696   2.054   2.383  11.591  0.6001  0.4080 -0.1351
 2427TIP3    H228697   2.064   2.415  11.443 -0.3342 -0.0501 -0.3006
 2428TIP3   OH228698   6.093   5.309  11.947  0.3267 -0.5271  0.3076
 2428TIP3    H128699   6.172   5.309  11.893  0.5057  0.1494  0.5544
 2428TIP3    H228700   6.124   5.285  12.035  0.2769 -0.1513  0.4298
 2429TIP3   OH228701   3.024   6.741  11.431 -0.2836 -0.2954 -0.3063
 2429TIP3    H128702   3.051   6.697  11.511 -1.0624 -2.4204 -1.1360
 2429TIP3    H228703   3.000   6.829  11.459 -1.6237 -1.3072  2.0342
 2430TIP3   OH228704   0.344   3.567  15.365 -0.2254 -0.3193 -0.2487
 2430TIP3    H128705   0.335   3.479  15.402 -0.3606 -0.3308 -0.3071
 2430TIP3    H228706   0.336   3.625  15.440  0.2206 -0.3701 -0.1595
 2431TIP3   OH228707   5.806   3.726  13.621  0.1633  0.7932  0.4103
 2431TIP3    H128708   5.832   3.736  13.712  0.8286  0.8206  0.2247
 2431TIP3    H228709   5.815   3.632  13.604 -1.2853  0.5813  0.7554
 2432TIP3   OH228710   3.468   6.533  14.730  0.3566  0.1870 -0.0225
 2432TIP3    H128711   3.384   6.508  14.767  0.7367  0.7144  1.2563
 2432TIP3    H228712   3.531   6.475  14.772  1.0788  2.2559  1.9737
 2433TIP3   OH228713   3.198   6.219  14.114 -0.3918 -0.0803  0.2442
 2433TIP3    H128714   3.277   6.269  14.134 -0.2846  0.1799 -0.7766
 2433TIP3    H228715   3.147   6.277  14.058 -1.3934 -0.1797  1.0415
 2434TIP3   OH228716   3.221   3.279   4.039  0.2160  0.1539  0.1680
 2434TIP3    H128717   3.168   3.245   3.968  1.8136 -0.0965 -0.9594
 2434TIP3    H228718   3.258   3.361   4.005 -0.2536  0.8695  1.3115
 2435TIP3   OH228719   4.554   0.276   0.403 -0.6888 -0.5393  0.1902
 2435TIP3    H128720   4.482   0.310   0.350 -0.9030 -0.7222  0.3636
 2435TIP3    H228721   4.526   0.189   0.429 -0.0216 -0.9622 -0.4684
 2436TIP3   OH228722   5.615   5.128  12.944 -0.1591  0.4464 -0.3203
 2436TIP3    H128723   5.610   5.038  12.975  0.5141  0.3638 -0.4418
 2436TIP3    H228724   5.708   5.150  12.949  0.0993  0.2274 -2.8266
 2437TIP3   OH228725   0.452   1.440   5.132  0.3965  0.1571  0.8788
 2437TIP3    H128726   0.393   1.511   5.106  1.1402 -0.1617 -2.0641
 2437TIP3    H228727   0.526   1.484   5.174  0.1204  0.9694  0.5337
 2438TIP3   OH228728   1.798   3.600   6.441  0.9564  0.0135 -0.6470
 2438TIP3    H128729   1.886   3.565   6.455  1.1895  1.4623  2.4990
 2438TIP3    H228730   1.744   3.557   6.508 -0.7848 -0.7857 -2.4608
 2439TIP3   OH228731   5.715   1.370  13.489 -0.3833  0.2832  0.1621
 2439TIP3    H128732   5.637   1.425  13.494  0.3271  1.5809 -1.8297
 2439TIP3    H228733   5.693   1.303  13.424 -0.7690 -1.0506  1.6091
 2440TIP3   OH228734   6.671   1.794  16.672  0.0516 -0.3509  0.5311
 2440TIP3    H128735   6.632   1.769  16.588  1.5993 -1.3542  0.0695
 2440TIP3    H228736   6.619   1.869  16.702  0.1751  0.7799 -1.8874
 2441TIP3   OH228737   3.587   4.154   5.701 -0.2948  0.1717  0.1597
 2441TIP3    H128738   3.655   4.089   5.686  0.6562  1.5947 -2.3933
 2441TIP3    H228739   3.561   4.142   5.792  1.6624 -2.0099  0.5131
 2442TIP3   OH228740   5.639   6.318  14.673 -0.4600 -0.6388 -0.1408
 2442TIP3    H128741   5.641   6.297  14.766 -0.0791 -0.2852 -0.0665
 2442TIP3    H228742   5.651   6.413  14.669  0.6409 -0.7823 -0.5921
 2443TIP3   OH228743   2.879   3.016  16.808 -0.4510  0.5965 -0.4836
 2443TIP3    H128744   2.896   2.964  16.887  1.9323  1.3078 -0.4609
 2443TIP3    H228745   2.860   3.104  16.841  1.2760  1.0717 -0.6783
 2444TIP3   OH228746   2.419   5.829  11.799 -0.4157 -0.1457 -0.0501
 2444TIP3    H128747   2.428   5.761  11.866 -1.3133  0.5257  0.7869
 2444TIP3    H228748   2.358   5.892  11.837 -1.8643 -0.3120 -1.9670
 2445TIP3   OH228749   5.006   1.186   2.960 -0.0560  0.0176  0.2020
 2445TIP3    H128750   5.078   1.246   2.981 -0.3400  0.7940 -0.9847
 2445TIP3    H228751   5.032   1.147   2.877 -0.5500 -0.4407  0.2629
 2446TIP3   OH228752   1.153   3.898  17.205 -0.1902  0.6865 -0.5663
 2446TIP3    H128753   1.183   3.940  17.124  2.0663  0.5064  0.1320
 2446TIP3    H228754   1.071   3.943  17.225  0.3010  2.2373 -1.8013
 2447TIP3   OH228755   0.799   5.548   6.048  0.4108 -0.5129 -0.1900
 2447TIP3    H128756   0.737   5.514   6.113 -1.4541 -0.6238 -1.9302
 2447TIP3    H228757   0.748   5.610   5.996  1.7724 -0.5658 -1.6726
 2448TIP3   OH228758   6.390   6.615   0.192  0.1925 -0.1230 -0.0052
 2448TIP3    H128759   6.416   6.528   0.223  0.1424  0.8139  3.0190
 2448TIP3    H228760   6.468   6.648   0.147  0.3369 -1.5500 -0.8793
 2449TIP3   OH228761   6.130   3.752  16.704 -0.5149  0.1855  0.2041
 2449TIP3    H128762   6.141   3.847  16.703  0.9485  0.0523  0.4959
 2449TIP3    H228763   6.105   3.730  16.614 -2.2020  0.9563  0.4636
 2450TIP3   OH228764   4.075   3.985  16.335  0.2325 -0.6288 -0.1759
 2450TIP3    H128765   4.062   3.894  16.309 -2.6863 -0.3668  0.0312
 2450TIP3    H228766   4.097   3.981  16.428  0.2641 -1.1332 -0.2018
 2451TIP3   OH228767   3.960   4.059   0.700 -0.1108 -0.3551  0.5914
 2451TIP3    H128768   4.003   4.124   0.755  0.0569 -0.7831  0.9792
 2451TIP3    H228769   4.026   3.990   0.689  0.9296  0.9446 -2.4915
 2452TIP3   OH228770   0.209   3.612   0.716 -0.0846  0.2714  0.3693
 2452TIP3    H128771   0.282   3.557   0.687  0.6153  0.7625  1.1622
 2452TIP3    H228772   0.132   3.573   0.675  0.4586 -1.0221  0.5336
 2453TIP3   OH228773   3.764   4.480  17.249 -0.4796 -0.3044 -0.0534
 2453TIP3    H128774   3.790   4.401  17.201  0.8857 -0.2324  0.5138
 2453TIP3    H228775   3.804   4.470  17.335 -0.1054  1.0976 -0.0433
 2454TIP3   OH228776   0.139   1.416  10.722 -0.6368 -0.0472 -0.5054
 2454TIP3    H128777   0.170   1.369  10.644 -1.8986  1.5090 -2.0020
 2454TIP3    H228778   0.069   1.473  10.691 -0.6997  1.1801  1.6509
 2455TIP3   OH228779   2.446   5.165   5.082  0.6611 -0.3237 -0.4269
 2455TIP3    H128780   2.541   5.152   5.079  1.0891  1.6032  1.8806
 2455TIP3    H228781   2.423   5.155   5.174 -0.6346  3.3157 -0.1918
 2456TIP3   OH228782   5.344   6.396  11.846  0.2066 -0.2195  0.4821
 2456TIP3    H128783   5.410   6.444  11.895 -0.7300  0.6378  0.9190
 2456TIP3    H228784   5.385   6.311  11.827  1.6589  0.5192  0.1943
 2457TIP3   OH228785   3.454   2.549   0.973 -0.0607 -0.1579 -0.0585
 2457TIP3    H128786   3.418   2.638   0.977  0.0961 -0.1187  0.5516
 2457TIP3    H228787   3.458   2.529   0.880 -2.6997 -0.5804 -0.1540
 2458TIP3   OH228788   6.295   5.302   0.042 -0.3345 -0.2344  0.0842
 2458TIP3    H128789   6.223   5.365   0.052  0.4756  0.9117 -0.9067
 2458TIP3    H228790   6.357   5.347  -0.016  0.4042 -1.8607 -0.4304
 2459TIP3   OH228791   5.611   3.887  13.526 -0.2244  0.2830 -0.0355
 2459TIP3    H128792   5.667   3.821  13.567  0.5684  0.7865 -0.2929
 2459TIP3    H228793   5.535   3.893  13.585  0.9406  1.0827  1.4523
 2460TIP3   OH228794   5.034   1.962  16.851  0.1932 -0.1077 -0.2209
 2460TIP3    H128795   5.010   2.033  16.911 -2.0682 -0.2350 -0.8866
 2460TIP3    H228796   5.057   1.889  16.909 -0.6984  0.1678  0.5177
 2461TIP3   OH228797   4.132   3.500   0.540 -0.5136  0.0596  0.6091
 2461TIP3    H128798   4.092   3.477   0.624 -1.6395 -0.5501 -0.0815
 2461TIP3    H228799   4.219   3.533   0.564 -0.6713 -0.4520  1.9814
 2462TIP3   OH228800   1.668   1.893   0.326  0.0090 -0.2736 -0.4953
 2462TIP3    H128801   1.728   1.903   0.252  1.5416 -1.3233  0.5490
 2462TIP3    H228802   1.673   1.976   0.373 -1.1829  0.5057 -1.6646
 2463TIP3   OH228803   2.196   6.041  14.988  0.1525  0.2686  0.5595
 2463TIP3    H128804   2.246   6.102  14.934  1.0786 -1.5623 -0.7240
 2463TIP3    H228805   2.104   6.059  14.965  0.4951 -0.0671 -1.2066
 2464TIP3   OH228806   6.172   3.115  12.188  0.5496 -0.5606 -0.3643
 2464TIP3    H128807   6.215   3.062  12.255  0.1538  0.8925  1.1058
 2464TIP3    H228808   6.081   3.121  12.217  0.8446  1.9594  0.2665
 2465TIP3   OH228809   0.547   4.656  14.122 -0.3949  0.0540 -0.3058
 2465TIP3    H128810   0.488   4.601  14.173 -1.2004  0.9502 -0.2313
 2465TIP3    H228811   0.539   4.743  14.161  0.2957  0.3829 -0.8710
 2466TIP3   OH228812   2.270   4.248  12.675 -0.1079 -0.4754  0.1914
 2466TIP3    H128813   2.295   4.324  12.728  0.5908 -1.3683  1.1887
 2466TIP3    H228814   2.205   4.282  12.614  1.5428  1.3606 -0.6657
 2467TIP3   OH228815   1.095   1.233  11.800  0.4429  0.3079  0.5299
 2467TIP3    H128816   1.031   1.291  11.757 -1.4328 -1.9414  0.0983
 2467TIP3    H228817   1.171   1.235  11.742 -1.1471 -0.8100 -1.7647
 2468TIP3   OH228818   5.784   3.538   3.956  0.1351 -0.1470 -0.1925
 2468TIP3    H128819   5.694   3.505   3.950  0.2141 -0.6781  1.0589
 2468TIP3    H228820   5.807   3.526   4.048  1.8192 -0.8816 -0.6719
 2469TIP3   OH228821   5.144   0.844   5.709 -0.8800 -0.2461 -0.3454
 2469TIP3    H128822   5.138   0.749   5.703  1.0628 -0.4119 -0.0952
 2469TIP3    H228823   5.230   0.865   5.674 -0.8327  1.3278  0.6371
 2470TIP3   OH228824   3.660   6.752  14.481  0.1205  0.1633 -0.6985
 2470TIP3    H128825   3.720   6.784  14.548 -1.9322  1.0845  0.8332
 2470TIP3    H228826   3.665   6.657  14.488  1.2948  0.2209 -0.5433
 2471TIP3   OH228827   3.275   5.801  11.336  0.0878  0.5679 -0.3972
 2471TIP3    H128828   3.248   5.862  11.405  2.2416  1.7080 -0.4669
 2471TIP3    H228829   3.223   5.825  11.260 -0.7132  0.7807  0.1995
 2472TIP3   OH228830   2.617   5.254   0.166  0.5509 -0.2837  0.0945
 2472TIP3    H128831   2.552   5.311   0.206  0.3490 -0.4553  0.0150
 2472TIP3    H228832   2.574   5.168   0.162  0.7560 -0.3812 -0.0229
 2473TIP3   OH228833   3.218   1.941  13.794  0.1991 -0.3151 -0.0321
 2473TIP3    H128834   3.261   1.931  13.709  0.8687  0.7199  0.1622
 2473TIP3    H228835   3.218   2.036  13.810  0.2592 -0.5052  1.2125
 2474TIP3   OH228836   5.136   4.814  13.620 -0.0067 -1.1472 -0.7148
 2474TIP3    H128837   5.113   4.766  13.541 -2.1618 -1.3014 -0.0625
 2474TIP3    H228838   5.059   4.869  13.637  0.7692 -0.4814  0.7875
 2475TIP3   OH228839   4.356   1.763  14.922 -0.2925  0.0085  0.0098
 2475TIP3    H128840   4.436   1.766  14.870 -0.3113  1.6090  0.0406
 2475TIP3    H228841   4.376   1.703  14.993  0.0768 -1.4077 -1.2429
 2476TIP3   OH228842   0.738   6.636   5.226 -0.4053 -0.0665 -0.4908
 2476TIP3    H128843   0.650   6.674   5.235 -0.7065 -0.6480 -0.9103
 2476TIP3    H228844   0.725   6.543   5.242  0.1711 -0.1258 -0.3641
 2477TIP3   OH228845   6.157   5.594  11.332 -0.3649 -0.1527  0.3631
 2477TIP3    H128846   6.110   5.647  11.268 -0.9745 -1.3153 -0.1997
 2477TIP3    H228847   6.204   5.529  11.279 -0.8349 -1.0988  1.0664
 2478TIP3   OH228848   0.642   4.762  15.683  0.1481  0.2108 -0.1181
 2478TIP3    H128849   0.657   4.669  15.702  1.8317  0.6649  0.9192
 2478TIP3    H228850   0.582   4.761  15.608 -1.2159 -1.6917  0.8932
 2479TIP3   OH228851   6.688   4.041  13.502 -0.0036 -0.1226  0.1455
 2479TIP3    H128852   6.595   4.025  13.517  0.0506 -1.1952 -0.5544
 2479TIP3    H228853   6.695   4.054  13.407  0.5348  0.1731  0.2202
 2480TIP3   OH228854   3.444   6.541   1.072 -0.0640 -0.5009  0.1160
 2480TIP3    H128855   3.492   6.555   1.154  0.7534 -0.2641 -0.3959
 2480TIP3    H228856   3.492   6.591   1.007 -1.8160  0.9102 -0.1565
 2481TIP3   OH228857   1.416   1.800  15.808 -0.2587  0.3854  0.3545
 2481TIP3    H128858   1.407   1.780  15.715  0.7301  1.9050 -0.0934
 2481TIP3    H228859   1.416   1.896  15.813  1.0389  0.3507  1.7759
 2482TIP3   OH228860   3.044   0.789   6.933  1.1364 -0.0644 -0.2899
 2482TIP3    H128861   3.033   0.701   6.898  2.7185  0.0123 -1.0995
 2482TIP3    H228862   2.995   0.845   6.872 -2.1754 -0.5351  1.7030
 2483TIP3   OH228863   1.335   4.221  13.913  0.0223 -0.4450  0.0770
 2483TIP3    H128864   1.310   4.309  13.941 -1.2305 -0.4542 -0.9293
 2483TIP3    H228865   1.390   4.188  13.984  1.3367  1.5005  0.0267
 2484TIP3   OH228866   3.251   4.530  15.497 -0.2453  0.0107 -0.4060
 2484TIP3    H128867   3.302   4.553  15.574 -1.0717 -1.4433  0.6316
 2484TIP3    H228868   3.293   4.450  15.463 -0.6706 -0.1020 -0.6784
 2485TIP3   OH228869   1.561   5.179   5.887  0.1008 -0.4546 -0.3036
 2485TIP3    H128870   1.651   5.195   5.857 -0.6184  1.2829 -1.7046
 2485TIP3    H228871   1.548   5.243   5.957 -0.3633  0.0261 -0.8174
 2486TIP3   OH228872   3.609   4.062   5.105 -0.0517 -0.4834 -0.3085
 2486TIP3    H128873   3.635   4.149   5.074  1.2760  0.6202  3.3835
 2486TIP3    H228874   3.517   4.055   5.082 -0.7402  2.8184  0.8663
 2487TIP3   OH228875   3.165   2.058  11.837  0.1599  0.1160  0.0501
 2487TIP3    H128876   3.151   2.042  11.930 -0.4288  0.6351  0.0590
 2487TIP3    H228877   3.083   2.029  11.795  0.1808  0.4538 -0.2320
 2488TIP3   OH228878   3.333   3.420   0.196  0.6653 -0.4071  0.4870
 2488TIP3    H128879   3.384   3.440   0.275  1.1175  1.7977 -0.3085
 2488TIP3    H228880   3.399   3.408   0.127  0.2481 -1.8079  0.3021
 2489TIP3   OH228881   2.417   4.168   0.499  0.2389  0.0011  0.2179
 2489TIP3    H128882   2.428   4.192   0.591  0.0546 -1.3309  0.5988
 2489TIP3    H228883   2.421   4.072   0.498 -0.0936 -0.0173 -1.1206
 2490TIP3   OH228884   3.443   0.398   3.844 -0.5304 -0.4625 -0.3454
 2490TIP3    H128885   3.412   0.318   3.802 -1.0397 -0.7790  0.6105
 2490TIP3    H228886   3.415   0.390   3.935  0.3288  0.3285  0.0023
 2491TIP3   OH228887   5.554   0.344  15.728  0.2612  0.0473 -0.0553
 2491TIP3    H128888   5.520   0.406  15.792 -1.5838 -2.9367  2.1537
 2491TIP3    H228889   5.537   0.258  15.767  2.9711 -1.9116 -2.6899
 2492TIP3   OH228890   0.927   5.592   1.211 -0.0840 -0.1733 -0.0242
 2492TIP3    H128891   0.986   5.667   1.220  1.8296 -1.6608  0.6946
 2492TIP3    H228892   0.954   5.551   1.128 -2.1062  0.6973 -1.1677
 2493TIP3   OH228893   2.843   4.444   4.328 -0.0734  0.3491  0.3683
 2493TIP3    H128894   2.895   4.385   4.273  1.3690  2.1131 -0.2407
 2493TIP3    H228895   2.764   4.461   4.276  1.1970  1.8645 -1.1629
 2494TIP3   OH228896   1.924   1.348  12.514  0.8127 -0.1605  0.0526
 2494TIP3    H128897   1.923   1.295  12.434 -0.1242 -0.9835  0.5911
 2494TIP3    H228898   2.010   1.331  12.553  0.3517 -1.6940  0.4670
 2495TIP3   OH228899   5.653   3.107  13.755 -0.0466  0.4956 -0.2141
 2495TIP3    H128900   5.570   3.154  13.745 -1.5822 -1.9007  0.3739
 2495TIP3    H228901   5.700   3.123  13.673 -1.3320  1.4531 -0.8044
 2496TIP3   OH228902   0.967   3.631  16.837  0.0660 -0.0185  0.2357
 2496TIP3    H128903   1.020   3.579  16.897 -0.0539  0.1794  0.5130
 2496TIP3    H228904   0.935   3.705  16.890 -1.3767 -0.7069  0.3606
 2497TIP3   OH228905   1.765   2.719  16.997  0.2563  0.1101  0.2923
 2497TIP3    H128906   1.817   2.779  16.944  0.6377 -0.2513  0.2558
 2497TIP3    H228907   1.781   2.632  16.959  0.0135 -0.0676  0.5862
 2498TIP3   OH228908   5.294   1.260   3.063 -0.1543 -0.2201 -0.0117
 2498TIP3    H128909   5.358   1.286   3.129  2.9896  1.3267 -3.2802
 2498TIP3    H228910   5.229   1.330   3.064  1.3876  1.2817 -0.3142
 2499TIP3   OH228911   3.498   4.074   2.356  0.6961  0.2923  0.2994
 2499TIP3    H128912   3.510   4.035   2.270 -1.1367  0.3350 -0.0208
 2499TIP3    H228913   3.531   4.008   2.417 -0.7579 -1.0779 -0.3158
 2500TIP3   OH228914   0.303   4.706   4.560  0.2506 -0.0420  0.3673
 2500TIP3    H128915   0.378   4.654   4.587  0.9450  0.4732 -0.5092
 2500TIP3    H228916   0.230   4.644   4.557  0.9042 -0.8002  0.0546
 2501TIP3   OH228917   4.842   0.123  14.463 -0.2760 -0.4880 -0.3010
 2501TIP3    H128918   4.819   0.185  14.532 -0.2672  1.4996 -1.9940
 2501TIP3    H228919   4.907   0.066  14.503  0.2688  1.0585  1.1258
 2502TIP3   OH228920   4.300   6.191  12.172 -0.1151  0.6117 -0.8902
 2502TIP3    H128921   4.266   6.280  12.185 -0.1641  0.4472  0.1884
 2502TIP3    H228922   4.280   6.171  12.081  0.3104  1.8807 -1.2820
 2503TIP3   OH228923   6.004   2.913   5.021  0.3980  0.6491  1.0543
 2503TIP3    H128924   6.046   2.859   5.088  0.2955 -0.5867  0.1591
 2503TIP3    H228925   5.945   2.970   5.070  0.4864 -0.0732  2.0396
 2504TIP3   OH228926   1.937   4.265  15.779 -0.2828  0.4920  0.4700
 2504TIP3    H128927   1.842   4.269  15.774 -0.2967 -0.9178 -1.4259
 2504TIP3    H228928   1.963   4.206  15.708  1.9240 -0.0876  1.6424
 2505TIP3   OH228929   0.903   0.041  12.816 -0.3900  0.3642 -0.3688
 2505TIP3    H128930   0.966   0.067  12.883  0.1617 -2.1192  0.2083
 2505TIP3    H228931   0.822   0.026  12.864 -0.0704 -1.1422 -0.2423
 2506TIP3   OH228932   5.485   3.999  13.056  0.6847 -0.6336 -0.5823
 2506TIP3    H128933   5.460   3.907  13.059  0.2031 -0.5032  1.8328
 2506TIP3    H228934   5.407   4.046  13.088  2.1932  0.1853  2.2777
 2507TIP3   OH228935   3.636   5.057   2.278  0.2706 -0.2745  0.3516
 2507TIP3    H128936   3.693   5.111   2.224 -0.8797  0.7409  0.1193
 2507TIP3    H228937   3.548   5.088   2.260 -0.3614 -1.6489  0.8797
 2508TIP3   OH228938   1.488   4.742   2.622  0.4242 -0.0829 -0.1122
 2508TIP3    H128939   1.559   4.806   2.617  0.3959 -0.1328 -1.3190
 2508TIP3    H228940   1.424   4.772   2.557  0.1982 -1.0697 -0.3532
 2509TIP3   OH228941   1.095   4.970   0.523 -0.3764 -0.3327 -0.1028
 2509TIP3    H128942   1.017   4.915   0.528 -0.9582  0.5621  0.9536
 2509TIP3    H228943   1.111   4.997   0.613  0.9894 -0.2469 -0.3399
 2510TIP3   OH228944   2.890   4.907   6.491  0.0392 -0.0465  0.0554
 2510TIP3    H128945   2.914   4.943   6.577 -0.1338 -0.6286  0.3471
 2510TIP3    H228946   2.797   4.928   6.481  0.3049  0.9523 -0.4574
 2511TIP3   OH228947   5.941   3.387   1.076  0.1208 -0.1045  0.3706
 2511TIP3    H128948   6.015   3.433   1.116  0.5644 -1.6516  1.4174
 2511TIP3    H228949   5.969   3.372   0.985 -1.0689  3.8136 -0.8565
 2512TIP3   OH228950   3.202   3.909   2.744 -0.3718  0.1993 -0.5313
 2512TIP3    H128951   3.162   3.823   2.734 -2.0328  0.8161  0.3429
 2512TIP3    H228952   3.203   3.946   2.656 -0.4570 -0.3864 -0.7765
 2513TIP3   OH228953   2.132   5.954   5.461 -0.0329 -0.3635  0.1303
 2513TIP3    H128954   2.053   5.991   5.501  0.9443  2.4278 -0.3089
 2513TIP3    H228955   2.204   5.992   5.512  1.0873 -2.4310  0.1903
 2514TIP3   OH228956   0.210   5.821  16.390  0.2570  0.2983 -0.2444
 2514TIP3    H128957   0.118   5.828  16.416  0.3900 -1.1797  0.7286
 2514TIP3    H228958   0.232   5.908  16.359 -1.6730  0.5086 -1.1823
 2515TIP3   OH228959   6.280   0.428   1.046  0.2451  0.6653  0.3694
 2515TIP3    H128960   6.307   0.376   0.971  1.3893  0.9284  0.5882
 2515TIP3    H228961   6.209   0.483   1.012  0.1708  0.1750 -0.2862
 2516TIP3   OH228962   1.255   3.318   6.437 -0.3055  0.0381 -0.0954
 2516TIP3    H128963   1.266   3.307   6.343 -0.9420  2.5223 -0.5360
 2516TIP3    H228964   1.161   3.319   6.451 -0.2439  0.8508  0.3658
 2517TIP3   OH228965   1.946   2.915  11.461  0.0900 -0.3035 -0.1319
 2517TIP3    H128966   1.921   2.974  11.390  0.8992 -0.9079 -0.9440
 2517TIP3    H228967   1.963   2.972  11.536 -0.2081  0.3846 -0.5874
 2518TIP3   OH228968   0.859   4.605  15.482  0.2726 -0.5519  0.3354
 2518TIP3    H128969   0.931   4.646  15.530 -0.2069 -1.3224  1.7859
 2518TIP3    H228970   0.800   4.572  15.551 -1.4742  0.0538 -0.7944
 2519TIP3   OH228971   6.001   1.435  14.791  0.4550 -0.7511  0.1690
 2519TIP3    H128972   6.020   1.439  14.885  1.5298 -0.6591 -0.0395
 2519TIP3    H228973   5.942   1.360  14.783 -1.2902  0.4571  1.1563
 2520TIP3   OH228974   3.282   2.139   3.910 -0.3310 -0.9046  0.3753
 2520TIP3    H128975   3.195   2.178   3.920  0.6225  1.5307 -0.2654
 2520TIP3    H228976   3.281   2.100   3.823 -0.4564  0.0917 -0.0821
 2521TIP3   OH228977   4.574   3.942   1.332  0.7945 -0.5973  0.3140
 2521TIP3    H128978   4.567   3.999   1.408  1.2725  0.1906 -0.2170
 2521TIP3    H228979   4.645   3.881   1.355  2.4718  1.0220 -0.3304
 2522TIP3   OH228980   0.010   6.556   3.008  0.1729  0.1736  0.0266
 2522TIP3    H128981  -0.009   6.514   2.924 -0.9264  0.0344  0.3259
 2522TIP3    H228982   0.033   6.646   2.985 -0.0531  0.1188 -0.4314
 2523TIP3   OH228983   0.563   1.067  15.740 -0.4693 -0.4493  0.2084
 2523TIP3    H128984   0.649   1.039  15.769 -0.0227  0.3046 -0.3319
 2523TIP3    H228985   0.556   1.035  15.650 -1.5373 -2.1302  0.8412
 2524TIP3   OH228986   1.666   1.602  12.271  0.1033  0.6980  0.0867
 2524TIP3    H128987   1.602   1.538  12.302  1.5262 -1.6028 -1.3818
 2524TIP3    H228988   1.720   1.621  12.347  0.7358 -1.2989  0.1999
 2525TIP3   OH228989   5.216   0.096  16.781  0.2201  0.1080  0.2314
 2525TIP3    H128990   5.273   0.172  16.789  0.8449 -0.2400 -0.7008
 2525TIP3    H228991   5.132   0.132  16.751  0.8113  0.3523 -1.2158
 2526TIP3   OH228992   1.076   0.137  16.590 -0.3046 -0.5060 -0.3039
 2526TIP3    H128993   1.101   0.099  16.505  1.3361 -0.2743  0.0491
 2526TIP3    H228994   1.111   0.075  16.655  1.1795  0.8390  0.2432
 2527TIP3   OH228995   1.272   6.582  16.018 -0.1327  0.6339  0.5175
 2527TIP3    H128996   1.353   6.534  16.005  0.3476  1.8236 -1.1472
 2527TIP3    H228997   1.203   6.519  15.998  0.4183  0.1061  0.2588
 2528TIP3   OH228998   5.872   3.144  12.334  0.4945  0.3710  0.0649
 2528TIP3    H128999   5.779   3.134  12.313  0.8946 -1.7072 -0.9816
 2528TIP3    H229000   5.875   3.140  12.430 -0.5869  1.9421  0.2132
 2529TIP3   OH229001   1.561   1.151  13.978  0.1169 -0.5100  0.2822
 2529TIP3    H129002   1.599   1.100  14.049  0.8137 -0.8429 -0.3089
 2529TIP3    H229003   1.528   1.086  13.916 -1.0145 -0.2237  0.5674
 2530TIP3   OH229004   1.674   0.091   3.776 -0.0100 -0.5990  0.1339
 2530TIP3    H129005   1.686   0.042   3.695  0.1321 -1.8387  0.8656
 2530TIP3    H229006   1.591   0.059   3.812 -0.3459  0.3334  0.2205
 2531TIP3   OH229007   4.179   6.736   6.144 -0.8302 -0.1713 -0.1198
 2531TIP3    H129008   4.165   6.812   6.201 -1.7277 -0.2073 -0.2817
 2531TIP3    H229009   4.115   6.746   6.074 -0.2112 -0.5005 -0.7509
 2532TIP3   OH229010   0.064   3.684  16.928  0.2578  0.8581 -0.2221
 2532TIP3    H129011   0.020   3.742  16.867  0.9253  1.5650 -0.0477
 2532TIP3    H229012   0.016   3.694  17.010 -0.5636  0.0002 -0.5928
 2533TIP3   OH229013   2.743   5.798   4.378 -0.0283 -0.0365 -0.6737
 2533TIP3    H129014   2.676   5.844   4.328 -0.8900 -2.0421 -1.4868
 2533TIP3    H229015   2.696   5.762   4.453 -0.0045 -1.7971 -1.4604
 2534TIP3   OH229016   5.960   2.151   5.390  0.0364 -0.6086  0.5831
 2534TIP3    H129017   5.949   2.173   5.298  1.6932  2.3159  0.9273
 2534TIP3    H229018   5.876   2.173   5.431 -0.1802 -0.3411  0.0023
 2535TIP3   OH229019   6.467   4.808  12.852  0.0124 -0.5484 -0.3000
 2535TIP3    H129020   6.445   4.753  12.776 -0.7585 -1.0544  0.2685
 2535TIP3    H229021   6.550   4.773  12.883  0.7928  0.2524 -1.4465
 2536TIP3   OH229022   5.678   1.924  12.028 -0.1960 -0.2233  0.1308
 2536TIP3    H129023   5.591   1.925  12.070 -0.3578 -1.6662 -0.1299
 2536TIP3    H229024   5.694   2.016  12.005  0.3527  0.8977  4.2110
 2537TIP3   OH229025   0.916   4.907  14.829  0.3748  0.0116  0.3465
 2537TIP3    H129026   0.835   4.883  14.784  0.3946  0.3527  0.1243
 2537TIP3    H229027   0.965   4.957  14.764  0.2963  0.7188  0.8241
 2538TIP3   OH229028   3.968   2.548   0.887  0.0189 -0.1321  0.4798
 2538TIP3    H129029   4.027   2.533   0.962  2.1010  1.1245 -0.7885
 2538TIP3    H229030   3.939   2.639   0.898  0.3540  0.0649 -0.2051
 2539TIP3   OH229031   4.193   5.260  14.829 -0.0090  0.0559  0.3042
 2539TIP3    H129032   4.105   5.274  14.865 -0.5839 -1.4303 -0.4334
 2539TIP3    H229033   4.224   5.348  14.808 -0.8519  0.7077  1.6256
 2540TIP3   OH229034   0.489   6.145   2.525  0.4362 -0.2436  0.0260
 2540TIP3    H129035   0.413   6.167   2.471 -0.3444 -2.4129  0.1382
 2540TIP3    H229036   0.481   6.202   2.602 -1.6120 -0.9996  0.4501
 2541TIP3   OH229037   3.580   6.619  14.074 -0.3451  0.4857 -0.4024
 2541TIP3    H129038   3.578   6.547  14.137 -0.3389  0.5446 -0.3359
 2541TIP3    H229039   3.668   6.613  14.036 -0.2606  0.6074 -0.2262
 2542TIP3   OH229040   4.431   3.439  15.405 -0.6243 -0.7607  0.4047
 2542TIP3    H129041   4.510   3.476  15.364 -0.7502 -1.5554 -0.5852
 2542TIP3    H229042   4.461   3.357  15.444 -1.2731 -1.9135 -1.4263
 2543TIP3   OH229043   5.218   4.293  16.409  0.4768  0.9260  0.0659
 2543TIP3    H129044   5.164   4.370  16.421 -0.0440  0.6596 -0.5218
 2543TIP3    H229045   5.202   4.240  16.487  0.9877  1.4919  0.5655
 2544TIP3   OH229046   1.459   3.004   3.839  1.1927 -0.1657 -0.3151
 2544TIP3    H129047   1.544   3.045   3.858  1.1023 -0.0798 -0.0930
 2544TIP3    H229048   1.396   3.076   3.846  1.0570 -0.3062 -0.1104
 2545TIP3   OH229049   0.030   2.235   3.064 -0.4890 -0.0484 -0.0307
 2545TIP3    H129050  -0.043   2.248   3.124 -0.3959 -0.0497  0.0841
 2545TIP3    H229051   0.017   2.301   2.995 -0.4598  0.1183  0.1231
 2546TIP3   OH229052   4.161   0.562  16.680  0.2560 -0.7219  0.5340
 2546TIP3    H129053   4.147   0.561  16.586 -1.3935 -0.3623  0.7322
 2546TIP3    H229054   4.212   0.642  16.696 -1.3598  0.4425  0.1310
 2547TIP3   OH229055   3.079   1.149   1.618  0.0737  0.3803  0.0868
 2547TIP3    H129056   3.022   1.168   1.543 -0.1528  0.9234  0.3876
 2547TIP3    H229057   3.085   1.232   1.665  0.7925  0.2268  0.2856
 2548TIP3   OH229058   5.155   5.760   1.618  0.0355 -0.0457 -0.1752
 2548TIP3    H129059   5.169   5.721   1.531  0.2039  1.9869 -1.1273
 2548TIP3    H229060   5.213   5.711   1.676  0.0535 -1.3407 -1.2365
 2549TIP3   OH229061   3.061   3.293  10.644 -0.4821 -0.3521  0.0821
 2549TIP3    H129062   3.046   3.383  10.673 -1.4253 -1.6665  4.5819
 2549TIP3    H229063   3.156   3.282  10.651 -0.5159 -0.1072  1.2711
 2550TIP3   OH229064   2.277   3.494   4.105  0.4717 -0.1082  0.2099
 2550TIP3    H129065   2.203   3.434   4.114 -0.1807  0.8134  1.2230
 2550TIP3    H229066   2.237   3.579   4.088  1.2831  0.4295  0.9168
 2551TIP3   OH229067   5.641   0.462  13.101 -0.2882  0.0493  0.0645
 2551TIP3    H129068   5.669   0.549  13.073 -0.6758 -0.2888 -1.4715
 2551TIP3    H229069   5.723   0.417  13.125 -0.0131  0.5784  0.1406
 2552TIP3   OH229070   0.048   5.041  16.032 -1.0688 -0.7703  0.4350
 2552TIP3    H129071   0.061   5.017  16.124 -0.5769 -1.2708  0.2421
 2552TIP3    H229072   0.060   5.136  16.030 -2.5166 -0.5353  1.1306
 2553TIP3   OH229073   4.404   5.928  16.780 -0.2968  0.1941 -0.0044
 2553TIP3    H129074   4.335   5.988  16.753  0.1052  0.5034 -0.3503
 2553TIP3    H229075   4.439   5.892  16.698 -1.7451 -1.9170  0.2206
 2554TIP3   OH229076   2.418   3.043  11.268  0.2471  0.1369 -0.2848
 2554TIP3    H129077   2.364   3.016  11.194 -0.9767 -0.9810  0.9536
 2554TIP3    H229078   2.390   3.133  11.287 -0.7929 -0.2347 -0.0140
 2555TIP3   OH229079   6.314   4.309   2.453 -0.2785 -0.2389  0.1975
 2555TIP3    H129080   6.337   4.381   2.512 -1.3244  1.5373 -1.4254
 2555TIP3    H229081   6.374   4.318   2.380 -0.0014 -1.4533  0.2580
 2556TIP3   OH229082   2.926   0.463   0.092  0.2912 -0.2755  0.0149
 2556TIP3    H129083   2.945   0.377   0.054 -0.5066 -0.2328 -0.5007
 2556TIP3    H229084   2.971   0.525   0.035 -1.8126 -0.1265 -1.5812
 2557TIP3   OH229085   0.317   1.087  12.456  0.0197  0.2607 -0.0609
 2557TIP3    H129086   0.409   1.063  12.446  0.0779  0.4298  0.0773
 2557TIP3    H229087   0.271   1.030  12.394 -0.0274 -1.3354  1.3782
 2558TIP3   OH229088   6.701   3.863  16.318 -0.2849  0.3262  0.5072
 2558TIP3    H129089   6.677   3.923  16.389 -3.2847  0.5905 -0.6111
 2558TIP3    H229090   6.680   3.776  16.351 -0.0961  0.2849  0.5220
 2559TIP3   OH229091   2.489   4.456   0.557  0.2719 -0.1569 -0.4991
 2559TIP3    H129092   2.491   4.513   0.634  0.2690 -2.1519  1.0893
 2559TIP3    H229093   2.571   4.473   0.511  0.7703  0.3379  0.5433
 2560TIP3   OH229094   4.309   4.348  11.415  0.3256 -0.6705  0.2049
 2560TIP3    H129095   4.280   4.276  11.358 -1.1498  1.4121 -1.9001
 2560TIP3    H229096   4.380   4.390  11.366  0.1510  0.1877  0.6630
 2561TIP3   OH229097   5.163   5.002  12.101  0.4102 -0.1407 -0.3567
 2561TIP3    H129098   5.245   5.045  12.076 -0.8854  1.0058 -2.9851
 2561TIP3    H229099   5.147   4.938  12.031 -1.9108  1.0792 -1.0175
 2562TIP3   OH229100   3.129   0.160   3.007 -0.3411  0.6630  0.3642
 2562TIP3    H129101   3.088   0.246   2.994  0.3507  1.1367  1.1721
 2562TIP3    H229102   3.154   0.159   3.100  1.5786  0.4762 -0.1057
 2563TIP3   OH229103   1.809   1.520   0.778 -0.2338 -0.1915  0.0379
 2563TIP3    H129104   1.764   1.604   0.793  0.2342 -0.1717  1.4747
 2563TIP3    H229105   1.901   1.544   0.771  0.0430 -0.6834  1.6498
 2564TIP3   OH229106   5.995   4.302  11.924 -0.0130  0.0275  0.2414
 2564TIP3    H129107   6.084   4.290  11.957  0.5433  0.2803 -1.1218
 2564TIP3    H229108   6.006   4.327  11.833 -1.4147  2.1733  0.5943
 2565TIP3   OH229109   0.018   2.334  15.185 -0.4368 -0.1723  0.0694
 2565TIP3    H129110  -0.041   2.408  15.169  0.3621  0.2147 -1.3207
 2565TIP3    H229111  -0.023   2.285  15.256 -2.0839  0.4454 -0.4089
 2566TIP3   OH229112   2.025   1.110  14.934  0.0827  0.4502  0.0366
 2566TIP3    H129113   2.044   1.190  14.984 -0.3335  1.1933 -0.9656
 2566TIP3    H229114   2.090   1.047  14.965  0.2260  1.0683  1.0715
 2567TIP3   OH229115   2.045   0.058  15.882  0.0787 -0.3629  0.3657
 2567TIP3    H129116   2.080  -0.031  15.888 -0.8153 -0.6698  1.4224
 2567TIP3    H229117   2.083   0.094  15.802  1.9644 -1.0166  0.9243
 2568TIP3   OH229118   0.754   5.039  15.643 -0.3323 -0.2351 -0.2805
 2568TIP3    H129119   0.772   4.945  15.636 -0.1892 -0.1418 -1.5175
 2568TIP3    H229120   0.717   5.062  15.557 -2.2309  0.4551  0.6738
 2569TIP3   OH229121   2.536   6.513   5.060  0.5427  0.5372  0.5357
 2569TIP3    H129122   2.627   6.497   5.086  0.5943  1.5404  1.0283
 2569TIP3    H229123   2.532   6.608   5.044 -0.1491  0.3376 -0.5629
 2570TIP3   OH229124   1.291   4.958   6.249  0.0967 -0.1015  0.2817
 2570TIP3    H129125   1.222   4.963   6.316 -0.4522  1.3238 -0.3535
 2570TIP3    H229126   1.339   5.040   6.259 -0.4969  0.5113 -1.5815
 2571TIP3   OH229127   5.364   5.167   1.051 -0.0538  0.4604 -0.1889
 2571TIP3    H129128   5.419   5.107   1.001  1.4356  1.9082 -0.4048
 2571TIP3    H229129   5.281   5.121   1.061  1.3421 -2.0722  0.6446
 2572TIP3   OH229130   2.703   3.477   0.476 -0.3944  0.0083 -0.1576
 2572TIP3    H129131   2.766   3.549   0.482 -0.1875 -0.2420  0.8791
 2572TIP3    H229132   2.720   3.437   0.391  1.2319 -0.3949  0.3222
 2573TIP3   OH229133   0.810   1.206  13.643 -0.2264 -0.1419  0.0404
 2573TIP3    H129134   0.797   1.266  13.717 -0.8223 -0.3826  0.1383
 2573TIP3    H229135   0.904   1.209  13.626 -0.4979  2.5155 -1.4049
 2574TIP3   OH229136   3.113   0.432   5.769 -0.3391  0.2648 -0.9403
 2574TIP3    H129137   3.160   0.516   5.773  1.4519 -0.7190  1.5162
 2574TIP3    H229138   3.180   0.369   5.741 -0.4652 -0.9555  1.2847
 2575TIP3   OH229139   4.473   0.067   0.579  0.1395  0.0142 -0.5141
 2575TIP3    H129140   4.433  -0.018   0.559 -0.2931 -0.7953  3.1146
 2575TIP3    H229141   4.564   0.047   0.599  0.6539  0.8234 -1.9166
 2576TIP3   OH229142   3.198   0.178   0.654  0.4466  0.0408 -0.3538
 2576TIP3    H129143   3.271   0.231   0.623  1.4611 -1.4024 -0.5336
 2576TIP3    H229144   3.193   0.197   0.747  1.1820  0.0208 -0.3012
 2577TIP3   OH229145   1.462   4.926   4.340 -0.8459  0.0904  0.4327
 2577TIP3    H129146   1.534   4.864   4.327 -0.6876  0.4877 -0.7402
 2577TIP3    H229147   1.404   4.883   4.402  0.3171 -0.3149  1.2719
 2578TIP3   OH229148   2.729   6.704  12.151  0.2755 -0.0897  0.2637
 2578TIP3    H129149   2.636   6.717  12.169 -0.4547 -2.1898 -1.6412
 2578TIP3    H229150   2.744   6.750  12.068  0.6527 -0.7531 -0.0397
 2579TIP3   OH229151   2.688   1.934   2.090 -0.3626 -0.2769 -0.3378
 2579TIP3    H129152   2.633   1.923   2.012 -1.4508  1.9231  0.0356
 2579TIP3    H229153   2.652   1.872   2.154  0.6280 -2.2065 -1.5400
 2580TIP3   OH229154   5.077   2.612   1.467 -0.4266  0.4044  0.3693
 2580TIP3    H129155   5.165   2.626   1.502 -0.2280 -1.1248  0.5555
 2580TIP3    H229156   5.037   2.549   1.527 -0.6738 -0.9938 -1.1788
 2581TIP3   OH229157   2.098   2.875  14.359 -0.4025  0.2059  0.3908
 2581TIP3    H129158   2.034   2.872  14.431  0.5683  0.4779  1.3011
 2581TIP3    H229159   2.110   2.784  14.333 -2.4093  0.2851 -0.9627
 2582TIP3   OH229160   1.478   0.068   5.602 -0.1106  0.5948 -0.3995
 2582TIP3    H129161   1.465   0.067   5.697  0.6029  2.1201 -0.2538
 2582TIP3    H229162   1.568   0.037   5.589 -0.8777 -1.6888 -0.7827
 2583TIP3   OH229163   4.419   6.261  13.800  0.0675 -0.6620  0.0492
 2583TIP3    H129164   4.392   6.260  13.708 -2.1021 -1.1572  0.6316
 2583TIP3    H229165   4.384   6.344  13.833 -0.0056 -0.9255  0.6381
 2584TIP3   OH229166   2.851   2.475  11.254 -0.3341  0.0620  0.0835
 2584TIP3    H129167   2.809   2.517  11.179  0.9641  1.2818 -0.0003
 2584TIP3    H229168   2.939   2.454  11.224 -0.5879 -1.7127  0.5063
 2585TIP3   OH229169   4.447   1.717  13.045 -0.3741 -0.8846 -0.3292
 2585TIP3    H129170   4.415   1.648  12.987  0.2686 -2.0058  0.5948
 2585TIP3    H229171   4.471   1.671  13.125 -0.3212  0.4899  0.4705
 2586TIP3   OH229172   2.310   1.486   2.758 -0.1388  0.2291 -0.4522
 2586TIP3    H129173   2.288   1.551   2.824 -2.9662  0.6057 -1.6303
 2586TIP3    H229174   2.404   1.470   2.770 -0.3576  0.8429  3.0703
 2587TIP3   OH229175   5.967   3.867   5.408  0.2751  0.1044  0.2747
 2587TIP3    H129176   5.998   3.891   5.495  0.6721 -0.7709  0.3935
 2587TIP3    H229177   6.003   3.934   5.350 -0.9316  1.3413  0.9059
 2588TIP3   OH229178   4.792   0.037  12.204  0.5374 -0.1430 -0.2437
 2588TIP3    H129179   4.875   0.000  12.234  1.0925 -0.1496 -1.6971
 2588TIP3    H229180   4.761   0.089  12.279  1.3029 -1.0037  0.7071
 2589TIP3   OH229181   5.364   5.157   2.291 -0.5687 -0.0307  1.1305
 2589TIP3    H129182   5.360   5.072   2.247  0.1758 -0.5649  2.0640
 2589TIP3    H229183   5.298   5.151   2.360 -1.3799  0.6174  0.4283
 2590TIP3   OH229184   0.007   1.115   0.007 -0.2087  0.3703 -0.0800
 2590TIP3    H129185  -0.056   1.069  -0.049 -0.8922 -0.3761  1.2471
 2590TIP3    H229186  -0.048   1.155   0.075  0.6725  0.5023  0.5625
 2591TIP3   OH229187   4.980   5.407   3.301 -0.0987  0.0561 -0.7635
 2591TIP3    H129188   5.043   5.478   3.311 -0.2444  0.1885 -0.7781
 2591TIP3    H229189   4.907   5.431   3.359 -0.6092  0.4460 -1.5397
 2592TIP3   OH229190   5.683   3.812  15.369  0.8165  0.2802  0.4988
 2592TIP3    H129191   5.777   3.827  15.360  0.5159  1.3977 -1.2429
 2592TIP3    H229192   5.655   3.776  15.285 -0.5636  1.5103  0.3758
 2593TIP3   OH229193   1.477   4.064   6.123 -0.2992 -0.7109  0.1312
 2593TIP3    H129194   1.521   4.061   6.208  0.1549 -0.0666 -0.0720
 2593TIP3    H229195   1.396   4.014   6.136  0.7590 -2.4540  0.3524
 2594TIP3   OH229196   3.006   3.312   2.135  0.0653  0.3364 -0.1594
 2594TIP3    H129197   3.067   3.244   2.164 -2.3732 -1.6414  0.6680
 2594TIP3    H229198   3.036   3.335   2.047  0.4809 -2.4570 -0.8306
 2595TIP3   OH229199   0.399   3.879   5.333  0.0552  0.8195  0.2059
 2595TIP3    H129200   0.437   3.899   5.248  1.1161 -1.1891  0.1439
 2595TIP3    H229201   0.473   3.879   5.393 -0.0480 -1.3746  0.4217
 2596TIP3   OH229202   6.666   3.164  14.025 -0.0830 -0.2031 -0.0943
 2596TIP3    H129203   6.745   3.177  14.079 -0.1585 -1.3907  0.3430
 2596TIP3    H229204   6.609   3.238  14.047  0.4437  0.0531  0.4422
 2597TIP3   OH229205   0.973   3.423   6.473 -0.1591 -0.7294 -0.0200
 2597TIP3    H129206   1.010   3.484   6.537 -0.8516 -0.4509  0.1301
 2597TIP3    H229207   0.977   3.471   6.390  0.6919 -1.0708 -0.1791
 2598TIP3   OH229208   6.247   6.149  11.550 -0.2627  0.1843  0.4995
 2598TIP3    H129209   6.241   6.060  11.516 -0.5601  0.4013 -0.0300
 2598TIP3    H229210   6.290   6.139  11.635 -0.7335 -0.5207  0.6713
 2599TIP3   OH229211   0.276   2.358   5.843 -0.5130 -0.3895  0.0159
 2599TIP3    H129212   0.364   2.358   5.807 -0.4056 -0.4963  0.2787
 2599TIP3    H229213   0.284   2.316   5.928 -0.8683 -0.6641 -0.0797
 2600TIP3   OH229214   0.416   3.400  16.982  0.1310  0.5614  0.5052
 2600TIP3    H129215   0.367   3.420  16.903  0.0909 -2.3669 -0.3292
 2600TIP3    H229216   0.409   3.479  17.036  0.9971  3.0420 -2.7465
 2601TIP3   OH229217   6.784   6.363   5.707  0.2287 -0.3125 -0.5810
 2601TIP3    H129218   6.738   6.413   5.774 -1.0872  1.4158 -2.6528
 2601TIP3    H229219   6.874   6.354   5.741  0.3962  3.0032  0.1798
 2602TIP3   OH229220   4.278   3.765   1.788 -0.3353  0.1327 -0.5073
 2602TIP3    H129221   4.284   3.829   1.717 -0.1526 -1.1345 -1.6688
 2602TIP3    H229222   4.320   3.687   1.753  0.3701 -0.3238  1.2529
 2603TIP3   OH229223   5.673   2.064  11.447 -0.4062  0.1281 -0.1796
 2603TIP3    H129224   5.627   2.064  11.531 -0.4360 -0.4110 -0.1933
 2603TIP3    H229225   5.755   2.110  11.465  1.1191 -2.7732  1.0123
 2604TIP3   OH229226   2.583   3.288  14.248 -0.8725  0.1215 -0.8246
 2604TIP3    H129227   2.524   3.291  14.323 -1.7832  1.1426 -1.5471
 2604TIP3    H229228   2.666   3.259  14.284 -1.8951 -1.8102  0.1679
 2605TIP3   OH229229   3.348   1.067   6.574 -0.2280  0.3762 -0.0376
 2605TIP3    H129230   3.279   1.098   6.634 -0.7673  0.8470 -0.8828
 2605TIP3    H229231   3.324   1.104   6.489  1.1146  0.6030 -0.3372
 2606TIP3   OH229232   4.082   2.521   1.605 -0.0484  0.5544 -0.3080
 2606TIP3    H129233   4.162   2.471   1.621  0.7561  1.8018 -0.2910
 2606TIP3    H229234   4.012   2.468   1.644  0.5363 -1.2477 -1.5573
 2607TIP3   OH229235   5.853   1.771   4.092  0.5123 -0.0603 -0.2688
 2607TIP3    H129236   5.850   1.743   4.183  2.8247  3.5424  1.0974
 2607TIP3    H229237   5.944   1.758   4.065  0.0129 -0.4707 -1.9254
 2608TIP3   OH229238   0.500   2.397  12.257  0.9523 -0.3646 -0.2551
 2608TIP3    H129239   0.444   2.381  12.333 -0.2327 -2.1550 -1.4366
 2608TIP3    H229240   0.469   2.481  12.222 -1.4654 -1.5736 -1.2240
 2609TIP3   OH229241   4.104   0.103  12.244 -0.3798 -0.2974 -0.1065
 2609TIP3    H129242   4.032   0.129  12.302  0.0462 -0.9250  0.7230
 2609TIP3    H229243   4.140   0.025  12.285 -0.3638 -1.0381 -1.4774
 2610TIP3   OH229244   3.450   4.801   5.990 -0.4632  0.4125 -0.0851
 2610TIP3    H129245   3.486   4.807   6.079 -0.7578  2.1439 -0.0552
 2610TIP3    H229246   3.358   4.826   6.000 -0.5692  0.3345 -0.8368
 2611TIP3   OH229247   0.866   6.174  13.511  0.2721  0.2447 -0.1777
 2611TIP3    H129248   0.850   6.175  13.605  1.0147  0.5839 -0.0424
 2611TIP3    H229249   0.840   6.261  13.481 -2.5101 -0.7180 -0.7695
 2612TIP3   OH229250   1.721   0.551   4.799 -0.1278  0.7471  0.3022
 2612TIP3    H129251   1.723   0.518   4.889  0.9850 -0.3184 -0.0753
 2612TIP3    H229252   1.687   0.477   4.748  4.1194 -0.7830 -0.8351
 2613TIP3   OH229253   2.268   2.853  11.883  0.0490 -0.3884 -0.1888
 2613TIP3    H129254   2.328   2.790  11.843  1.0051  0.0028  0.5831
 2613TIP3    H229255   2.267   2.927  11.823  0.0212 -0.5703 -0.4105
 2614TIP3   OH229256   0.950   2.990  14.929  0.0728 -0.8092 -0.5415
 2614TIP3    H129257   0.900   2.969  14.849 -0.9808 -0.1229 -0.0808
 2614TIP3    H229258   0.883   3.005  14.995  0.8960  0.4532  0.0258
 2615TIP3   OH229259   2.732   2.621  15.102  0.4669  0.6288  0.2507
 2615TIP3    H129260   2.729   2.716  15.112 -1.3698  0.6883 -0.5181
 2615TIP3    H229261   2.764   2.608  15.012 -2.0073  0.6433 -0.6960
 2616TIP3   OH229262   4.454   4.053   5.018 -0.1794 -0.7232  0.6483
 2616TIP3    H129263   4.465   3.982   5.082  0.3972 -0.7432  0.5255
 2616TIP3    H229264   4.514   4.032   4.947  0.0597 -0.0667  0.6480
 2617TIP3   OH229265   4.670   3.951  15.568  0.3937 -0.5167 -0.0165
 2617TIP3    H129266   4.620   3.959  15.486 -0.0214  2.0486  0.4174
 2617TIP3    H229267   4.740   4.015  15.559  0.4640 -0.3454  1.5470
 2618TIP3   OH229268   1.713   0.936  14.997  0.0663 -0.4304  0.0992
 2618TIP3    H129269   1.729   1.016  14.947 -1.2651  0.8156  1.5720
 2618TIP3    H229270   1.638   0.895  14.955 -1.6719  1.1164  1.5201
 2619TIP3   OH229271   5.633   0.712  16.359 -0.2886 -0.1400 -0.2087
 2619TIP3    H129272   5.682   0.792  16.379 -0.5853  0.1404 -0.5904
 2619TIP3    H229273   5.683   0.643  16.401 -0.2303  0.2896  0.4475
 2620TIP3   OH229274   2.906   5.285   0.917 -0.8258 -0.0555  0.0664
 2620TIP3    H129275   2.895   5.195   0.948  2.5620 -0.8478 -0.6494
 2620TIP3    H229276   2.968   5.324   0.979 -1.6393  1.5925 -0.0918
 2621TIP3   OH229277   3.814   1.799   5.694 -0.2809  0.2063 -0.8757
 2621TIP3    H129278   3.867   1.825   5.769  0.5120  0.0700 -1.3777
 2621TIP3    H229279   3.784   1.710   5.716 -0.3595  0.3081 -0.5637
 2622TIP3   OH229280   1.949   6.022  12.575  0.2358 -0.1141 -0.4503
 2622TIP3    H129281   1.895   5.952  12.611  2.3635 -1.0947  1.0783
 2622TIP3    H229282   2.018   5.977  12.527  1.6461  0.8619  0.5515
 2623TIP3   OH229283   2.642   3.774   5.298  0.4128 -0.2742  0.1115
 2623TIP3    H129284   2.690   3.759   5.379  2.4171 -0.4979 -1.0439
 2623TIP3    H229285   2.673   3.705   5.239 -2.3402 -1.2488 -0.3523
 2624TIP3   OH229286   3.012   2.966   5.117 -0.0625 -0.0462  0.2779
 2624TIP3    H129287   2.935   2.918   5.085 -2.4290  2.6227  1.5875
 2624TIP3    H229288   3.046   2.911   5.188 -0.7547 -1.2725 -0.2956
 2625TIP3   OH229289   1.071   4.707  12.197  0.5069  0.0527  0.3780
 2625TIP3    H129290   1.017   4.636  12.163  1.3857  0.0590 -1.1208
 2625TIP3    H229291   1.071   4.694  12.292 -0.9285 -0.7892  0.2836
 2626TIP3   OH229292   1.692   4.063  11.571 -0.1151 -0.2992 -0.0289
 2626TIP3    H129293   1.601   4.058  11.543 -1.8132  0.7863  4.3999
 2626TIP3    H229294   1.702   3.991  11.633  2.2485 -0.6162 -0.6709
 2627TIP3   OH229295   1.021   5.241   5.043  0.0577 -0.1968 -0.3706
 2627TIP3    H129296   1.097   5.298   5.032 -0.8798  1.2739  0.3536
 2627TIP3    H229297   1.050   5.172   5.102  0.9140  0.1802 -0.3365
 2628TIP3   OH229298   1.026   0.385  14.029  0.3460  0.9894 -0.3659
 2628TIP3    H129299   0.985   0.366  13.945  1.0778  0.0087 -0.5148
 2628TIP3    H229300   1.050   0.300  14.065 -1.7958  1.1886  1.8268
 2629TIP3   OH229301   1.144   3.712   5.610 -0.0313  0.3260  0.2096
 2629TIP3    H129302   1.231   3.683   5.636  0.2727  1.5841  0.6750
 2629TIP3    H229303   1.095   3.632   5.593  0.9137 -0.4152  0.9335
 2630TIP3   OH229304   0.533   2.683   3.673 -0.4003  0.2135 -0.2246
 2630TIP3    H129305   0.602   2.745   3.650  0.8287 -1.1057 -0.1942
 2630TIP3    H229306   0.472   2.734   3.727  0.7945  1.2757  0.1665
 2631TIP3   OH229307   2.308   3.345   5.691 -0.2595  0.0482 -0.1633
 2631TIP3    H129308   2.382   3.399   5.665 -0.9704  0.4109 -1.5479
 2631TIP3    H229309   2.347   3.270   5.736  0.8344  0.9443  0.4237
 2632TIP3   OH229310   5.061   6.477  10.751 -0.6591 -0.1036 -0.1183
 2632TIP3    H129311   4.989   6.493  10.690 -0.0015 -1.4610 -1.3044
 2632TIP3    H229312   5.085   6.386  10.736  0.3530 -0.1031  1.3156
 2633TIP3   OH229313   4.841   2.002   2.833  0.2901  0.2332  0.6807
 2633TIP3    H129314   4.825   2.069   2.766  1.9825  1.5241  1.4981
 2633TIP3    H229315   4.849   1.920   2.784 -0.8119  0.7706 -0.4454
 2634TIP3   OH229316   1.118   5.257  13.049  0.9447 -0.7566 -0.6988
 2634TIP3    H129317   1.152   5.208  12.975  2.0791  1.3034 -1.6426
 2634TIP3    H229318   1.183   5.246  13.118 -0.3904 -3.1453  0.2732
 2635TIP3   OH229319   1.389   5.141  10.785 -0.4568 -0.1943  0.2671
 2635TIP3    H129320   1.439   5.171  10.710  0.0193  0.0339  0.6704
 2635TIP3    H229321   1.400   5.046  10.785  1.5884 -0.0063  1.4522
 2636TIP3   OH229322   2.178   1.639  13.168  0.2549 -0.1040 -0.2235
 2636TIP3    H129323   2.253   1.682  13.127  1.9159  0.7652  3.2762
 2636TIP3    H229324   2.102   1.688  13.139  1.4094  1.0586 -1.3791
 2637TIP3   OH229325   0.365   5.628  12.276  0.9081 -1.1746  0.0767
 2637TIP3    H129326   0.444   5.663  12.234  0.4202  0.0507  0.1361
 2637TIP3    H229327   0.300   5.626  12.205  0.5675 -0.7170  0.3695
 2638TIP3   OH229328   4.038   6.529   1.957  0.0600  0.3924 -0.1027
 2638TIP3    H129329   3.963   6.469   1.956  0.1798  0.2201  0.4786
 2638TIP3    H229330   4.002   6.612   1.986 -0.1137  0.6220 -0.9470
 2639TIP3   OH229331   4.078   0.255   3.350  0.2067  0.5403 -0.2624
 2639TIP3    H129332   4.040   0.211   3.274 -0.0817 -2.2397  1.3660
 2639TIP3    H229333   4.004   0.273   3.407  0.7264 -0.0814  0.6268
 2640TIP3   OH229334   2.743   1.739   2.882 -0.3844 -0.3265  0.1942
 2640TIP3    H129335   2.809   1.673   2.904 -1.6394 -1.6302  0.1959
 2640TIP3    H229336   2.764   1.813   2.939 -0.9471 -2.0010  2.7646
 2641TIP3   OH229337   6.493   6.341  13.066 -0.1877 -0.3878  0.6312
 2641TIP3    H129338   6.491   6.245  13.064 -0.0942 -0.3937  0.7446
 2641TIP3    H229339   6.543   6.361  13.145  2.3532 -0.2790 -0.8931
 2642TIP3   OH229340   4.868   5.345  15.765 -0.4192 -0.2885  0.0492
 2642TIP3    H129341   4.794   5.288  15.788 -0.8912 -0.1461 -1.0268
 2642TIP3    H229342   4.945   5.292  15.783 -0.6515  0.1807  2.9279
 2643TIP3   OH229343   5.446   1.964   6.094  0.1669 -0.0067  0.1324
 2643TIP3    H129344   5.512   2.026   6.063  1.5818 -1.0672  0.8945
 2643TIP3    H229345   5.378   2.018   6.133 -0.2379  1.2025 -2.0963
 2644TIP3   OH229346   5.006   2.242   4.975  0.2215 -0.7158  0.3415
 2644TIP3    H129347   4.983   2.165   4.923  1.5418 -0.9616  0.0879
 2644TIP3    H229348   4.924   2.289   4.986 -1.0840 -3.2002  2.2747
 2645TIP3   OH229349   3.610   6.317   5.580 -0.6300  0.2397 -0.2195
 2645TIP3    H129350   3.681   6.315   5.644 -1.6797 -0.3315  0.9607
 2645TIP3    H229351   3.605   6.409   5.553  0.7955  0.2218 -0.6333
 2646TIP3   OH229352   1.860   5.443  11.474  0.0722  0.3874 -0.1483
 2646TIP3    H129353   1.948   5.478  11.461 -0.2361  1.4169  0.3899
 2646TIP3    H229354   1.856   5.422  11.568 -0.3457  0.6043 -0.1144
 2647TIP3   OH229355   6.511   3.116  12.307  0.2284 -0.0621  0.1023
 2647TIP3    H129356   6.446   3.151  12.366  0.1013  2.4105 -1.3752
 2647TIP3    H229357   6.562   3.192  12.278  1.7328 -1.4710 -1.2184
 2648TIP3   OH229358   3.863   2.365  11.241 -0.0211  0.0392 -0.4036
 2648TIP3    H129359   3.805   2.395  11.311  0.1062  0.8512 -0.6384
 2648TIP3    H229360   3.832   2.276  11.221  0.8648 -0.7996  1.6561
 2649TIP3   OH229361   4.532   5.963  15.635  0.1412 -0.2772  0.3709
 2649TIP3    H129362   4.522   6.047  15.590  0.6681  0.0950  0.9176
 2649TIP3    H229363   4.541   5.988  15.728 -1.5096 -1.0463  0.7687
 2650TIP3   OH229364   4.172   2.586  13.457  0.4473 -0.4083 -0.3501
 2650TIP3    H129365   4.081   2.608  13.477  0.8211  0.1329  0.8333
 2650TIP3    H229366   4.201   2.534  13.531  0.5019 -2.4054 -1.7061
 2651TIP3   OH229367   6.551   5.369   6.102 -0.1284  0.4838 -0.3762
 2651TIP3    H129368   6.458   5.358   6.081 -0.5006  0.1391  1.3176
 2651TIP3    H229369   6.553   5.378   6.197  1.5404  0.9714 -0.4306
 2652TIP3   OH229370   3.448   6.457   1.858 -0.2704  0.0968 -0.1666
 2652TIP3    H129371   3.463   6.381   1.803  1.2409  1.6368 -2.0570
 2652TIP3    H229372   3.415   6.524   1.798 -2.2597  0.7787  1.5584
 2653TIP3   OH229373   1.449   6.038  11.664 -0.1510 -0.9047  0.7456
 2653TIP3    H129374   1.522   5.991  11.625 -0.7290 -3.9844  3.0289
 2653TIP3    H229375   1.373   6.013  11.610  0.0071  0.0765  0.0386
 2654TIP3   OH229376   3.460   2.616   2.762  0.2654  0.4404  0.5271
 2654TIP3    H129377   3.399   2.638   2.833  2.6728  0.7687  2.6336
 2654TIP3    H229378   3.505   2.538   2.793 -1.5373 -2.1350 -2.6759
 2655TIP3   OH229379   3.336   3.795   1.955  0.2450 -0.1185 -0.0292
 2655TIP3    H129380   3.308   3.745   2.031 -1.3059  1.0990  0.2552
 2655TIP3    H229381   3.292   3.752   1.881  0.2533 -0.1886  0.0071
 2656TIP3   OH229382   5.843   0.300   2.711 -0.0918 -0.0922 -0.0152
 2656TIP3    H129383   5.869   0.247   2.786 -1.3857 -1.6220 -0.5853
 2656TIP3    H229384   5.904   0.275   2.641  2.3770  2.7560  0.9525
 2657TIP3   OH229385   3.660   3.590   4.356 -0.4731  0.0329  0.0571
 2657TIP3    H129386   3.658   3.546   4.271  0.9162  0.7152 -0.3741
 2657TIP3    H229387   3.571   3.622   4.368 -0.6070  0.2957 -1.3724
 2658TIP3   OH229388   1.670   4.913   3.817  0.2845 -0.1592 -0.0001
 2658TIP3    H129389   1.759   4.948   3.827  0.5239 -0.8724  0.4524
 2658TIP3    H229390   1.683   4.825   3.780 -0.2685 -0.0184 -0.5430
 2659TIP3   OH229391   3.883   2.045   1.914 -0.1895 -0.5918 -0.1856
 2659TIP3    H129392   3.825   2.004   1.978 -0.9632  0.7633  0.0337
 2659TIP3    H229393   3.898   2.133   1.949  0.8727 -0.4421 -0.9581
 2660TIP3   OH229394   5.382   6.492  16.468 -0.4411 -0.1038  0.0427
 2660TIP3    H129395   5.303   6.538  16.440 -0.3282 -0.0702 -0.2189
 2660TIP3    H229396   5.410   6.538  16.547  0.0211  0.6687 -0.5574
 2661TIP3   OH229397   2.257   1.229  16.710 -0.3411 -0.3415 -0.1530
 2661TIP3    H129398   2.343   1.196  16.736 -0.9318 -1.0277  1.0359
 2661TIP3    H229399   2.243   1.195  16.622  0.8667  0.3296 -0.6209
 2662TIP3   OH229400   5.572   1.817  11.368  0.5075 -0.2751  0.1630
 2662TIP3    H129401   5.654   1.864  11.377  0.6386 -0.3361 -0.6895
 2662TIP3    H229402   5.504   1.884  11.374  0.7071  0.0953 -1.4803
 2663TIP3   OH229403   3.077   4.884   4.959 -0.6442 -0.0939 -0.0223
 2663TIP3    H129404   3.115   4.969   4.939  0.2858 -1.0750 -2.9312
 2663TIP3    H229405   3.085   4.834   4.878  1.2022 -3.8324  2.1655
 2664TIP3   OH229406   2.207   3.905   3.729 -0.7319 -0.1264 -0.6721
 2664TIP3    H129407   2.158   3.868   3.655 -0.5111 -1.4573 -0.1866
 2664TIP3    H229408   2.157   3.878   3.806  1.0644 -2.1595 -0.1128
 2665TIP3   OH229409   2.928   5.489   1.224 -0.1955 -0.3005 -0.5302
 2665TIP3    H129410   2.898   5.412   1.272 -0.3789  1.0068  1.5697
 2665TIP3    H229411   2.978   5.453   1.151 -0.0872 -2.4081  0.4900
 2666TIP3   OH229412   6.414   2.091  13.931  0.2707  0.1147 -0.0880
 2666TIP3    H129413   6.328   2.075  13.970  0.1004  0.1605 -0.4501
 2666TIP3    H229414   6.451   2.004  13.918  1.1030  0.1076  1.8872
 2667TIP3   OH229415   5.601   1.921   0.540 -0.2482  0.9293 -0.0452
 2667TIP3    H129416   5.630   1.961   0.622 -0.3223 -0.6776  0.7992
 2667TIP3    H229417   5.539   1.853   0.566  1.4010 -1.1657 -1.2026
 2668TIP3   OH229418   1.284   5.300   0.817 -0.3237  0.1036 -0.1470
 2668TIP3    H129419   1.194   5.302   0.849  0.6827 -0.3514  3.0454
 2668TIP3    H229420   1.321   5.384   0.844  0.5435 -0.1987 -0.3607
 2669TIP3   OH229421   5.798   3.070  11.847  0.3851 -0.1655 -0.1167
 2669TIP3    H129422   5.825   3.093  11.759  0.6192 -1.5131 -0.4243
 2669TIP3    H229423   5.858   3.000  11.873  0.5175  0.4209  1.2370
 2670TIP3   OH229424   4.859   6.505   4.211  0.4499 -0.5029  0.0446
 2670TIP3    H129425   4.826   6.562   4.280  0.8342 -0.8197  0.4936
 2670TIP3    H229426   4.939   6.467   4.247 -0.7437 -2.7555  0.4888
 2671TIP3   OH229427   3.463   1.959   0.003 -0.5539  0.3549 -0.2499
 2671TIP3    H129428   3.474   2.014  -0.075  0.1341  1.6780  0.7299
 2671TIP3    H229429   3.542   1.906   0.005 -0.3804  0.6075 -0.2519
 2672TIP3   OH229430   5.235   5.595   0.846  0.5864  0.6122 -0.0155
 2672TIP3    H129431   5.256   5.674   0.895  0.9287  1.2337 -1.1413
 2672TIP3    H229432   5.224   5.624   0.756 -2.5287 -0.1078  0.0270
 2673TIP3   OH229433   2.990   5.171  16.777 -0.4807  0.1194  0.1551
 2673TIP3    H129434   2.964   5.261  16.762  1.3181  0.6398 -0.0270
 2673TIP3    H229435   3.011   5.167  16.870 -0.3099 -0.0362  0.1106
 2674TIP3   OH229436   6.120   1.638   0.079  0.5254  0.1309 -0.5205
 2674TIP3    H129437   6.205   1.645   0.121  0.6072  0.6072 -0.7519
 2674TIP3    H229438   6.116   1.714   0.020  0.8033 -0.9942 -2.0638
 2675TIP3   OH229439   4.009   0.534   4.680 -0.6249  0.3567  0.0279
 2675TIP3    H129440   4.032   0.621   4.646  0.1049 -0.2787 -1.1368
 2675TIP3    H229441   4.030   0.539   4.773 -0.8813  1.5224  0.0409
 2676TIP3   OH229442   0.315   0.298  15.956 -0.3566  0.1628 -0.3579
 2676TIP3    H129443   0.258   0.227  15.928 -0.4432 -0.3634  1.1177
 2676TIP3    H229444   0.371   0.260  16.023  1.9190  0.5992 -1.8965
 2677TIP3   OH229445   1.233   5.936  11.522 -0.6550 -0.5226 -0.6510
 2677TIP3    H129446   1.196   5.848  11.513  0.1400 -0.8484 -0.7970
 2677TIP3    H229447   1.177   5.979  11.586  0.7865 -2.1830  1.9034
 2678TIP3   OH229448   0.777   0.385   2.880 -0.8262  0.3200 -0.3522
 2678TIP3    H129449   0.729   0.450   2.828 -0.5960  1.3444  0.6762
 2678TIP3    H229450   0.869   0.410   2.870 -0.7571  0.3429  0.2863
 2679TIP3   OH229451   2.803   4.553  13.030 -0.3934 -0.0298 -0.2941
 2679TIP3    H129452   2.872   4.503  12.985  1.2949  1.4011  0.5700
 2679TIP3    H229453   2.786   4.503  13.110 -1.5898 -1.2462 -1.2584
 2680TIP3   OH229454   0.313   4.184  15.964  0.5058 -0.4168 -0.7668
 2680TIP3    H129455   0.256   4.254  15.930  2.6651  2.0488  0.3387
 2680TIP3    H229456   0.259   4.140  16.030 -0.7312  0.6561 -1.0092
 2681TIP3   OH229457   6.295   2.530   2.228 -0.0102 -0.4692  0.5620
 2681TIP3    H129458   6.257   2.608   2.268  1.4321  0.9109 -0.5800
 2681TIP3    H229459   6.240   2.513   2.151  0.4538  0.2790  0.0521
 2682TIP3   OH229460   4.507   1.156  15.101  0.1169  0.2715  0.0657
 2682TIP3    H129461   4.451   1.106  15.042 -0.8517 -0.7684  1.7603
 2682TIP3    H229462   4.522   1.096  15.175  0.4337  1.8561  1.3338
 2683TIP3   OH229463   0.799   0.827  11.715 -0.4918 -0.2262 -0.2135
 2683TIP3    H129464   0.776   0.761  11.780 -0.3485 -1.3729 -1.2910
 2683TIP3    H229465   0.894   0.817  11.703 -0.3439  0.6683  0.1250
 2684TIP3   OH229466   5.356   0.485  16.001 -0.1938  0.1125  0.4412
 2684TIP3    H129467   5.359   0.546  16.076 -0.2811  2.5968 -1.4308
 2684TIP3    H229468   5.264   0.481  15.978  0.1558  2.5370 -1.8204
 2685TIP3   OH229469   2.639   0.072   3.557 -0.1916 -0.0048 -0.1507
 2685TIP3    H129470   2.574   0.053   3.625 -0.9748 -0.2183 -0.9339
 2685TIP3    H229471   2.720   0.033   3.590 -1.0323 -1.9898 -0.2513
 2686TIP3   OH229472   4.704   6.055   5.182 -0.0716  0.4062 -0.3327
 2686TIP3    H129473   4.730   6.096   5.100  0.8692  0.7000  0.0961
 2686TIP3    H229474   4.685   6.128   5.241  0.0658  0.2103 -0.0421
 2687TIP3   OH229475   3.970   6.749  14.448  0.8945 -0.1795 -0.1586
 2687TIP3    H129476   3.888   6.788  14.417  0.0521 -2.5778 -1.2160
 2687TIP3    H229477   3.957   6.737  14.542  0.8240  1.1764  0.0213
 2688TIP3   OH229478   1.116   2.819  16.376 -0.0895 -0.6101  0.7692
 2688TIP3    H129479   1.193   2.863  16.410  0.6347  0.6819 -2.1835
 2688TIP3    H229480   1.146   2.778  16.294 -2.4310 -0.3414 -0.3006
 2689TIP3   OH229481   0.248   4.880  14.236 -0.1744  0.1479  0.4778
 2689TIP3    H129482   0.320   4.943  14.231  0.1109  0.0101  2.1580
 2689TIP3    H229483   0.226   4.861  14.145 -0.7468  3.1982 -0.1300
 2690TIP3   OH229484   1.360   2.278   2.545 -1.0991  0.0761 -0.3379
 2690TIP3    H129485   1.450   2.279   2.576 -1.8965 -0.5602  2.1727
 2690TIP3    H229486   1.349   2.363   2.502 -0.4933  2.0564  3.0901
 2691TIP3   OH229487   1.731   5.676   4.027  0.4973 -0.1606  0.6242
 2691TIP3    H129488   1.748   5.602   3.969 -0.4699  1.4790 -1.9370
 2691TIP3    H229489   1.808   5.733   4.015 -0.1959  0.6837  0.0626
 2692TIP3   OH229490   3.072   3.494  14.420 -0.6436  0.1607  0.5071
 2692TIP3    H129491   3.044   3.583  14.400  0.8028  0.7339  0.8733
 2692TIP3    H229492   3.115   3.501  14.506 -0.1534 -0.7950  0.3547
 2693TIP3   OH229493   6.675   0.328  14.750 -0.4575 -0.6608  0.2464
 2693TIP3    H129494   6.650   0.387  14.679 -1.5649  1.2378  2.1088
 2693TIP3    H229495   6.769   0.341  14.759 -0.3986 -0.5138 -0.5072
 2694TIP3   OH229496   0.333   2.414   3.086  0.0310  0.2549 -0.7921
 2694TIP3    H129497   0.264   2.469   3.124 -1.2070 -0.2263 -2.2564
 2694TIP3    H229498   0.326   2.428   2.992  0.3358 -1.6374 -1.1378
 2695TIP3   OH229499   5.241   1.389   1.291 -0.4818  0.6285 -0.7887
 2695TIP3    H129500   5.241   1.345   1.206 -1.0236 -1.0194  0.0248
 2695TIP3    H229501   5.333   1.387   1.319 -0.5801 -0.5724 -0.4975
 2696TIP3   OH229502   0.661   0.946  14.204 -0.1055  0.3815  0.3193
 2696TIP3    H129503   0.717   0.875  14.175 -1.3697 -1.1399  1.3853
 2696TIP3    H229504   0.679   0.955  14.298 -1.5180 -0.0967  0.6745
 2697TIP3   OH229505   5.456   4.683   6.888 -0.2778  0.1558  0.7765
 2697TIP3    H129506   5.376   4.640   6.920  0.0269 -0.0351  1.2833
 2697TIP3    H229507   5.511   4.611   6.856  0.6388  0.0382  2.5053
 2698TIP3   OH229508   2.172   6.474  14.953  0.1637  0.1505  0.1213
 2698TIP3    H129509   2.078   6.486  14.969 -0.4351  0.0446 -2.8012
 2698TIP3    H229510   2.196   6.547  14.896  1.7137 -0.1950  0.2838
 2699TIP3   OH229511   0.963   1.540  12.130  0.5879 -0.0416 -0.3890
 2699TIP3    H129512   1.010   1.471  12.083  0.3712  0.1524 -0.9079
 2699TIP3    H229513   0.963   1.512  12.221  0.1316 -0.9408 -0.6558
 2700TIP3   OH229514   4.164   2.115  16.441 -0.2420 -0.6143 -0.6066
 2700TIP3    H129515   4.103   2.085  16.507  0.0210  1.3119  0.6108
 2700TIP3    H229516   4.250   2.087  16.473 -0.1262  0.2213 -0.1351
 2701TIP3   OH229517   1.079   1.026   4.190  0.0711 -0.4818  0.3660
 2701TIP3    H129518   1.175   1.031   4.185 -0.0039  1.0194 -0.1166
 2701TIP3    H229519   1.054   1.100   4.245 -0.7818 -1.3303  1.1530
 2702TIP3   OH229520   6.301   3.153  16.152  0.1526 -0.6820 -0.0953
 2702TIP3    H129521   6.394   3.176  16.150  0.4814 -1.9661 -0.5007
 2702TIP3    H229522   6.293   3.092  16.225 -0.3889 -0.5026 -0.0038
 2703TIP3   OH229523   6.495   6.367   5.418  0.3133 -0.0387 -0.5326
 2703TIP3    H129524   6.579   6.324   5.429 -0.0620 -0.7315 -0.3271
 2703TIP3    H229525   6.443   6.306   5.366 -0.5686 -0.3239  0.6303
 2704TIP3   OH229526   4.862   2.282  16.861 -0.2635 -0.1098  0.3659
 2704TIP3    H129527   4.852   2.262  16.768  0.4229 -0.9803  0.4633
 2704TIP3    H229528   4.933   2.345  16.864 -1.4139  1.2447  0.1830
 2705TIP3   OH229529   5.758   3.438   4.841  0.4886 -0.1348  0.6907
 2705TIP3    H129530   5.825   3.483   4.788  0.9667 -0.4127  1.0606
 2705TIP3    H229531   5.802   3.359   4.873  0.6072  0.6500  2.5425
 2706TIP3   OH229532   3.650   1.524   1.575  0.1255 -0.4517  0.1337
 2706TIP3    H129533   3.595   1.483   1.642 -0.0734  2.1998  1.7358
 2706TIP3    H229534   3.732   1.545   1.620  0.9097 -0.7094 -1.1194
 2707TIP3   OH229535   6.306   3.922  16.272 -0.3625  0.0075 -0.1814
 2707TIP3    H129536   6.318   4.014  16.295  0.0359 -0.5431  1.9968
 2707TIP3    H229537   6.358   3.910  16.192 -0.8551  1.7761 -0.7935
 2708TIP3   OH229538   5.596   1.376   5.371 -0.5587 -0.4157 -0.2913
 2708TIP3    H129539   5.545   1.337   5.300 -1.2737  0.9654 -0.5735
 2708TIP3    H229540   5.644   1.447   5.330 -0.6370  0.1259  0.5271
 2709TIP3   OH229541   6.286   5.640  12.336 -0.4526 -0.2890  0.4661
 2709TIP3    H129542   6.347   5.688  12.392  0.5855 -2.1415  1.0159
 2709TIP3    H229543   6.245   5.707  12.282  0.4674  1.2607  1.6123
 2710TIP3   OH229544   0.029   5.055   0.021  0.6850  0.5721 -0.1273
 2710TIP3    H129545   0.097   5.117  -0.003  0.7038  0.1659 -1.1874
 2710TIP3    H229546  -0.024   5.046  -0.058 -0.9550  1.3171  0.8488
 2711TIP3   OH229547   0.862   4.303  17.017 -0.0979  0.0784 -0.2103
 2711TIP3    H129548   0.771   4.331  17.025 -0.1903  0.2817 -1.6946
 2711TIP3    H229549   0.863   4.216  17.058 -1.0139 -0.0422 -0.4085
 2712TIP3   OH229550   4.381   1.673  12.201 -0.4831 -0.0679  0.3149
 2712TIP3    H129551   4.289   1.646  12.204 -0.3803 -0.8274 -1.8988
 2712TIP3    H229552   4.424   1.618  12.267 -1.4340 -0.4693  0.6175
 2713TIP3   OH229553   0.009   4.772   5.791  0.0699  0.1604 -0.0338
 2713TIP3    H129554  -0.007   4.679   5.776  0.9432  0.0242 -0.2290
 2713TIP3    H229555   0.094   4.774   5.836  0.9881  0.9332 -1.7042
 2714TIP3   OH229556   2.467   3.546   3.032  0.2012  0.6055 -0.0367
 2714TIP3    H129557   2.404   3.484   2.996 -0.4063  1.4246 -0.4391
 2714TIP3    H229558   2.552   3.506   3.017 -0.1995 -0.3735  0.2123
 2715TIP3   OH229559   4.923   3.131  14.646  0.0398  0.3739 -0.6251
 2715TIP3    H129560   4.845   3.181  14.671  1.2943  1.3354  1.5506
 2715TIP3    H229561   4.981   3.195  14.606 -0.0450 -0.2622 -1.8403
 2716TIP3   OH229562   4.502   2.682  16.297  0.3509  0.4509 -0.2958
 2716TIP3    H129563   4.580   2.647  16.254 -0.3618 -2.5043  0.5571
 2716TIP3    H229564   4.430   2.650  16.243 -0.3764  0.5917  0.5734
 2717TIP3   OH229565   5.266   6.727   5.191  0.2096  0.1143 -0.2147
 2717TIP3    H129566   5.179   6.689   5.200  0.2604 -0.5196 -2.1076
 2717TIP3    H229567   5.290   6.714   5.100  1.4486  2.1470 -0.2630
 2718TIP3   OH229568   5.792   2.502  13.304  0.4512  0.4051 -0.6219
 2718TIP3    H129569   5.809   2.416  13.268 -1.3642  0.9777 -3.0483
 2718TIP3    H229570   5.872   2.552  13.286  1.1732 -0.4688  0.0317
 2719TIP3   OH229571   3.512   0.305  14.575 -0.1274 -0.3021 -0.0938
 2719TIP3    H129572   3.463   0.333  14.652 -0.4267 -1.1187  0.0131
 2719TIP3    H229573   3.446   0.271  14.515  0.3938 -2.8134  0.6404
 2720TIP3   OH229574   2.381   6.454   2.365 -0.7471 -0.2750  0.5133
 2720TIP3    H129575   2.436   6.393   2.316  0.7773  0.8648  0.7378
 2720TIP3    H229576   2.309   6.474   2.305  0.6213  0.4185 -0.9501
 2721TIP3   OH229577   0.925   3.691   3.184 -0.0189 -0.1360 -0.1875
 2721TIP3    H129578   0.900   3.757   3.120  0.3481  0.7762  0.5834
 2721TIP3    H229579   0.962   3.741   3.257 -1.1453 -1.0772  1.0832
 2722TIP3   OH229580   3.702   0.267  11.422  0.1892  0.4335 -0.4623
 2722TIP3    H129581   3.622   0.314  11.447  0.8284  0.5893  1.5153
 2722TIP3    H229582   3.754   0.332  11.375 -1.0325  0.1707 -2.2601
 2723TIP3   OH229583   0.553   2.368   6.103  0.0251 -0.2773  0.2965
 2723TIP3    H129584   0.481   2.390   6.162 -0.9197 -0.9782 -0.5587
 2723TIP3    H229585   0.568   2.275   6.116  1.2482 -0.0060  0.9507
 2724TIP3   OH229586   4.852   3.026   2.050 -0.0091 -0.0614 -0.4814
 2724TIP3    H129587   4.885   2.941   2.079 -0.9030 -0.8121 -1.5899
 2724TIP3    H229588   4.757   3.014   2.043  0.0765  0.2092 -3.1363
 2725TIP3   OH229589   5.762   2.517   5.193 -0.7432  0.4852 -0.3929
 2725TIP3    H129590   5.794   2.583   5.255 -0.1112  0.0481 -0.2404
 2725TIP3    H229591   5.735   2.567   5.117  0.1431  0.8972 -0.4466
 2726TIP3   OH229592   1.825   5.817   2.368  0.4763  0.3331  0.3288
 2726TIP3    H129593   1.807   5.779   2.282 -3.1924 -2.1390  1.9043
 2726TIP3    H229594   1.908   5.777   2.395 -0.5828 -2.5722 -0.3169
 2727TIP3   OH229595   3.562   4.278   3.543  0.1692  0.4790  0.3249
 2727TIP3    H129596   3.606   4.363   3.540 -0.1158  0.6139  0.0750
 2727TIP3    H229597   3.469   4.298   3.541  0.0940  0.1796  0.6767
 2728TIP3   OH229598   6.243   4.699  13.279 -0.6667 -0.2445 -0.0370
 2728TIP3    H129599   6.247   4.744  13.363  0.2878  0.6893 -0.5753
 2728TIP3    H229600   6.227   4.607  13.302  0.3467 -0.1280  1.1920
 2729TIP3   OH229601   2.484   3.089  15.796  0.5186 -0.3419  0.1933
 2729TIP3    H129602   2.546   3.146  15.841 -0.8795  0.9789  0.5555
 2729TIP3    H229603   2.426   3.057  15.865 -0.2222 -0.1848 -0.3383
 2730TIP3   OH229604   1.987   0.258   1.936 -0.1285 -0.0078  0.2505
 2730TIP3    H129605   2.003   0.169   1.966 -1.5030 -0.5866 -0.6616
 2730TIP3    H229606   1.898   0.257   1.901 -0.9061  2.1965  1.9065
 2731TIP3   OH229607   4.725   4.177  17.157 -0.1345 -0.2232  0.3113
 2731TIP3    H129608   4.694   4.206  17.242 -0.2175 -0.7015  0.4508
 2731TIP3    H229609   4.815   4.208  17.152 -0.3195  0.3307  0.3139
 2732TIP3   OH229610   4.932   0.454   3.811  0.5594 -0.8276 -0.0318
 2732TIP3    H129611   5.011   0.464   3.865  1.1842 -2.2113 -0.6524
 2732TIP3    H229612   4.949   0.509   3.734  0.0752  0.3871  0.6943
 2733TIP3   OH229613   4.336   0.814  15.846  0.0233  0.0786  0.5422
 2733TIP3    H129614   4.257   0.810  15.791 -0.0276 -0.0800  0.6256
 2733TIP3    H229615   4.369   0.903  15.834  1.9103 -0.8943 -2.3741
 2734TIP3   OH229616   1.597   4.547   0.080  0.4275 -0.5094 -0.3103
 2734TIP3    H129617   1.632   4.601   0.151 -1.6900  0.1980  0.2628
 2734TIP3    H229618   1.557   4.610   0.020 -1.5622 -1.3602  0.0594
 2735TIP3   OH229619   0.739   1.107   0.964  0.3979 -0.0706  0.3465
 2735TIP3    H129620   0.705   1.152   0.887 -0.1194  1.3632  1.3863
 2735TIP3    H229621   0.797   1.170   1.006 -0.5306 -0.2499  1.9746
 2736TIP3   OH229622   2.037   2.266   4.682  0.1963 -0.5714 -0.3452
 2736TIP3    H129623   2.027   2.354   4.716  0.4454 -0.9401  0.7170
 2736TIP3    H229624   1.950   2.227   4.690 -0.1546 -0.1347 -1.7160
 2737TIP3   OH229625   2.832   3.318   6.325 -0.0314  0.3475  0.5456
 2737TIP3    H129626   2.821   3.241   6.380 -0.4842  0.7597  1.0405
 2737TIP3    H229627   2.879   3.381   6.380  1.6270 -0.0701 -0.3269
 2738TIP3   OH229628   6.155   3.016   0.561  0.5419  0.3143 -0.5135
 2738TIP3    H129629   6.225   2.992   0.500 -0.7588  0.2140 -2.0336
 2738TIP3    H229630   6.158   3.111   0.566 -0.7735  0.5266 -2.6054
 2739TIP3   OH229631   6.498   4.462  11.798 -0.6400 -0.0484 -0.4749
 2739TIP3    H129632   6.589   4.458  11.767 -0.3034  1.2553  0.3048
 2739TIP3    H229633   6.449   4.498  11.723 -0.3892 -0.0287 -0.6317
 2740TIP3   OH229634   5.146   0.568   2.401 -1.1753  0.0850  0.2519
 2740TIP3    H129635   5.228   0.612   2.382 -0.2717 -1.0264  1.4172
 2740TIP3    H229636   5.156   0.481   2.362 -1.3396 -0.4320  1.3337
 2741TIP3   OH229637   0.103   2.040   5.514  0.0285 -0.9126  0.0662
 2741TIP3    H129638   0.154   2.066   5.437  1.1666 -1.6122  0.5453
 2741TIP3    H229639   0.081   2.123   5.557  0.3668 -0.5691 -0.4060
 2742TIP3   OH229640   0.711   1.642   4.582  0.5847 -0.2571  0.3994
 2742TIP3    H129641   0.666   1.614   4.663 -0.5316 -0.7402 -0.3602
 2742TIP3    H229642   0.641   1.650   4.518  1.3298  1.0972 -0.2842
 2743TIP3   OH229643   0.113   6.596   3.615 -0.2447  0.0181 -0.0606
 2743TIP3    H129644   0.161   6.559   3.540  0.0960 -0.4793  0.3940
 2743TIP3    H229645   0.178   6.604   3.684 -1.1009 -2.2353  1.1093
 2744TIP3   OH229646   4.112   3.116  11.559  0.6823 -0.5102  0.4860
 2744TIP3    H129647   4.104   3.165  11.640  1.5946 -1.8494  1.4238
 2744TIP3    H229648   4.152   3.033  11.584 -1.2859 -1.9852 -0.9483
 2745TIP3   OH229649   0.821   6.665  14.705  0.2255  0.1214 -0.0781
 2745TIP3    H129650   0.912   6.680  14.729  0.3290 -0.3482 -0.1823
 2745TIP3    H229651   0.825   6.611  14.627 -0.1476 -0.0825  0.0416
 2746TIP3   OH229652   5.998   0.452   0.893 -0.5531  0.2118 -0.0663
 2746TIP3    H129653   6.050   0.403   0.830  1.0443  0.0419  1.3496
 2746TIP3    H229654   6.014   0.410   0.977 -0.5738  2.0110  0.8874
 2747TIP3   OH229655   3.960   3.319  12.413  0.0135  0.5390  0.0776
 2747TIP3    H129656   4.007   3.333  12.495  0.9278  0.5544 -0.4325
 2747TIP3    H229657   4.027   3.287  12.352 -0.3009  1.9930 -1.1006
 2748TIP3   OH229658   3.911   0.616  16.126 -0.1226 -0.2208 -0.4321
 2748TIP3    H129659   3.964   0.654  16.056  0.5390  0.2375  0.3093
 2748TIP3    H229660   3.830   0.668  16.126 -0.1428 -0.2444 -0.8654
 2749TIP3   OH229661   1.523   3.018   3.577 -0.2830 -0.5054  0.6776
 2749TIP3    H129662   1.518   2.962   3.654 -0.2795 -0.9124  0.3877
 2749TIP3    H229663   1.594   2.981   3.525 -1.3878 -1.3006 -0.3335
 2750TIP3   OH229664   2.485   3.371   4.798  0.2629 -0.4159 -0.1060
 2750TIP3    H129665   2.581   3.365   4.794  0.2317 -1.1550  0.1833
 2750TIP3    H229666   2.468   3.450   4.849  0.7338 -1.0751  1.1222
 2751TIP3   OH229667   1.002   6.613   4.836  0.6888 -0.2461 -0.3249
 2751TIP3    H129668   0.997   6.637   4.929  1.7902 -0.1125 -0.2872
 2751TIP3    H229669   0.977   6.521   4.834  2.8438 -0.9137  0.4470
 2752TIP3   OH229670   0.662   5.591   3.949 -0.2569  0.3036  0.1386
 2752TIP3    H129671   0.643   5.556   4.036  1.8453  1.0443  0.9403
 2752TIP3    H229672   0.649   5.685   3.958 -1.8660  0.2171 -0.8981
 2753TIP3   OH229673   5.021   2.978  15.926 -0.1891 -0.5564 -0.2484
 2753TIP3    H129674   4.995   3.064  15.959 -1.1440 -1.5583  1.7654
 2753TIP3    H229675   4.960   2.961  15.854  0.7096  0.8624 -1.4134
 2754TIP3   OH229676   4.956   1.870  11.637 -0.4831 -0.9959 -0.2545
 2754TIP3    H129677   4.879   1.897  11.587  0.4067  1.1753 -0.5637
 2754TIP3    H229678   5.026   1.863  11.573  0.0313 -1.0314  0.2975
 2755TIP3   OH229679   0.390   1.669  16.275 -0.1846  0.1258  0.6274
 2755TIP3    H129680   0.349   1.662  16.361  0.3976  0.9914  0.9823
 2755TIP3    H229681   0.370   1.758  16.246  0.7831  0.2915  0.4576
 2756TIP3   OH229682   1.849   1.253   3.379 -0.3829  0.2150 -0.2283
 2756TIP3    H129683   1.925   1.305   3.354 -1.0121  1.1126 -0.2896
 2756TIP3    H229684   1.794   1.253   3.301 -1.2811  1.0812  0.3905
 2757TIP3   OH229685   1.619   5.646   4.866  0.2391  0.2556  0.5725
 2757TIP3    H129686   1.653   5.571   4.915 -0.2584 -0.1748  0.2752
 2757TIP3    H229687   1.556   5.686   4.926  1.0504  0.8898  1.0173
 2758TIP3   OH229688   2.667   3.302  12.173 -0.3524 -0.2713  0.2495
 2758TIP3    H129689   2.713   3.357  12.109 -1.9349  0.3927 -0.3524
 2758TIP3    H229690   2.737   3.253  12.217  1.1219  2.1177  0.7349
 2759TIP3   OH229691   2.198   4.022  14.254 -0.3792 -0.0358 -0.3826
 2759TIP3    H129692   2.130   3.967  14.293 -0.9674  0.0552 -1.2352
 2759TIP3    H229693   2.230   3.970  14.180 -1.7310  1.1761 -1.9017
 2760TIP3   OH229694   5.631   0.004   2.792 -0.0488  0.1729  0.1722
 2760TIP3    H129695   5.698   0.023   2.858  1.8050  1.4495 -1.9307
 2760TIP3    H229696   5.620   0.086   2.744  0.0743 -1.1084 -2.2376
 2761TIP3   OH229697   6.618   2.767   1.188  0.0354  0.0662 -0.2123
 2761TIP3    H129698   6.606   2.836   1.123  2.0490  0.2562 -0.4559
 2761TIP3    H229699   6.704   2.729   1.167 -0.6922 -2.0495  0.3467
 2762TIP3   OH229700   5.291   4.576  14.072 -0.3046  0.4165  0.2422
 2762TIP3    H129701   5.257   4.487  14.078 -1.9281  0.9112 -0.8764
 2762TIP3    H229702   5.328   4.594  14.159  0.9294 -1.6464  0.2056
 2763TIP3   OH229703   4.278   5.608  16.345  0.4167  1.0168 -0.2339
 2763TIP3    H129704   4.255   5.515  16.341  0.9583  0.8937 -0.5691
 2763TIP3    H229705   4.349   5.612  16.409  0.7416  1.1257 -0.6010
 2764TIP3   OH229706   0.128   0.352   1.773 -0.2654 -0.5293 -0.7019
 2764TIP3    H129707   0.220   0.369   1.791 -0.5652 -0.5075  0.9095
 2764TIP3    H229708   0.129   0.276   1.714  0.7374 -1.8193  0.8947
 2765TIP3   OH229709   5.655   5.662  14.310  0.0909  0.3554  0.4073
 2765TIP3    H129710   5.717   5.613  14.364 -1.0435  0.0148  1.4504
 2765TIP3    H229711   5.699   5.672  14.225  0.4085 -2.3907  0.1709
 2766TIP3   OH229712   4.167   3.660   5.051 -0.0562  0.6123 -0.0266
 2766TIP3    H129713   4.191   3.610   5.129  0.2328  0.2153 -0.3695
 2766TIP3    H229714   4.217   3.741   5.057 -1.3302  1.3558  1.0861
 2767TIP3   OH229715   1.152   0.689   5.589 -0.1044 -0.5188 -0.1468
 2767TIP3    H129716   1.119   0.734   5.511  0.6741  0.6885  0.1852
 2767TIP3    H229717   1.083   0.698   5.654  0.8319  2.1372  0.5990
 2768TIP3   OH229718   0.787   6.112  15.506 -0.0248  0.2556 -0.0715
 2768TIP3    H129719   0.724   6.183  15.495 -0.4550  0.1913  1.6355
 2768TIP3    H229720   0.734   6.034  15.519  0.4332 -0.1460 -0.5711
 2769TIP3   OH229721   3.826   3.609  15.272  0.0870 -0.0662  0.0776
 2769TIP3    H129722   3.919   3.600  15.250  0.1360 -2.1552  0.8676
 2769TIP3    H229723   3.821   3.591  15.366 -1.0104  1.0555  0.2639
 2770TIP3   OH229724   2.321   0.405   5.951 -0.3066  0.4561 -0.1631
 2770TIP3    H129725   2.346   0.327   5.901  0.0021 -0.1288  0.8868
 2770TIP3    H229726   2.225   0.401   5.954 -0.2506 -0.7035  1.1230
 2771TIP3   OH229727   2.186   6.158   1.157  0.0477 -0.4467 -0.1147
 2771TIP3    H129728   2.178   6.097   1.231  1.0534 -0.0315  0.3512
 2771TIP3    H229729   2.143   6.113   1.084  2.0470 -2.3903 -0.1917
 2772TIP3   OH229730   6.750   4.687  15.666  1.0483 -0.1538  0.3539
 2772TIP3    H129731   6.756   4.783  15.671  0.6662 -0.1934  2.2807
 2772TIP3    H229732   6.788   4.657  15.749  0.6448 -1.6505  0.0114
 2773TIP3   OH229733   1.383   6.289  12.432 -0.7518 -0.2420 -0.0762
 2773TIP3    H129734   1.296   6.301  12.393 -0.5302  1.3239 -0.1447
 2773TIP3    H229735   1.396   6.194  12.433 -1.2366 -0.4134 -2.8108
 2774TIP3   OH229736   4.014   0.799   2.082 -0.6415 -0.0289 -0.7999
 2774TIP3    H129737   3.926   0.799   2.119  0.2496  0.3778  1.5042
 2774TIP3    H229738   4.008   0.854   2.004 -2.0521  1.5084  0.3390
 2775TIP3   OH229739   2.543   0.844  13.704  0.3796 -0.0274  0.2059
 2775TIP3    H129740   2.472   0.841  13.639 -0.6875 -4.4034  1.2432
 2775TIP3    H229741   2.497   0.848  13.788  1.5358  0.3745  0.8351
 2776TIP3   OH229742   3.971   5.401  15.520  0.0358 -0.0132  0.2761
 2776TIP3    H129743   3.932   5.365  15.440  0.3853  0.0926  0.0569
 2776TIP3    H229744   4.062   5.371  15.518  0.7015  1.8717 -0.5386
 2777TIP3   OH229745   4.750   2.373   4.718 -0.4093  0.0293  0.5839
 2777TIP3    H129746   4.662   2.388   4.683  0.0316  1.6950  0.0807
 2777TIP3    H229747   4.737   2.360   4.812 -1.2708 -0.6649  0.3792
 2778TIP3   OH229748   0.475   0.419  11.417  0.3519 -0.3274  0.7846
 2778TIP3    H129749   0.562   0.400  11.382 -0.2235 -1.5753 -0.0354
 2778TIP3    H229750   0.481   0.398  11.510  0.6586 -1.4039  0.5350
 2779TIP3   OH229751   3.948   2.616  13.615 -0.0927  0.8583 -0.2036
 2779TIP3    H129752   3.908   2.530  13.599  0.1056  0.6160  0.5732
 2779TIP3    H229753   3.967   2.616  13.709  1.0696  1.2588 -0.4345
 2780TIP3   OH229754   5.081   1.466   1.488 -0.1386 -0.0425 -0.1422
 2780TIP3    H129755   5.126   1.423   1.416  0.0981  0.6798 -0.4256
 2780TIP3    H229756   4.996   1.491   1.452 -0.2337 -0.1639 -0.0072
 2781TIP3   OH229757   2.178   5.739   6.623  0.0557  0.1224  0.2289
 2781TIP3    H129758   2.160   5.662   6.569 -0.4550  0.3561  0.0659
 2781TIP3    H229759   2.271   5.731   6.645 -0.5489 -1.9540  2.3963
 2782TIP3   OH229760   4.260   6.689  13.000  0.3890  0.5559 -0.1389
 2782TIP3    H129761   4.191   6.727  12.945  0.4612 -0.8027 -1.2256
 2782TIP3    H229762   4.319   6.762  13.020  0.0957  1.1773 -1.4708
 2783TIP3   OH229763   6.305   2.396   2.461 -0.4787  0.5966 -0.2007
 2783TIP3    H129764   6.375   2.446   2.503  1.6695 -1.8189 -0.6541
 2783TIP3    H229765   6.289   2.442   2.378  0.1597  1.5048  0.1653
 2784TIP3   OH229766   3.232   6.178   4.286  0.0559 -0.2384 -0.2006
 2784TIP3    H129767   3.276   6.107   4.332  0.0204 -0.0083  0.1941
 2784TIP3    H229768   3.302   6.234   4.253  0.1308  1.6430  2.7634
 2785TIP3   OH229769   4.475   0.424   1.875  0.3151  0.5920  0.2730
 2785TIP3    H129770   4.522   0.347   1.843 -1.4713 -0.3503 -0.2605
 2785TIP3    H229771   4.460   0.405   1.968 -1.4462 -0.5153 -0.1718
 2786TIP3   OH229772   6.111   4.388   4.523 -0.3075  1.1136  0.5547
 2786TIP3    H129773   6.174   4.454   4.552  0.4866  0.3846  0.4856
 2786TIP3    H229774   6.027   4.435   4.524  0.2960  2.2351  0.1333
 2787TIP3   OH229775   4.535   5.640  12.508 -0.0164  0.5340 -1.1000
 2787TIP3    H129776   4.631   5.633  12.514 -0.2288 -2.1714  1.9233
 2787TIP3    H229777   4.507   5.558  12.468 -1.1385  0.3338  0.0344
 2788TIP3   OH229778   3.328   1.789   3.746  0.1505  0.5493  0.1642
 2788TIP3    H129779   3.361   1.723   3.685  2.0806  0.9135  0.7678
 2788TIP3    H229780   3.296   1.739   3.821 -0.6823  0.2024 -0.3975
 2789TIP3   OH229781   6.010   3.193   5.690  0.0832  0.3276  0.2815
 2789TIP3    H129782   5.958   3.273   5.696  1.2877  1.0608  3.6874
 2789TIP3    H229783   6.089   3.220   5.643 -0.4948  0.4877 -0.6229
 2790TIP3   OH229784   0.407   1.598  16.813 -0.2964  0.0761 -0.2098
 2790TIP3    H129785   0.419   1.676  16.866  0.2605 -0.9587  1.2572
 2790TIP3    H229786   0.336   1.550  16.856  0.8099 -1.2518  0.2213
 2791TIP3   OH229787   2.568   3.203  10.636  0.2084 -0.1353 -0.1836
 2791TIP3    H129788   2.483   3.235  10.665 -0.5622 -0.9472 -1.4284
 2791TIP3    H229789   2.565   3.210  10.540  2.4414  1.9836 -0.1767
 2792TIP3   OH229790   4.896   5.702  14.392  0.0500 -0.0702 -0.8308
 2792TIP3    H129791   4.815   5.652  14.379 -0.8078  0.4990  1.6079
 2792TIP3    H229792   4.873   5.791  14.368  0.4994 -0.2014 -1.7815
 2793TIP3   OH229793   4.686   3.464  15.720  0.3518  0.2673  0.5052
 2793TIP3    H129794   4.612   3.459  15.780  0.0808  1.3629  0.2826
 2793TIP3    H229795   4.651   3.505  15.641  1.0982  0.4238  0.2426
 2794TIP3   OH229796   5.579   5.326   5.045 -0.2273  0.2339 -0.5908
 2794TIP3    H129797   5.619   5.249   5.003  2.6928  0.9052  0.6605
 2794TIP3    H229798   5.541   5.292   5.127 -0.8833 -0.1862 -1.0621
 2795TIP3   OH229799   6.439   1.060  14.735  0.2365  0.5545  0.0416
 2795TIP3    H129800   6.420   1.002  14.662  0.9957  1.4410 -0.8902
 2795TIP3    H229801   6.534   1.053  14.747  0.1097  0.3407  1.0276
 2796TIP3   OH229802   5.200   6.731  12.680 -0.1078 -0.4755  0.2877
 2796TIP3    H129803   5.276   6.699  12.728  0.6840 -0.1258 -0.7234
 2796TIP3    H229804   5.205   6.688  12.595  1.1741  2.4874 -1.2677
 2797TIP3   OH229805   5.572   0.813   3.993 -0.7533 -0.4597  0.0267
 2797TIP3    H129806   5.510   0.844   3.927  0.1549  0.5188 -0.4066
 2797TIP3    H229807   5.626   0.749   3.946  1.0442  1.5088 -0.7824
 2798TIP3   OH229808   3.892   5.087  16.937 -0.0251  0.8694 -0.1023
 2798TIP3    H129809   3.936   5.162  16.896  1.2570  0.3301  0.2331
 2798TIP3    H229810   3.942   5.071  17.017  0.0107 -0.6039 -0.3882
 2799TIP3   OH229811   6.158   1.967  11.844  1.0577 -0.4509  0.7134
 2799TIP3    H129812   6.087   1.903  11.837  0.3044  0.4322  0.0144
 2799TIP3    H229813   6.114   2.051  11.853  1.8300  0.6740 -3.7503
 2800TIP3   OH229814   2.905   0.547  13.899  0.9587 -0.2376 -0.5539
 2800TIP3    H129815   2.849   0.505  13.965  1.2589  0.7055  0.3300
 2800TIP3    H229816   2.994   0.526  13.926  1.0742 -0.0540 -0.7903
 2801TIP3   OH229817   4.582   5.631   0.866  0.2824  0.0346 -0.5614
 2801TIP3    H129818   4.490   5.620   0.846 -0.5002  0.8873  2.1296
 2801TIP3    H229819   4.620   5.671   0.788 -1.7716  0.4297 -1.4066
 2802TIP3   OH229820   3.525   4.040   6.183  0.3346  0.5167 -0.2878
 2802TIP3    H129821   3.458   4.106   6.201 -0.3393 -0.2787  0.1871
 2802TIP3    H229822   3.594   4.059   6.247 -0.4217 -0.0019  0.7226
 2803TIP3   OH229823   2.819   3.454  13.062 -0.4303 -0.3941 -0.3155
 2803TIP3    H129824   2.799   3.489  12.975 -1.7579 -0.1137  0.0790
 2803TIP3    H229825   2.759   3.500  13.121  0.6839 -0.3309  0.8120
 2804TIP3   OH229826   6.420   5.896  12.446 -0.3030  0.2076 -0.2682
 2804TIP3    H129827   6.350   5.936  12.393 -1.2280 -0.6917  0.2440
 2804TIP3    H229828   6.412   5.938  12.532 -0.7816 -0.5110  0.0450
 2805TIP3   OH229829   1.169   6.151   2.612 -0.2240  0.0340 -0.8589
 2805TIP3    H129830   1.112   6.221   2.641 -1.8699 -0.2791 -3.0823
 2805TIP3    H229831   1.253   6.169   2.655 -1.6229  1.1245  1.6638
 2806TIP3   OH229832   4.381   1.708  16.104 -0.2241 -0.4727  0.6090
 2806TIP3    H129833   4.405   1.617  16.091 -1.0458 -0.5728 -0.4049
 2806TIP3    H229834   4.405   1.751  16.021 -1.6518 -0.1911  0.3148
 2807TIP3   OH229835   3.755   0.719   3.046  0.3588  0.0434  0.5037
 2807TIP3    H129836   3.715   0.636   3.022 -0.9595  0.3580  1.5093
 2807TIP3    H229837   3.723   0.781   2.982 -1.5683  0.4746  1.7896
 2808TIP3   OH229838   5.972   1.566   0.340  0.1378 -0.0009 -0.5284
 2808TIP3    H129839   5.992   1.635   0.276  0.9399  1.2092  0.9514
 2808TIP3    H229840   5.887   1.592   0.376  1.3781  1.4737  1.5266
 2809TIP3   OH229841   5.992   0.800   3.473  0.0874  0.2314 -0.2615
 2809TIP3    H129842   5.900   0.826   3.470  0.7093  3.1029  1.8770
 2809TIP3    H229843   6.040   0.877   3.441  1.8348 -0.4358  0.6517
 2810TIP3   OH229844   4.298   3.654  11.025  0.2108 -0.1563  0.2791
 2810TIP3    H129845   4.234   3.725  11.020 -0.1720 -0.5003  0.3543
 2810TIP3    H229846   4.266   3.597  11.095  0.4104 -0.5219  0.0727
 2811TIP3   OH229847   2.333   0.759  10.662 -0.4678 -0.0763 -0.2948
 2811TIP3    H129848   2.350   0.690  10.597 -1.3443 -0.0962 -0.5167
 2811TIP3    H229849   2.264   0.812  10.622  0.0072  0.7758 -0.0007
 2812TIP3   OH229850   3.694   4.183  11.134  0.4362 -0.1615  0.2953
 2812TIP3    H129851   3.637   4.249  11.172  0.8992 -0.2257  1.1302
 2812TIP3    H229852   3.685   4.195  11.039 -0.8471 -0.0878  0.4074
 2813TIP3   OH229853   1.079   6.011   6.038 -0.1122 -0.0581  0.1432
 2813TIP3    H129854   1.018   5.937   6.029 -0.7867  0.5146 -0.0798
 2813TIP3    H229855   1.026   6.088   6.020  0.3072  0.5850  1.5391
 2814TIP3   OH229856   3.546   4.309  15.650 -0.4436 -0.7828 -0.0968
 2814TIP3    H129857   3.493   4.229  15.649  0.6915 -1.5807 -2.3588
 2814TIP3    H229858   3.627   4.284  15.694  0.0159 -0.9824 -1.0307
 2815TIP3   OH229859   0.059   6.212  11.464  0.1926  0.2248  0.0398
 2815TIP3    H129860  -0.026   6.170  11.452 -0.0041  0.4988  0.4838
 2815TIP3    H229861   0.076   6.255  11.380 -0.3068  0.5351  0.0925
 2816TIP3   OH229862   1.411   6.366   2.990 -0.7288 -0.2004 -0.4403
 2816TIP3    H129863   1.320   6.393   3.006 -0.5713 -0.7303  1.5904
 2816TIP3    H229864   1.463   6.427   3.041 -0.2318 -2.5701  2.1117
 2817TIP3   OH229865   5.660   2.540  14.799 -0.6444 -0.1350  0.1371
 2817TIP3    H129866   5.739   2.503  14.760 -0.9217 -0.4059 -0.1761
 2817TIP3    H229867   5.681   2.632  14.813 -0.2560 -0.2156  0.1008
 2818TIP3   OH229868   0.137   0.780   4.922  0.2189 -0.0554  0.5941
 2818TIP3    H129869   0.145   0.835   5.000 -0.3446 -1.1808  1.4660
 2818TIP3    H229870   0.186   0.827   4.855  0.4030  1.1218  1.5190
 2819TIP3   OH229871   0.353   6.116   1.981 -0.1627 -0.3654 -0.4803
 2819TIP3    H129872   0.416   6.068   1.928 -1.9156 -2.6121 -0.7199
 2819TIP3    H229873   0.277   6.128   1.923 -1.6132 -1.6878  1.0331
 2820TIP3   OH229874   5.546   3.305   5.058  0.6121 -0.4199 -0.1466
 2820TIP3    H129875   5.582   3.261   4.981  0.9609 -1.7422  0.7420
 2820TIP3    H229876   5.593   3.267   5.132  0.6322  1.1715  0.7167
 2821TIP3   OH229877   1.031   3.871   2.688  0.0929 -0.2285 -0.3059
 2821TIP3    H129878   1.054   3.883   2.780 -2.3363 -0.2451  0.3580
 2821TIP3    H229879   1.054   3.954   2.647 -1.4586  0.8817  0.9445
 2822TIP3   OH229880   5.178   2.228  15.804 -0.3019  0.2671  0.1976
 2822TIP3    H129881   5.212   2.139  15.802  0.3272  0.4477  1.7468
 2822TIP3    H229882   5.224   2.270  15.876 -1.6801  1.3990  0.4690
 2823TIP3   OH229883   0.570   3.644  12.407  0.1501  0.6003  0.3743
 2823TIP3    H129884   0.490   3.689  12.381 -1.1132 -0.6847  1.8229
 2823TIP3    H229885   0.618   3.631  12.325 -0.8581  1.8286 -0.4584
 2824TIP3   OH229886   5.787   0.837  14.950 -0.2978 -0.0236 -0.3255
 2824TIP3    H129887   5.707   0.817  14.903 -2.0510 -0.2858  2.5551
 2824TIP3    H229888   5.839   0.757  14.944 -0.9788 -0.4383 -0.8091
 2825TIP3   OH229889   4.866   1.985  12.656 -0.3850  0.1815 -0.5773
 2825TIP3    H129890   4.913   1.914  12.614 -0.0739 -0.0955  0.2265
 2825TIP3    H229891   4.910   1.997  12.740 -0.8960  0.8296 -0.3922
 2826TIP3   OH229892   1.014   5.029  15.887 -0.0819  0.4166 -0.3307
 2826TIP3    H129893   1.032   5.043  15.980  2.2882  2.3049 -0.9560
 2826TIP3    H229894   0.927   4.990  15.884 -0.3676  0.6404  2.6438
 2827TIP3   OH229895   5.210   1.690   1.066  0.4625  0.4672 -0.2323
 2827TIP3    H129896   5.209   1.595   1.064  0.2979  0.3141  2.8423
 2827TIP3    H229897   5.127   1.716   1.026 -0.2576 -0.7729  0.4102
 2828TIP3   OH229898   0.349   5.105   0.531 -0.2881  0.2158 -0.3242
 2828TIP3    H129899   0.294   5.069   0.461  0.2766 -1.7908  0.2056
 2828TIP3    H229900   0.350   5.199   0.514 -3.2583  0.2521 -0.7653
 2829TIP3   OH229901   2.525   2.367  16.926  0.2359 -0.1390  0.2660
 2829TIP3    H129902   2.597   2.309  16.901 -0.7153 -1.2633  0.0397
 2829TIP3    H229903   2.514   2.353  17.020  0.4812  0.2219  0.3464
 2830TIP3   OH229904   6.032   3.888   3.264  0.1262 -0.2445 -0.0366
 2830TIP3    H129905   6.008   3.923   3.350  3.6378  0.5035  0.8352
 2830TIP3    H229906   6.007   3.955   3.202 -2.3716 -0.7435  0.3513
 2831TIP3   OH229907   4.793   4.844   0.566  0.1202 -0.2558 -0.0999
 2831TIP3    H129908   4.749   4.918   0.526 -0.6139 -0.8699 -0.4520
 2831TIP3    H229909   4.742   4.825   0.645  0.8597  0.1977  0.5029
 2832TIP3   OH229910   1.362   6.243  16.137 -0.2363  0.3325  0.4966
 2832TIP3    H129911   1.397   6.235  16.226 -2.1368 -2.3597  1.1269
 2832TIP3    H229912   1.271   6.271  16.150  0.3012  3.0642 -0.8677
 2833TIP3   OH229913   1.867   2.387  16.311 -0.0751 -0.1411 -0.6865
 2833TIP3    H129914   1.930   2.327  16.352  1.6666  1.7977 -0.2904
 2833TIP3    H229915   1.922   2.458  16.278 -1.9410  0.7131 -2.0853
 2834TIP3   OH229916   6.521   2.006   4.919  0.2507  0.5436 -0.4824
 2834TIP3    H129917   6.604   1.974   4.885 -0.2166 -2.4048  0.8235
 2834TIP3    H229918   6.496   1.943   4.986 -2.6669  1.7322 -0.2720
 2835TIP3   OH229919   3.170   3.867  13.746  0.1385 -0.1088  0.3723
 2835TIP3    H129920   3.263   3.883  13.762  0.1166  0.1193  0.2663
 2835TIP3    H229921   3.133   3.953  13.728  0.1025 -0.3227 -0.6063
 2836TIP3   OH229922   0.441   1.414  15.018 -0.0758 -0.6339  0.1543
 2836TIP3    H129923   0.461   1.503  14.991  0.7185 -0.8961 -0.1400
 2836TIP3    H229924   0.416   1.369  14.937 -0.3420 -0.7192  0.2813
 2837TIP3   OH229925   3.623   0.575  12.195  0.0050  0.5740 -0.1572
 2837TIP3    H129926   3.574   0.570  12.114 -0.5351 -1.7481  0.2516
 2837TIP3    H229927   3.574   0.637  12.249 -0.7356  0.6371 -0.8902
 2838TIP3   OH229928   3.737   5.023   4.422  0.4423 -0.3930  0.2440
 2838TIP3    H129929   3.829   5.009   4.399  0.1384 -0.0963 -1.2237
 2838TIP3    H229930   3.691   4.948   4.384  0.3263 -1.9791  3.1837
 2839TIP3   OH229931   5.545   4.289  15.476  0.1518 -0.1831  0.1756
 2839TIP3    H129932   5.588   4.323  15.398  1.0909  0.0746  0.7838
 2839TIP3    H229933   5.566   4.196  15.477  0.2026 -0.1717  0.1588
 2840TIP3   OH229934   0.177   0.541  12.154 -0.0520 -0.1814 -0.2215
 2840TIP3    H129935   0.196   0.489  12.233 -0.2124 -0.5861 -0.4418
 2840TIP3    H229936   0.154   0.475  12.088 -0.6604  0.1944 -0.3928
 2841TIP3   OH229937   5.148   4.872   4.469  1.0589  0.0328 -0.2048
 2841TIP3    H129938   5.169   4.781   4.488 -0.5007 -0.6934 -1.6663
 2841TIP3    H229939   5.217   4.901   4.409  0.7026 -0.7214 -0.9982
 2842TIP3   OH229940   5.828   4.135   5.652  0.2654  0.3865 -0.6435
 2842TIP3    H129941   5.886   4.198   5.696  0.1743  0.6551 -0.9100
 2842TIP3    H229942   5.840   4.152   5.559  1.2849 -0.9183 -0.7699
 2843TIP3   OH229943   1.325   5.372  13.787 -0.2278 -0.0626  0.0236
 2843TIP3    H129944   1.314   5.277  13.782  0.4782 -0.0839 -2.0761
 2843TIP3    H229945   1.420   5.385  13.781 -0.3598  0.7915 -0.2906
 2844TIP3   OH229946   4.533   2.550   0.140  0.1736 -0.0704 -0.0895
 2844TIP3    H129947   4.607   2.531   0.082 -0.8683 -1.2003 -1.0766
 2844TIP3    H229948   4.495   2.465   0.160 -0.0809  0.3811  1.4970
 2845TIP3   OH229949   0.328   2.725   2.313  0.2269  0.2032  0.4511
 2845TIP3    H129950   0.356   2.742   2.223  0.9430 -1.3949  0.3516
 2845TIP3    H229951   0.316   2.812   2.351 -2.0899  0.9892 -1.7672
 2846TIP3   OH229952   2.124   2.344   5.233  0.7612  0.3383  0.5586
 2846TIP3    H129953   2.203   2.356   5.286  1.4483 -1.7404  0.1080
 2846TIP3    H229954   2.136   2.259   5.190  0.6532  2.1440 -3.6061
 2847TIP3   OH229955   1.404   2.414  13.550  0.3445  0.0192 -0.3807
 2847TIP3    H129956   1.416   2.509  13.541  0.9017 -0.0084  0.0183
 2847TIP3    H229957   1.342   2.391  13.481  0.4439  0.6264 -0.6822
 2848TIP3   OH229958   1.720   1.097   4.274  0.2949 -0.7703  0.2662
 2848TIP3    H129959   1.700   1.180   4.231  2.9534 -0.8542 -1.3809
 2848TIP3    H229960   1.725   1.118   4.367 -3.3814 -0.1055  0.4624
 2849TIP3   OH229961   1.331   3.422   6.160 -0.6021 -0.4604 -0.0017
 2849TIP3    H129962   1.353   3.484   6.090 -1.4203 -0.0462  0.0962
 2849TIP3    H229963   1.300   3.344   6.114 -1.7589  0.0434 -0.1178
 2850TIP3   OH229964   5.500   0.871   2.623 -0.1384 -0.4138  0.0797
 2850TIP3    H129965   5.565   0.883   2.692  0.7052 -0.9867 -0.5829
 2850TIP3    H229966   5.435   0.812   2.661 -1.3071  1.6017  1.3894
 2851TIP3   OH229967   3.588   4.461   0.368  0.3012 -0.2766  0.6855
 2851TIP3    H129968   3.661   4.497   0.318  0.6957  0.5955  1.8417
 2851TIP3    H229969   3.613   4.473   0.460 -0.9834 -0.5917  1.1079
 2852TIP3   OH229970   4.178   3.128   0.858  0.1526 -0.1791 -0.0081
 2852TIP3    H129971   4.154   3.037   0.872  2.5659 -0.7287  1.0923
 2852TIP3    H229972   4.185   3.165   0.947  0.9667  0.5525 -0.3620
 2853TIP3   OH229973   1.202   1.293   0.821 -0.2394  0.2256 -0.4121
 2853TIP3    H129974   1.252   1.318   0.898 -0.5943 -1.4924  0.4260
 2853TIP3    H229975   1.148   1.369   0.801 -0.8633  0.3714  1.6537
 2854TIP3   OH229976   2.846   6.139  15.572  0.5742  0.4444 -0.4333
 2854TIP3    H129977   2.831   6.044  15.571  1.5746  0.2223 -2.9227
 2854TIP3    H229978   2.760   6.176  15.593  0.1200 -0.9858  0.3914
 2855TIP3   OH229979   0.471   2.749  14.359 -0.6424 -0.4522  0.0875
 2855TIP3    H129980   0.565   2.742  14.343 -0.3501  0.1762  1.4087
 2855TIP3    H229981   0.434   2.774  14.274  0.6447  1.3139 -0.0145
 2856TIP3   OH229982   6.356   3.896  13.939 -0.2378  0.1834 -0.7951
 2856TIP3    H129983   6.366   3.876  14.032 -0.4604 -1.3101 -1.0615
 2856TIP3    H229984   6.431   3.853  13.898 -1.1802 -0.8534 -1.4992
 2857TIP3   OH229985   0.018   1.008   5.844 -0.1850  0.0677  0.0464
 2857TIP3    H129986   0.063   0.938   5.892 -0.8332  0.8395  1.8516
 2857TIP3    H229987  -0.071   0.974   5.831 -0.3537  0.3496  0.4673
 2858TIP3   OH229988   2.807   5.659   2.468  0.2497  0.5918 -0.2583
 2858TIP3    H129989   2.731   5.704   2.430  0.0229  0.9333  0.5772
 2858TIP3    H229990   2.788   5.655   2.562  0.9271  0.0128 -0.1378
 2859TIP3   OH229991   5.388   0.198  11.420  0.3459 -0.1822 -0.1247
 2859TIP3    H129992   5.470   0.159  11.452  0.0594 -1.7443 -1.1675
 2859TIP3    H229993   5.417   0.270  11.364  0.9754 -0.2081  0.1540
 2860TIP3   OH229994   4.122   0.716   3.408 -0.3015 -0.3420  0.2125
 2860TIP3    H129995   4.049   0.701   3.348 -0.0608 -0.1696 -0.1255
 2860TIP3    H229996   4.151   0.805   3.388 -2.3715  1.0753  2.8623
 2861TIP3   OH229997   5.880   2.672  12.908 -0.4131  0.0485  0.0869
 2861TIP3    H129998   5.919   2.704  12.990  0.0082 -0.2534  0.0124
 2861TIP3    H229999   5.819   2.741  12.881  1.4062  1.4225 -0.7555
 2862TIP3   OH230000   4.225   4.518   5.336  0.2833 -0.2001 -0.3593
 2862TIP3    H130001   4.276   4.577   5.391 -0.0339  0.7153 -1.0213
 2862TIP3    H230002   4.167   4.472   5.397  0.5651  0.1308  0.1659
 2863TIP3   OH230003   5.671   1.034   4.187  0.6551  0.6574 -0.1198
 2863TIP3    H130004   5.632   0.992   4.264 -0.1272  1.5745  0.0046
 2863TIP3    H230005   5.657   0.972   4.116  1.8091 -0.4110  0.5611
 2864TIP3   OH230006   6.719   4.431   3.768  0.2672  0.2827  0.3733
 2864TIP3    H130007   6.676   4.507   3.731  2.1531  0.7211 -1.0445
 2864TIP3    H230008   6.812   4.444   3.749  0.5458 -2.9684 -1.0735
 2865TIP3   OH230009   3.328   3.207   2.568 -0.4219 -0.2799 -0.0202
 2865TIP3    H130010   3.333   3.112   2.558 -1.7639 -0.2542 -1.4547
 2865TIP3    H230011   3.350   3.241   2.481  0.9437  0.7825  0.7212
 2866TIP3   OH230012   1.190   2.028  12.935  1.1114 -0.2829  0.1985
 2866TIP3    H130013   1.260   1.976  12.974  1.3586  0.2544  0.4757
 2866TIP3    H230014   1.172   2.096  13.000  0.4658 -0.3037  0.0459
 2867TIP3   OH230015   0.967   5.609   3.971  0.1722  0.2359 -0.3570
 2867TIP3    H130016   0.918   5.632   4.050 -1.1189  1.5904 -1.5071
 2867TIP3    H230017   0.966   5.513   3.970 -2.5236  0.1809 -0.3280
 2868TIP3   OH230018   2.719   2.757  12.301 -0.3298 -0.5794  0.2422
 2868TIP3    H130019   2.699   2.664  12.287 -0.8457 -0.6117  1.1039
 2868TIP3    H230020   2.793   2.756  12.363 -0.7374 -0.4210  0.7401
 2869TIP3   OH230021   6.132   5.358  15.442  0.1172 -0.2630  0.1436
 2869TIP3    H130022   6.192   5.432  15.448 -0.8691  0.4836  1.2577
 2869TIP3    H230023   6.189   5.281  15.448  0.9849  0.4237  1.2166
 2870TIP3   OH230024   4.984   5.502  12.594 -0.7524 -0.1701  0.2825
 2870TIP3    H130025   5.036   5.529  12.670 -2.7245  0.3403  1.5375
 2870TIP3    H230026   4.999   5.407  12.588 -0.3439 -0.1737  1.1587
 2871TIP3   OH230027   3.452   4.425   4.038  0.5344  0.1129  0.0082
 2871TIP3    H130028   3.504   4.486   4.089 -0.2759 -0.6316  1.7810
 2871TIP3    H230029   3.433   4.353   4.098 -1.7199 -0.0898 -0.8569
 2872TIP3   OH230030   3.207   2.768  10.694 -0.1190  0.3684 -0.4990
 2872TIP3    H130031   3.232   2.708  10.764  1.1103  0.4414 -0.8476
 2872TIP3    H230032   3.154   2.714  10.635  2.0509 -0.8128 -1.4927
 2873TIP3   OH230033   1.662   5.348   0.675 -0.0196  0.7955 -0.4292
 2873TIP3    H130034   1.665   5.259   0.711 -1.1634  0.5108 -1.0066
 2873TIP3    H230035   1.632   5.337   0.585 -2.2723  1.8995  0.1077
 2874TIP3   OH230036   6.145   5.808  13.910 -0.0844  0.0081  0.7961
 2874TIP3    H130037   6.206   5.875  13.943  1.1894 -0.9226  0.4275
 2874TIP3    H230038   6.193   5.725  13.921 -0.5071 -0.5696 -1.2792
 2875TIP3   OH230039   4.165   3.896  17.004  0.5444  0.4573 -0.4612
 2875TIP3    H130040   4.207   3.931  17.083 -1.3536  0.4496  0.6048
 2875TIP3    H230041   4.073   3.920  17.012  0.0283 -0.7642 -1.9993
 2876TIP3   OH230042   0.401   5.640  14.526 -0.0246  0.1077 -0.3256
 2876TIP3    H130043   0.387   5.734  14.537 -0.6654  0.1956 -1.6980
 2876TIP3    H230044   0.349   5.599  14.595 -1.0409  0.7167 -0.7189
 2877TIP3   OH230045   2.401   4.775  12.101 -0.2494 -0.7848  0.4098
 2877TIP3    H130046   2.397   4.842  12.170 -1.0858 -0.4107  0.0059
 2877TIP3    H230047   2.467   4.713  12.133  0.7966  0.3889  0.6425
 2878TIP3   OH230048   3.609   1.329  16.559  0.0351 -0.4021 -0.0498
 2878TIP3    H130049   3.517   1.307  16.575 -0.0175 -1.9902 -2.1404
 2878TIP3    H230050   3.628   1.290  16.474  2.8438 -0.6860  0.6253
 2879TIP3   OH230051   3.969   2.107  14.403  0.2638  0.3103 -0.0013
 2879TIP3    H130052   3.876   2.099  14.383  0.0223  0.0192  1.1712
 2879TIP3    H230053   3.973   2.112  14.499  1.5225 -0.6566  0.0179
 2880TIP3   OH230054   1.061   2.086   5.775  0.0425 -0.6339 -0.1390
 2880TIP3    H130055   1.011   2.005   5.767 -1.8190  0.3991  0.4579
 2880TIP3    H230056   1.116   2.073   5.852 -1.3584 -0.8061  0.8791
 2881TIP3   OH230057   3.495   4.057   5.433  0.1053 -0.5746 -0.6081
 2881TIP3    H130058   3.544   4.095   5.361  0.2090  0.7368  0.1203
 2881TIP3    H230059   3.524   4.106   5.511 -1.1545 -0.8610  0.0784
 2882TIP3   OH230060   5.385   6.077  14.032  0.4988 -0.1243 -0.0416
 2882TIP3    H130061   5.333   6.049  13.957  0.1951 -0.3284  0.2415
 2882TIP3    H230062   5.459   6.016  14.033  0.1031 -0.6153  0.2704
 2883TIP3   OH230063   0.285   5.352  12.730  0.0399 -0.2270  0.1891
 2883TIP3    H130064   0.199   5.309  12.724  0.1026 -0.3806  0.3999
 2883TIP3    H230065   0.301   5.385  12.642  0.6944 -1.9751 -0.3817
 2884TIP3   OH230066   6.237   4.239   0.544  0.3469  0.5492 -0.3596
 2884TIP3    H130067   6.188   4.315   0.514 -1.4964 -0.8693 -1.1176
 2884TIP3    H230068   6.176   4.192   0.601  0.9396 -1.0749 -1.0182
 2885TIP3   OH230069   2.097   6.185  11.882 -0.4709  0.7964 -0.1946
 2885TIP3    H130070   2.120   6.181  11.975 -0.4231 -1.6501 -0.2504
 2885TIP3    H230071   2.013   6.231  11.881 -1.8561 -1.4831  1.4209
 2886TIP3   OH230072   4.648   4.176  10.807  0.2605 -0.1113 -0.1525
 2886TIP3    H130073   4.610   4.144  10.725 -0.7776  2.6814 -0.8831
 2886TIP3    H230074   4.743   4.167  10.794  0.0736 -0.9672 -1.0952
 2887TIP3   OH230075   5.205   6.008  16.241 -0.0830 -0.4968  0.5704
 2887TIP3    H130076   5.191   6.101  16.220  0.7933 -0.4693  0.0741
 2887TIP3    H230077   5.256   5.975  16.168  2.2775 -0.6261  2.1765
 2888TIP3   OH230078   3.513   5.349  10.966 -0.5354  0.3365 -0.2902
 2888TIP3    H130079   3.508   5.301  11.049 -1.6739 -0.8500 -1.0127
 2888TIP3    H230080   3.605   5.376  10.959  0.0739 -1.4794  0.2928
 2889TIP3   OH230081   3.460   5.567  16.348 -0.2008 -0.0205  0.1313
 2889TIP3    H130082   3.402   5.568  16.424  0.5954  1.8589  0.7692
 2889TIP3    H230083   3.401   5.572  16.273 -0.9479 -0.6720  0.6529
 2890TIP3   OH230084   4.335   5.078   4.099  0.3665 -0.5013  0.2142
 2890TIP3    H130085   4.376   5.163   4.089  0.2721 -0.2582  1.6758
 2890TIP3    H230086   4.243   5.093   4.075  0.3897 -0.2459  0.2818
 2891TIP3   OH230087   0.740   1.671   5.601 -0.2210  0.5519  0.1643
 2891TIP3    H130088   0.779   1.605   5.659  0.9755 -0.5371 -1.7559
 2891TIP3    H230089   0.664   1.627   5.563 -1.8131  1.7325  1.8357
 2892TIP3   OH230090   3.303   0.415  14.227 -0.3541  0.3236  0.3939
 2892TIP3    H130091   3.262   0.328  14.230  1.7927 -0.7295  1.4278
 2892TIP3    H230092   3.290   0.450  14.316 -0.4354  0.6925  0.2392
 2893TIP3   OH230093   4.383   5.075  12.639 -0.3130  0.6181 -0.6343
 2893TIP3    H130094   4.476   5.089  12.620 -0.6223  0.2622 -2.6114
 2893TIP3    H230095   4.382   5.048  12.731  1.5250  0.7124 -0.5383
 2894TIP3   OH230096   1.084   1.814   1.866 -0.6191  0.4777  0.0512
 2894TIP3    H130097   1.026   1.878   1.824 -0.3508  1.0640  0.5677
 2894TIP3    H230098   1.059   1.816   1.958 -0.8713 -0.4472  0.0051
 2895TIP3   OH230099   5.994   1.439  13.440 -0.7226  0.2568 -0.2486
 2895TIP3    H130100   5.899   1.437  13.454 -0.5995 -2.2458  0.7052
 2895TIP3    H230101   6.031   1.404  13.520  0.8354 -1.5925 -1.6787
 2896TIP3   OH230102   1.831   5.247   3.606  0.2705  0.4532  0.1869
 2896TIP3    H130103   1.914   5.218   3.567  1.5825  2.6293  1.1404
 2896TIP3    H230104   1.779   5.277   3.531 -0.0678 -1.7140 -0.5153
 2897TIP3   OH230105   1.987   5.923  11.108 -0.4630 -0.5011  0.2493
 2897TIP3    H130106   1.942   5.877  11.179 -1.4682 -0.7465 -0.5249
 2897TIP3    H230107   1.927   5.917  11.034  0.1128  0.6546 -0.3336
 2898TIP3   OH230108   6.509   5.989   3.271 -0.1537 -0.1227 -0.2893
 2898TIP3    H130109   6.585   5.934   3.289 -0.1560 -0.2643 -0.6965
 2898TIP3    H230110   6.496   5.982   3.176 -0.3227  0.3576 -0.3063
 2899TIP3   OH230111   1.687   4.766  16.291 -0.1488 -0.6310  0.2371
 2899TIP3    H130112   1.763   4.795  16.240 -0.7046  0.9356  0.2292
 2899TIP3    H230113   1.625   4.733  16.226  0.5777 -2.1066  0.2609
 2900TIP3   OH230114   6.724   5.349  14.625  0.4034  0.0473  0.3425
 2900TIP3    H130115   6.686   5.315  14.706  0.2058  0.4022  0.4009
 2900TIP3    H230116   6.660   5.325  14.557  0.2470  0.3268  0.3886
 2901TIP3   OH230117   6.374   6.282  17.036 -0.0297  0.3220  0.3073
 2901TIP3    H130118   6.443   6.273  16.971  0.1770  0.0144  0.5632
 2901TIP3    H230119   6.371   6.197  17.080 -0.6052  0.3152  0.2648
 2902TIP3   OH230120   1.750   3.667   1.983  0.1771 -0.3583  0.0916
 2902TIP3    H130121   1.707   3.588   2.015  1.0892 -0.8605  0.0974
 2902TIP3    H230122   1.801   3.638   1.907  0.6034  0.1972  0.1569
 2903TIP3   OH230123   4.551   0.855  10.913  0.0082 -0.5405 -0.0338
 2903TIP3    H130124   4.607   0.878  10.839 -0.3893  0.9013  0.0785
 2903TIP3    H230125   4.483   0.923  10.914 -0.6632 -1.1896  0.9554
 2904TIP3   OH230126   0.187   3.645   1.004  0.0495 -0.2221 -0.3186
 2904TIP3    H130127   0.201   3.654   0.910  2.9388 -1.8051 -0.1654
 2904TIP3    H230128   0.219   3.728   1.041 -0.7864  0.2737 -0.6807
 2905TIP3   OH230129   3.194   1.558   5.471  0.3947 -0.3760  0.3125
 2905TIP3    H130130   3.164   1.648   5.488 -1.1860 -0.4807 -1.5464
 2905TIP3    H230131   3.214   1.523   5.558  0.2716  1.5031  1.1613
 2906TIP3   OH230132   3.318   3.394   1.352  0.6756 -0.6819 -0.2919
 2906TIP3    H130133   3.233   3.422   1.318  0.6387 -1.7077 -1.0969
 2906TIP3    H230134   3.382   3.431   1.291  0.9579  1.3398  1.1258
 2907TIP3   OH230135   2.667   4.942  12.124  0.2678 -0.2408 -0.4499
 2907TIP3    H130136   2.590   4.944  12.182  0.3898  0.5961 -0.3023
 2907TIP3    H230137   2.740   4.967  12.181  0.4930 -0.0671 -0.8135
 2908TIP3   OH230138   4.806   6.340  10.183 -0.3021  0.1480  0.6433
 2908TIP3    H130139   4.752   6.395  10.239 -2.6620  0.3827 -1.6619
 2908TIP3    H230140   4.844   6.400  10.119 -0.7110 -0.5080 -0.2508
 2909TIP3   OH230141   1.810   2.256  11.997  0.6663 -0.3059 -0.2395
 2909TIP3    H130142   1.771   2.170  12.011  2.3769 -0.7808  2.2047
 2909TIP3    H230143   1.899   2.237  11.966  0.5497  0.6514 -1.2264
 2910TIP3   OH230144   6.638   2.437  14.254 -0.0515  0.0897 -0.3644
 2910TIP3    H130145   6.576   2.462  14.322  0.8487  1.3436  0.0246
 2910TIP3    H230146   6.662   2.347  14.275 -1.0759 -0.1154 -0.0342
 2911TIP3   OH230147   3.121   1.358  11.642  0.6667  0.2546 -0.6591
 2911TIP3    H130148   3.101   1.300  11.569 -0.3390  2.4861 -2.2669
 2911TIP3    H230149   3.215   1.373  11.636  0.4688  1.0979 -2.0962
 2912TIP3   OH230150   2.724   5.232   2.012  0.2853 -0.1971  0.2976
 2912TIP3    H130151   2.779   5.295   1.965 -3.0297  2.7473 -0.0900
 2912TIP3    H230152   2.644   5.225   1.959 -0.1648 -3.6651  1.1722
 2913TIP3   OH230153   4.185   1.481  13.132 -0.0616 -0.5986 -0.6982
 2913TIP3    H130154   4.263   1.510  13.181  0.4666 -0.5924 -1.5288
 2913TIP3    H230155   4.112   1.507  13.187  0.4674  0.7203 -0.5791
 2914TIP3   OH230156   5.046   4.361   3.492 -0.0608 -0.0149  0.0409
 2914TIP3    H130157   4.996   4.301   3.436  1.7711 -0.4876 -1.1783
 2914TIP3    H230158   5.007   4.447   3.475 -0.6634 -0.4042 -0.6134
 2915TIP3   OH230159   2.635   2.574   6.018 -0.2633  0.0492  0.0772
 2915TIP3    H130160   2.682   2.640   5.967 -1.1789  0.8988  0.3159
 2915TIP3    H230161   2.543   2.597   6.008 -0.5389 -0.6244  0.9508
 2916TIP3   OH230162   0.055   2.845  12.127 -0.0778 -0.8161  0.2385
 2916TIP3    H130163   0.041   2.900  12.050 -0.2046 -0.0908  0.7640
 2916TIP3    H230164   0.065   2.756  12.093  1.3748 -0.3112 -0.7463
 2917TIP3   OH230165   2.004   4.017  12.613 -0.0959 -0.2440 -0.2403
 2917TIP3    H130166   2.048   4.016  12.698 -0.9796  0.2779  0.2355
 2917TIP3    H230167   2.003   3.925  12.586  0.5823 -0.3602  0.1027
 2918TIP3   OH230168   1.886   3.591   1.765  0.1867  0.4122 -0.1053
 2918TIP3    H130169   1.808   3.625   1.721 -0.2805 -0.5929 -0.0832
 2918TIP3    H230170   1.933   3.544   1.697 -0.2276 -0.6279  0.3003
 2919TIP3   OH230171   6.106   4.824   3.254  0.0173 -0.4156  0.2320
 2919TIP3    H130172   6.015   4.823   3.283 -0.0827 -2.1086 -0.0647
 2919TIP3    H230173   6.157   4.814   3.334 -0.1850 -2.6065  0.1412
 2920TIP3   OH230174   4.184   0.927  14.341 -0.1258 -0.1371 -0.0856
 2920TIP3    H130175   4.275   0.900  14.354 -0.8883 -2.7427  0.4865
 2920TIP3    H230176   4.146   0.924  14.429 -1.1795 -0.8344 -0.5530
 2921TIP3   OH230177   2.216   2.974  11.101  0.2192  0.0005  0.2742
 2921TIP3    H130178   2.128   2.944  11.080  0.7778 -2.2363  0.7619
 2921TIP3    H230179   2.249   3.011  11.019 -0.3706 -1.3482 -0.6220
 2922TIP3   OH230180   0.393   2.115  12.819 -0.1529 -0.5591 -0.1764
 2922TIP3    H130181   0.328   2.046  12.807 -0.8696  0.2968 -1.5807
 2922TIP3    H230182   0.367   2.183  12.756  1.2244  0.4630  0.3094
 2923TIP3   OH230183   6.295   4.063  15.800  0.0172  0.4422  0.8690
 2923TIP3    H130184   6.343   4.022  15.728 -2.4346  1.5627 -1.6189
 2923TIP3    H230185   6.299   4.000  15.871  0.5165 -1.8787 -1.1021
 2924TIP3   OH230186   1.905   2.649  11.935  0.1090  0.1618 -0.2810
 2924TIP3    H130187   1.910   2.744  11.949 -0.9885 -0.1310  3.1292
 2924TIP3    H230188   1.972   2.613  11.994 -2.0889 -1.2700  1.4776
 2925TIP3   OH230189   3.900   6.353  16.680  0.3449 -0.0605 -0.5779
 2925TIP3    H130190   3.921   6.273  16.728 -1.0473 -1.0176 -1.5009
 2925TIP3    H230191   3.861   6.411  16.746  0.8470 -0.3394 -0.0271
 2926TIP3   OH230192   2.857   1.538   4.890 -0.1663  0.6187 -0.1614
 2926TIP3    H130193   2.777   1.572   4.850  0.8652  1.2624 -1.7973
 2926TIP3    H230194   2.832   1.512   4.978 -2.4003 -0.1277 -0.9623
 2927TIP3   OH230195   0.979   2.730  17.019  0.4230 -0.0279 -0.0176
 2927TIP3    H130196   1.023   2.812  16.998 -0.8342  0.7588  0.2649
 2927TIP3    H230197   0.891   2.740  16.982 -0.2362 -0.6178  1.2894
 2928TIP3   OH230198   3.461   6.334  16.098  0.0166 -0.2004  0.7838
 2928TIP3    H130199   3.492   6.419  16.132 -1.9931  0.1052  1.9709
 2928TIP3    H230200   3.435   6.353  16.008  1.4599 -0.0500  0.3714
 2929TIP3   OH230201   6.748   2.057  14.696  0.1219 -0.5631 -0.5474
 2929TIP3    H130202   6.744   1.992  14.625  2.5242 -0.3637 -0.9727
 2929TIP3    H230203   6.812   2.020  14.758 -0.4505  0.1971  0.5261
 2930TIP3   OH230204   4.836   6.359   4.482  0.2910 -0.0021 -0.3526
 2930TIP3    H130205   4.914   6.367   4.427 -0.3327  0.9142 -1.1370
 2930TIP3    H230206   4.766   6.334   4.421 -0.1495 -0.2552  0.2437
 2931TIP3   OH230207   4.554   5.849  14.479 -0.7959  0.4414 -0.3115
 2931TIP3    H130208   4.537   5.768  14.527 -0.3620  0.8175  0.5025
 2931TIP3    H230209   4.632   5.830  14.427 -1.7063 -0.2174 -1.5059
 2932TIP3   OH230210   3.751   1.233   0.647  0.1064 -0.3803  0.3843
 2932TIP3    H130211   3.668   1.240   0.600  0.7968 -1.0590 -0.9865
 2932TIP3    H230212   3.753   1.143   0.679  0.8196 -0.7394 -0.6180
 2933TIP3   OH230213   2.491   0.464  15.470  0.4507  0.4050  0.2638
 2933TIP3    H130214   2.555   0.535  15.485  1.3581 -0.0696 -1.1183
 2933TIP3    H230215   2.428   0.474  15.541  2.0159  0.9465  1.6658
 2934TIP3   OH230216   1.215   5.513   2.393 -0.1673 -0.2351  0.0527
 2934TIP3    H130217   1.307   5.526   2.413 -0.0604 -0.4451 -0.3019
 2934TIP3    H230218   1.212   5.497   2.299 -0.5666 -0.2081  0.0576
 2935TIP3   OH230219   2.158   5.280  15.325  0.1277  0.0613 -0.3644
 2935TIP3    H130220   2.088   5.224  15.292 -2.8045  2.3217  1.4590
 2935TIP3    H230221   2.148   5.362  15.275  0.0954  1.1272  1.3220
 2936TIP3   OH230222   6.369   2.598   1.778  0.2505 -0.1068 -0.2062
 2936TIP3    H130223   6.335   2.531   1.719  0.7040  0.0313 -0.6282
 2936TIP3    H230224   6.405   2.550   1.852  0.5994 -0.3352 -0.5216
 2937TIP3   OH230225   4.199   0.262  13.005  0.2557  0.3359 -0.1697
 2937TIP3    H130226   4.254   0.190  12.975  0.7960  1.0005 -0.8324
 2937TIP3    H230227   4.114   0.223  13.023  0.6792 -0.5462 -0.0418
 2938TIP3   OH230228   4.911   3.134   0.407  0.5676 -0.0895  0.2086
 2938TIP3    H130229   4.879   3.114   0.495  1.5572 -0.1302  0.5742
 2938TIP3    H230230   4.832   3.136   0.353  0.0898 -1.7394  0.7762
 2939TIP3   OH230231   2.869   3.185  12.972 -0.0651 -0.3336  0.0328
 2939TIP3    H130232   2.877   3.269  13.016 -3.2252 -1.4012  3.2050
 2939TIP3    H230233   2.779   3.184  12.938  1.2249 -0.8968 -3.8178
 2940TIP3   OH230234   5.429   3.884   3.038  0.2153 -0.3630 -0.3322
 2940TIP3    H130235   5.379   3.932   3.104  0.0121  1.2168 -1.5652
 2940TIP3    H230236   5.517   3.923   3.041 -0.0072  0.2821 -1.4871
 2941TIP3   OH230237   2.332   2.190   1.412 -0.2905 -0.2750  0.4331
 2941TIP3    H130238   2.393   2.130   1.369 -3.0788 -2.8493 -0.2346
 2941TIP3    H230239   2.330   2.267   1.354  2.4332  0.0671  0.6600
 2942TIP3   OH230240   4.398   1.664   5.037 -0.5389  0.3388 -0.2007
 2942TIP3    H130241   4.434   1.586   5.080 -0.6330  0.8192  0.7805
 2942TIP3    H230242   4.350   1.709   5.106 -0.9631  0.9743 -0.9019
 2943TIP3   OH230243   1.855   4.356  14.944 -0.4129  0.0463 -0.5538
 2943TIP3    H130244   1.828   4.342  15.035 -0.9102  1.1561 -0.5160
 2943TIP3    H230245   1.890   4.271  14.916 -0.5816 -0.4066  0.5560
 2944TIP3   OH230246   3.773   1.874  16.400 -0.1828 -0.3794 -0.0857
 2944TIP3    H130247   3.785   1.779  16.394 -1.6006 -0.6820  1.1708
 2944TIP3    H230248   3.682   1.888  16.373 -0.2231  0.5158  0.4755
 2945TIP3   OH230249   0.924   0.905  17.252 -0.1227  0.5688  0.0119
 2945TIP3    H130250   0.925   0.819  17.294 -0.1027  0.0428 -1.0284
 2945TIP3    H230251   0.993   0.900  17.186 -0.1828  1.3573 -0.1210
 2946TIP3   OH230252   3.353   2.138  16.386 -0.1703 -0.2495 -0.0416
 2946TIP3    H130253   3.288   2.184  16.332  0.3439 -0.1750 -0.6083
 2946TIP3    H230254   3.301   2.076  16.438 -0.7156 -0.0690 -0.3614
 2947TIP3   OH230255   2.392   4.420  15.567  0.2613  0.0667 -0.4388
 2947TIP3    H130256   2.313   4.440  15.617  0.8399  0.5421  0.3168
 2947TIP3    H230257   2.449   4.495  15.582  0.1629  0.5953 -2.4764
 2948TIP3   OH230258   3.897   4.448   3.529 -0.2532 -0.4880 -0.1214
 2948TIP3    H130259   3.902   4.360   3.492 -0.6608 -0.8966  0.7761
 2948TIP3    H230260   3.846   4.498   3.465  0.9399 -0.5852 -1.1959
 2949TIP3   OH230261   2.899   5.951   3.302  0.2259 -1.1037 -0.4537
 2949TIP3    H130262   2.875   6.023   3.242  0.4504 -0.8205 -0.2070
 2949TIP3    H230263   2.817   5.902   3.314 -0.1892 -0.2740  0.2136
 2950TIP3   OH230264   5.007   3.880   3.542  0.3985  0.2716 -0.4745
 2950TIP3    H130265   4.973   3.804   3.495 -2.0702  0.9929 -0.0078
 2950TIP3    H230266   4.932   3.940   3.547  1.9991  2.3178  0.0299
 2951TIP3   OH230267   0.687   5.727   3.336  0.0959  0.2701  0.5874
 2951TIP3    H130268   0.727   5.667   3.398  0.1110  1.3175  1.6223
 2951TIP3    H230269   0.755   5.791   3.316  0.0171  0.0813 -0.3446
 2952TIP3   OH230270   2.118   1.760  16.598 -0.3926  0.1549  0.5286
 2952TIP3    H130271   2.113   1.855  16.591  1.9782  0.3692  0.8878
 2952TIP3    H230272   2.153   1.731  16.513 -0.5832 -0.3412  0.6139
 2953TIP3   OH230273   5.571   1.162  11.102  0.3486  0.1224 -0.4411
 2953TIP3    H130274   5.568   1.084  11.047  1.0903  0.7704 -1.4317
 2953TIP3    H230275   5.641   1.215  11.065  0.7878  0.6515  1.0611
 2954TIP3   OH230276   6.260   3.550  13.876  0.3711  0.3655 -0.4482
 2954TIP3    H130277   6.196   3.620  13.891  0.5164  0.6283 -1.0327
 2954TIP3    H230278   6.244   3.488  13.946 -0.0266  0.7961 -0.1526
 2955TIP3   OH230279   2.939   1.629   3.370  0.0986  0.2486 -0.5040
 2955TIP3    H130280   2.893   1.570   3.310 -1.0910 -0.7365  1.2589
 2955TIP3    H230281   2.883   1.706   3.377 -0.7849 -0.4786  0.7952
 2956TIP3   OH230282   2.480   1.051   2.977  0.1088  0.3348 -0.4384
 2956TIP3    H130283   2.465   1.097   2.894  1.1062  3.4159  0.9500
 2956TIP3    H230284   2.565   1.008   2.965 -0.8896 -1.3628 -1.8080
 2957TIP3   OH230285   0.578   1.092  15.063  0.2526 -0.1120 -0.1281
 2957TIP3    H130286   0.626   1.124  15.139  2.7239 -1.2700 -1.0890
 2957TIP3    H230287   0.519   1.025  15.098 -1.0023  1.5706  1.1288
 2958TIP3   OH230288   5.312   6.337  12.997 -0.0529 -0.2612 -0.2793
 2958TIP3    H130289   5.376   6.268  12.984 -1.5134 -1.7125 -0.2048
 2958TIP3    H230290   5.340   6.382  13.077 -0.4885 -2.5473  1.2597
 2959TIP3   OH230291   4.131   2.808   1.167 -0.2216  0.1895 -0.3347
 2959TIP3    H130292   4.190   2.881   1.187 -0.8854  0.3278  1.2291
 2959TIP3    H230293   4.140   2.749   1.243 -1.5552 -0.1311 -0.4097
 2960TIP3   OH230294   6.283   1.407   4.258  0.4026  0.3837  0.3754
 2960TIP3    H130295   6.306   1.335   4.317  1.4615 -0.0607 -0.5317
 2960TIP3    H230296   6.188   1.416   4.268  0.2946 -0.9046  0.7887
 2961TIP3   OH230297   1.911   1.441  11.339 -0.1454  0.1115 -0.2006
 2961TIP3    H130298   1.962   1.361  11.335 -0.1373  0.0967  0.1869
 2961TIP3    H230299   1.883   1.456  11.248  1.1805  0.5365 -0.5589
 2962TIP3   OH230300   3.324   2.890  14.938  0.2225  0.2637 -0.7424
 2962TIP3    H130301   3.328   2.950  14.864  1.5875  1.1437 -0.0107
 2962TIP3    H230302   3.317   2.803  14.899  0.4947  0.7423 -1.8936
 2963TIP3   OH230303   1.114   5.690   2.776 -0.1816 -0.1737 -0.6662
 2963TIP3    H130304   1.151   5.748   2.709 -0.2911  0.6413 -0.0377
 2963TIP3    H230305   1.157   5.717   2.857  1.0411 -2.1250 -0.6061
 2964TIP3   OH230306   3.356   0.100   2.578 -0.5087 -0.3609 -0.4584
 2964TIP3    H130307   3.337   0.186   2.539 -1.2493  0.0078  0.6817
 2964TIP3    H230308   3.273   0.053   2.572 -0.9158  0.0353  1.4636
 2965TIP3   OH230309   5.077   1.262   4.308 -0.4312  0.1640  0.6611
 2965TIP3    H130310   5.149   1.230   4.253 -0.5126  0.8918  0.1209
 2965TIP3    H230311   5.090   1.218   4.392  1.0613  0.8168  0.8085
 2966TIP3   OH230312   2.280   1.904   5.719  0.2387  0.3198 -0.5849
 2966TIP3    H130313   2.241   1.844   5.656  3.1143 -0.2725 -1.9505
 2966TIP3    H230314   2.247   1.874   5.804 -2.7791  0.3877 -1.6353
 2967TIP3   OH230315   5.802   3.504  15.350  0.2470  0.3739 -0.1102
 2967TIP3    H130316   5.850   3.535  15.427 -1.3368  0.2541  0.9543
 2967TIP3    H230317   5.713   3.536  15.363  0.1490  1.2240 -2.4109
 2968TIP3   OH230318   5.063   5.297   5.644 -0.6243 -0.2588  0.5672
 2968TIP3    H130319   5.102   5.233   5.704  0.8406  0.3995  0.3754
 2968TIP3    H230320   5.082   5.382   5.684 -0.7282  0.1332 -0.1992
 2969TIP3   OH230321   6.762   3.463  13.856 -0.4609  0.3042 -0.0158
 2969TIP3    H130322   6.817   3.409  13.912 -0.5636 -0.2006 -0.3888
 2969TIP3    H230323   6.673   3.448  13.887 -0.4375  0.7083  0.2485
 2970TIP3   OH230324   6.471   1.621   3.643 -0.1004 -0.2558  0.2983
 2970TIP3    H130325   6.541   1.687   3.647 -1.7978  1.5988  1.0158
 2970TIP3    H230326   6.427   1.627   3.728 -1.7043 -0.7189 -0.4524
 2971TIP3   OH230327   2.061   0.586   5.824 -0.2732 -0.1001  0.3255
 2971TIP3    H130328   2.015   0.668   5.844  1.2770  1.2401 -1.3546
 2971TIP3    H230329   2.153   0.610   5.820  0.1256 -1.6783 -1.3622
 2972TIP3   OH230330   0.138   0.265  16.733 -0.5545 -0.1620 -0.6089
 2972TIP3    H130331   0.234   0.259  16.734 -0.3972  1.5999 -0.8892
 2972TIP3    H230332   0.110   0.222  16.813  0.4795 -0.6868 -0.5107
 2973TIP3   OH230333   6.180   3.757   0.932  0.2869  0.5669  0.0905
 2973TIP3    H130334   6.094   3.729   0.901 -0.3298  0.9652  1.3778
 2973TIP3    H230335   6.163   3.838   0.979  1.2769  0.3384  0.8771
 2974TIP3   OH230336   1.828   4.809   5.342  0.0644  0.5415  0.3477
 2974TIP3    H130337   1.789   4.890   5.374 -0.6240 -0.1340  1.2566
 2974TIP3    H230338   1.913   4.804   5.385  0.1084  0.7716  0.2884
 2975TIP3   OH230339   5.335   1.708   6.129  0.4794 -0.1325 -0.5703
 2975TIP3    H130340   5.313   1.788   6.082  0.7207 -0.0441 -0.5343
 2975TIP3    H230341   5.310   1.726   6.220 -0.3633 -0.4494 -0.7275
 2976TIP3   OH230342   1.272   3.944  13.856 -0.1779  0.1259  0.5617
 2976TIP3    H130343   1.308   4.033  13.856  0.7666 -0.2361  0.0361
 2976TIP3    H230344   1.223   3.938  13.938 -0.6199  1.2707  0.3945
 2977TIP3   OH230345   6.771   1.165  14.933 -0.1195  0.4374  0.1531
 2977TIP3    H130346   6.749   1.074  14.911  1.3305  0.4401 -1.5539
 2977TIP3    H230347   6.762   1.212  14.850  0.8630  1.4866  0.6225
 2978TIP3   OH230348   5.526   5.904   2.559 -0.7618 -0.7062  0.8819
 2978TIP3    H130349   5.513   5.894   2.464 -0.0332  1.1430  0.5272
 2978TIP3    H230350   5.452   5.957   2.587 -0.1064  0.1819  0.9943
 2979TIP3   OH230351   1.245   6.251  15.063 -0.5273  0.8490 -0.1605
 2979TIP3    H130352   1.185   6.207  15.002  0.1088  0.2314 -0.3652
 2979TIP3    H230353   1.322   6.271  15.009  0.2852 -0.2320  0.5610
 2980TIP3   OH230354   4.326   1.124  14.877  0.3683  0.6643  0.0086
 2980TIP3    H130355   4.301   1.207  14.837 -1.2146  0.3969  0.3725
 2980TIP3    H230356   4.378   1.079  14.811  0.3918  1.5248 -0.5615
 2981TIP3   OH230357   0.109   4.217  17.052 -0.1577  0.4921 -0.2849
 2981TIP3    H130358   0.095   4.182  16.964  1.4954  1.0098 -0.7838
 2981TIP3    H230359   0.133   4.141  17.105  1.5617  0.5379 -0.9356
 2982TIP3   OH230360   3.163   2.738  13.796  0.4990  0.1719  0.3797
 2982TIP3    H130361   3.120   2.748  13.711  0.3643  1.3311  0.5639
 2982TIP3    H230362   3.211   2.820  13.808 -0.0549  0.3316  1.7318
 2983TIP3   OH230363   4.232   6.244  17.033 -0.4307  0.0380 -0.4004
 2983TIP3    H130364   4.320   6.230  16.999 -0.3923 -1.2262  0.1364
 2983TIP3    H230365   4.200   6.323  16.989  1.1751  0.8538 -0.1682
 2984TIP3   OH230366   5.008   6.679   3.576  0.2906  0.2329 -0.1374
 2984TIP3    H130367   5.077   6.699   3.639 -0.1686  2.6393 -0.3138
 2984TIP3    H230368   4.980   6.764   3.543 -0.7686 -0.8535 -2.2429
 2985TIP3   OH230369   4.567   2.465  16.071 -0.3908  0.1389 -0.6418
 2985TIP3    H130370   4.498   2.514  16.027 -0.3040 -0.7207 -1.8020
 2985TIP3    H230371   4.638   2.528  16.083 -1.2680  0.9584  0.3308
 2986TIP3   OH230372   4.133   1.616   3.408  0.5089  0.7130 -0.3009
 2986TIP3    H130373   4.054   1.580   3.448 -0.9274  2.1987 -1.6513
 2986TIP3    H230374   4.194   1.628   3.481 -0.1763 -1.2392  0.6509
 2987TIP3   OH230375   6.289   1.809  10.979 -0.2655  0.5058  0.0217
 2987TIP3    H130376   6.321   1.898  10.989 -0.2139  0.5167 -0.2399
 2987TIP3    H230377   6.359   1.763  10.933 -0.2949  0.3320  0.1473
 2988TIP3   OH230378   4.560   5.544   3.595 -0.2579  0.2966 -0.7103
 2988TIP3    H130379   4.633   5.545   3.533  0.5652  0.4030  0.2350
 2988TIP3    H230380   4.593   5.497   3.671  0.3792  3.9192  1.5219
 2989TIP3   OH230381   0.992   3.715   2.211  0.1814 -0.1895  0.0323
 2989TIP3    H130382   1.031   3.697   2.296 -0.6064 -1.1742  0.2009
 2989TIP3    H230383   0.903   3.744   2.231 -0.0090 -0.4301 -0.4613
 2990TIP3   OH230384   3.712   5.700   4.126  0.0120  0.3851 -0.4699
 2990TIP3    H130385   3.665   5.782   4.136 -1.5340 -0.2418 -2.1476
 2990TIP3    H230386   3.668   5.639   4.186  0.4378  0.4601 -0.0671
 2991TIP3   OH230387   0.047   2.921  16.058 -0.6193 -0.1148  0.3406
 2991TIP3    H130388   0.092   2.890  16.137  2.4859  2.7096 -0.0829
 2991TIP3    H230389   0.042   3.016  16.069 -3.1699  0.0715 -1.4619
 2992TIP3   OH230390   0.274   0.021   3.246 -0.4758 -0.0064 -0.1455
 2992TIP3    H130391   0.255   0.030   3.339  1.3594  0.5320  0.2191
 2992TIP3    H230392   0.206  -0.038   3.213  0.6614 -2.9155  2.2203
 2993TIP3   OH230393   3.137   6.755   5.956  0.0178  0.0651 -0.0320
 2993TIP3    H130394   3.091   6.827   5.913  0.8226  0.0933 -0.8896
 2993TIP3    H230395   3.177   6.796   6.033  1.3465  0.8162 -1.0751
 2994TIP3   OH230396   4.529   6.436   0.879  0.3149  0.1637 -0.2767
 2994TIP3    H130397   4.530   6.376   0.953 -1.2335  0.5511  0.0926
 2994TIP3    H230398   4.487   6.387   0.808  0.4109  0.3036 -0.4338
 2995TIP3   OH230399   2.935   3.739  14.383  0.3483  0.0195 -0.1032
 2995TIP3    H130400   2.851   3.774  14.352 -0.2157 -0.8734  0.3608
 2995TIP3    H230401   2.992   3.815  14.391 -0.4457  0.6517 -0.3438
 2996TIP3   OH230402   5.846   3.594  13.305  0.3858 -0.9276 -0.1232
 2996TIP3    H130403   5.878   3.664  13.247 -0.3682 -3.0836 -3.4504
 2996TIP3    H230404   5.914   3.526  13.299  0.2035 -1.2770  1.4770
 2997TIP3   OH230405   3.741   3.758  11.689 -0.1275 -0.2883  0.0047
 2997TIP3    H130406   3.817   3.712  11.724 -0.3871 -0.5569  0.2140
 2997TIP3    H230407   3.748   3.748  11.594 -0.5353 -1.3276  0.0698
 2998TIP3   OH230408   4.546   4.547   1.655 -0.0569  0.1416 -0.1665
 2998TIP3    H130409   4.529   4.641   1.652  0.0496  0.1426 -1.0707
 2998TIP3    H230410   4.470   4.507   1.613 -0.5208 -0.2516  0.9976
 2999TIP3   OH230411   1.338   1.319   6.152  0.0063 -0.0074  0.3043
 2999TIP3    H130412   1.253   1.362   6.147  0.1828  0.2534 -0.7207
 2999TIP3    H230413   1.339   1.277   6.238 -0.8542  0.6112  0.6266
 3000TIP3   OH230414   1.591   4.972  12.468  0.9080 -0.9632 -0.0604
 3000TIP3    H130415   1.596   4.907  12.397  1.2720  1.1273 -2.0790
 3000TIP3    H230416   1.504   5.010  12.459  1.1823 -0.2610  0.2089
 3001TIP3   OH230417   5.534   5.696   3.077  0.1242 -0.8596  0.3235
 3001TIP3    H130418   5.551   5.738   3.161  0.1189 -0.9457  0.3686
 3001TIP3    H230419   5.458   5.640   3.093  0.6766 -1.5752  0.5055
 3002TIP3   OH230420   1.872   2.366   4.208 -0.2832  0.2181  0.0856
 3002TIP3    H130421   1.861   2.417   4.289 -2.3944  0.0257 -0.0108
 3002TIP3    H230422   1.893   2.431   4.141  1.6971  0.3593  0.7836
 3003TIP3   OH230423   0.672   3.976   0.225  0.3499 -0.1918 -0.2921
 3003TIP3    H130424   0.577   3.967   0.227  0.2667  0.7062  0.1308
 3003TIP3    H230425   0.690   4.053   0.278  1.2729  0.0089 -0.8729
 3004TIP3   OH230426   2.931   6.264   4.063  0.3203  0.1061  0.1359
 3004TIP3    H130427   2.950   6.327   3.994 -1.7269  1.9640  1.1382
 3004TIP3    H230428   2.921   6.317   4.142  0.6983 -1.7474  1.5108
 3005TIP3   OH230429   3.911   0.118   2.317  0.4690  0.3832 -0.1222
 3005TIP3    H130430   3.932   0.116   2.411 -0.6629 -0.4493  0.1360
 3005TIP3    H230431   3.825   0.160   2.313  0.5194  0.4274 -0.7982
 3006TIP3   OH230432   5.634   1.931   0.805 -0.1152  0.3315 -0.1502
 3006TIP3    H130433   5.638   2.009   0.860 -1.3566  0.0121  0.4254
 3006TIP3    H230434   5.597   1.863   0.861  0.9174 -0.6937 -0.6509
 3007TIP3   OH230435   4.122   0.888   5.367 -0.6396  0.0437  0.0308
 3007TIP3    H130436   4.163   0.872   5.282 -1.5764  0.5705 -0.5288
 3007TIP3    H230437   4.195   0.915   5.424 -0.1587  0.6800 -0.8646
 3008TIP3   OH230438   5.654   4.851  13.096 -0.9403  0.7287  0.0914
 3008TIP3    H130439   5.722   4.917  13.106 -1.0996  0.9257 -0.1121
 3008TIP3    H230440   5.655   4.802  13.178  0.8723 -0.6249 -0.6479
 3009TIP3   OH230441   1.288   3.111  10.364  0.0976  0.3004  0.1857
 3009TIP3    H130442   1.292   3.057  10.443 -0.8970  1.6883  1.2161
 3009TIP3    H230443   1.206   3.085  10.321  0.7609 -0.6346 -0.5564
 3010TIP3   OH230444   5.739   0.565   1.518  0.4388 -0.2110  0.4903
 3010TIP3    H130445   5.808   0.544   1.455 -0.8480 -2.6963 -0.2189
 3010TIP3    H230446   5.704   0.649   1.489 -0.1391 -1.2814 -2.2112
 3011TIP3   OH230447   0.522   5.084   5.565  0.4384  0.1626  0.0796
 3011TIP3    H130448   0.562   5.164   5.530  3.2506 -0.8321  0.7752
 3011TIP3    H230449   0.497   5.034   5.488  0.3825  0.8838 -0.3811
 3012TIP3   OH230450   1.345   1.352  11.756  0.1039  0.4004  0.1214
 3012TIP3    H130451   1.377   1.398  11.834  0.6222  0.2238  0.0190
 3012TIP3    H230452   1.314   1.421  11.698 -1.2068  0.4814  0.8791
 3013TIP3   OH230453   3.954   2.085  14.686 -0.3029 -0.2373 -0.5162
 3013TIP3    H130454   4.021   2.021  14.709  0.7518  0.5685 -1.2511
 3013TIP3    H230455   3.895   2.087  14.762  0.5455 -0.9120  0.1737
 3014TIP3   OH230456   6.382   3.098   5.229 -0.2638  0.2173  0.1632
 3014TIP3    H130457   6.443   3.032   5.197 -1.3384 -1.3223  1.1159
 3014TIP3    H230458   6.427   3.138   5.303  0.4826  0.7418 -0.5537
 3015TIP3   OH230459   0.380   0.075  11.600  0.3630 -0.2678  0.0693
 3015TIP3    H130460   0.326   0.049  11.526 -0.9207  0.2620  0.7773
 3015TIP3    H230461   0.460   0.110  11.561 -0.9968  1.6860 -1.1921
 3016TIP3   OH230462   0.426   6.327   3.107  0.0745 -0.0533 -0.0031
 3016TIP3    H130463   0.422   6.422   3.116  2.3054  0.0194  0.8388
 3016TIP3    H230464   0.381   6.294   3.185  1.7429  0.3870  1.1995
 3017TIP3   OH230465   4.850   1.899  10.855 -0.1807 -0.1753 -0.1121
 3017TIP3    H130466   4.912   1.901  10.928 -0.4347  0.8624  0.0861
 3017TIP3    H230467   4.892   1.842  10.790 -0.1658 -1.4916  1.0171
 3018TIP3   OH230468   2.931   6.179  11.369 -0.1467  0.3800  0.1983
 3018TIP3    H130469   2.977   6.204  11.449  1.1955 -2.0053  0.2294
 3018TIP3    H230470   2.919   6.262  11.322  2.5224  1.3435  1.0555
 3019TIP3   OH230471   4.237   0.149   1.755  0.0648  0.4387  0.0054
 3019TIP3    H130472   4.239   0.217   1.823 -0.6247  0.1782  0.2969
 3019TIP3    H230473   4.154   0.104   1.770 -0.7439  1.2190 -1.8428
 3020TIP3   OH230474   0.843   4.551   6.088 -0.4396  0.4671  0.3484
 3020TIP3    H130475   0.757   4.547   6.046  0.1368 -0.8371 -0.8172
 3020TIP3    H230476   0.867   4.643   6.086 -1.0724  0.6253 -0.8889
 3021TIP3   OH230477   1.579   1.850   3.691  1.0777  0.2084 -0.1932
 3021TIP3    H130478   1.623   1.860   3.776 -0.6714  1.0298  0.6714
 3021TIP3    H230479   1.555   1.758   3.688  0.8438  0.2460  0.3664
 3022TIP3   OH230480   0.044   0.036  17.146 -0.1489 -0.5006 -0.4110
 3022TIP3    H130481   0.092   0.026  17.229 -0.0194 -0.3924 -0.4726
 3022TIP3    H230482   0.112   0.046  17.080 -0.2547  0.8205 -0.3518
 3023TIP3   OH230483   6.061   6.296   4.030 -0.4381  0.6346  0.3008
 3023TIP3    H130484   6.037   6.326   4.117 -0.0377  0.7052  0.3874
 3023TIP3    H230485   6.081   6.203   4.042  2.0385  1.1729  0.7824
 3024TIP3   OH230486   2.817   3.270   2.766  0.2213  0.3408 -0.0926
 3024TIP3    H130487   2.758   3.195   2.764  0.8805 -0.3946  3.2785
 3024TIP3    H230488   2.903   3.233   2.786  1.2584  1.7213 -1.6950
 3025TIP3   OH230489   0.442   4.935   4.450  0.6102  0.3468 -0.1783
 3025TIP3    H130490   0.523   4.894   4.419  0.0443 -0.7410 -0.2733
 3025TIP3    H230491   0.386   4.861   4.474  0.2423  1.1306  1.4491
 3026TIP3   OH230492   3.055   3.359   1.848  0.0675  0.1280  0.5263
 3026TIP3    H130493   3.127   3.392   1.794 -0.1965 -0.3206 -0.1005
 3026TIP3    H230494   2.985   3.424   1.837  0.5060  0.8041  1.4875
 3027TIP3   OH230495   2.247   0.378   2.166  0.0474 -0.3733  0.8087
 3027TIP3    H130496   2.207   0.429   2.095 -0.7833 -0.6801  1.0434
 3027TIP3    H230497   2.302   0.314   2.121 -1.6882 -1.5990  0.3428
 3028TIP3   OH230498   3.918   0.339  16.061  0.0483  1.0186 -0.0179
 3028TIP3    H130499   3.903   0.422  16.107 -1.0338  0.6535  0.3318
 3028TIP3    H230500   3.863   0.276  16.107  1.8938 -0.2321  0.5953
 3029TIP3   OH230501   5.678   3.950   1.077 -0.3805  0.4549 -0.2159
 3029TIP3    H130502   5.661   3.911   0.991 -0.9973 -0.7004  0.4072
 3029TIP3    H230503   5.592   3.981   1.106 -0.8439 -1.9852  1.3066
 3030TIP3   OH230504   4.115   5.497   4.810 -0.1031  0.3218 -0.1179
 3030TIP3    H130505   4.093   5.451   4.891 -0.0564 -0.2143 -0.4077
 3030TIP3    H230506   4.058   5.574   4.810 -0.6846 -0.1051  0.0169
 3031TIP3   OH230507   5.491   6.243   4.894 -0.5496 -0.3190  0.2954
 3031TIP3    H130508   5.557   6.176   4.911 -1.3441 -1.1810  0.0547
 3031TIP3    H230509   5.518   6.283   4.811  1.6606  1.8382  1.9408
 3032TIP3   OH230510   6.514   0.353   4.607  0.0439 -0.9284 -0.0264
 3032TIP3    H130511   6.583   0.294   4.576 -0.1515 -1.9204  1.3326
 3032TIP3    H230512   6.529   0.434   4.559  1.7210 -1.3486 -0.2774
 3033TIP3   OH230513   3.427   1.266   0.047 -0.8822  0.3223 -0.4414
 3033TIP3    H130514   3.394   1.346   0.086  0.6205  0.9457 -0.3807
 3033TIP3    H230515   3.499   1.294  -0.009 -0.9675 -0.8864 -1.1958
 3034TIP3   OH230516   3.103   0.222   0.177 -0.1951 -0.3144 -0.2090
 3034TIP3    H130517   3.035   0.285   0.200 -0.5364 -0.2231 -1.4016
 3034TIP3    H230518   3.123   0.177   0.259  0.3407  1.5920  0.7722
 3035TIP3   OH230519   5.839   1.357   4.409  0.2462 -0.3606  0.0131
 3035TIP3    H130520   5.876   1.323   4.490  1.4979 -0.1314 -0.4453
 3035TIP3    H230521   5.745   1.362   4.426 -0.0556 -4.0894  0.0707
 3036TIP3   OH230522   2.195   6.624  15.930  0.5506 -0.5036 -0.4600
 3036TIP3    H130523   2.281   6.641  15.970  0.7339 -0.2286 -0.9667
 3036TIP3    H230524   2.201   6.534  15.898  0.1797 -0.9537  0.6872
 3037TIP3   OH230525   2.507   4.724   3.635  0.1870 -0.2303 -0.5205
 3037TIP3    H130526   2.528   4.775   3.556 -0.7619  0.0687 -0.5911
 3037TIP3    H230527   2.572   4.653   3.635 -0.1300 -0.5505 -1.8747
 3038TIP3   OH230528   5.806   5.900  13.916  0.3653  0.0173 -0.0527
 3038TIP3    H130529   5.795   5.857  13.831  0.1148 -0.3014  0.1389
 3038TIP3    H230530   5.751   5.850  13.976  1.5873 -0.6118  0.5984
 3039TIP3   OH230531   5.245   4.623  13.108 -0.2772  0.4854 -0.0404
 3039TIP3    H130532   5.299   4.703  13.110  0.5311 -0.0584  0.3828
 3039TIP3    H230533   5.266   4.583  13.024 -1.7067  1.3820 -0.8702
 3040TIP3   OH230534   5.474   6.139  12.886 -0.1693  0.0641 -0.0978
 3040TIP3    H130535   5.524   6.091  12.952 -0.2212 -0.7969 -0.6687
 3040TIP3    H230536   5.540   6.175  12.827 -0.1294  0.7376  0.3422
 3041TIP3   OH230537   3.310   0.283  15.291  0.0352 -0.0161 -0.1828
 3041TIP3    H130538   3.219   0.278  15.320  0.7919 -2.7608  2.2078
 3041TIP3    H230539   3.348   0.199  15.317  2.8736  0.3562 -2.5862
 3042TIP3   OH230540   2.938   3.665   5.295  0.0278 -0.2449 -0.2508
 3042TIP3    H130541   2.994   3.608   5.243  1.2330  1.3663 -0.8085
 3042TIP3    H230542   2.951   3.637   5.385  0.4305 -0.9716 -0.5364
 3043TIP3   OH230543   1.779   0.076  15.470 -0.1054  0.2847 -0.8906
 3043TIP3    H130544   1.769   0.091  15.565  0.3249  0.8789 -0.9334
 3043TIP3    H230545   1.857   0.127  15.446 -1.2115  1.5743 -1.8918
 3044TIP3   OH230546   2.037   2.734  11.698  0.0388 -0.0822  0.0516
 3044TIP3    H130547   1.981   2.759  11.624  1.8271  1.5079 -0.8389
 3044TIP3    H230548   2.015   2.797  11.766  0.4575  0.3122 -0.1719
 3045TIP3   OH230549   1.836   0.131  12.206 -0.0596  0.3050  0.3709
 3045TIP3    H130550   1.881   0.144  12.122  0.2200  1.0397  0.6238
 3045TIP3    H230551   1.840   0.036  12.220  0.7136  0.2669 -0.0033
 3046TIP3   OH230552   2.898   3.684   3.021 -0.7608  0.4727  0.3797
 3046TIP3    H130553   2.965   3.647   3.079 -0.5696  3.6724  2.4461
 3046TIP3    H230554   2.944   3.752   2.971 -1.7027  0.1538 -0.9786
 3047TIP3   OH230555   1.803   3.639  14.177 -0.1513  0.3496 -0.0864
 3047TIP3    H130556   1.712   3.610  14.183 -0.0104 -0.2205 -0.6875
 3047TIP3    H230557   1.855   3.559  14.182  0.4103  0.7685  1.7969
 3048TIP3   OH230558   6.779   1.655  14.181 -0.1825 -0.7297  0.9163
 3048TIP3    H130559   6.687   1.629  14.177 -1.4231  2.6215  2.8869
 3048TIP3    H230560   6.784   1.735  14.128  1.4429 -0.5243  1.3141
 3049TIP3   OH230561   4.353   6.058  14.751  0.1976 -0.7787  0.1374
 3049TIP3    H130562   4.356   6.050  14.847  1.3692 -0.9472  0.1024
 3049TIP3    H230563   4.413   6.130  14.731 -1.7306  0.7811 -0.3477
 3050TIP3   OH230564   3.057   3.443   4.502 -0.3510 -0.1740  0.2958
 3050TIP3    H130565   3.041   3.437   4.408 -0.5482 -0.4885  0.3474
 3050TIP3    H230566   3.014   3.524   4.528  0.4160  0.3503 -0.0287
 3051TIP3   OH230567   2.760   3.500   4.030  0.1275 -0.3327  0.2476
 3051TIP3    H130568   2.830   3.502   4.094  0.5263  0.3370 -0.1949
 3051TIP3    H230569   2.803   3.483   3.946 -0.4062 -1.3860  0.1665
 3052TIP3   OH230570   4.206   3.735   2.655  0.1415  0.4176  0.1907
 3052TIP3    H130571   4.160   3.717   2.736 -1.6341  0.1374 -0.8358
 3052TIP3    H230572   4.221   3.829   2.656  0.3183  0.3872  0.9189
 3053TIP3   OH230573   4.700   5.903  12.049  0.1091  0.0659 -0.1816
 3053TIP3    H130574   4.773   5.842  12.037  0.7300  0.9571 -1.2217
 3053TIP3    H230575   4.622   5.854  12.022  0.0855 -1.3372  2.1932
 3054TIP3   OH230576   1.247   2.959  13.208 -0.2522 -0.3844  0.7837
 3054TIP3    H130577   1.214   2.998  13.127  1.3511 -0.1590  0.1968
 3054TIP3    H230578   1.315   2.898  13.179  0.6660  0.0384  1.9838
 3055TIP3   OH230579   3.210   6.470   0.940 -0.5405 -0.1349 -0.7512
 3055TIP3    H130580   3.164   6.549   0.911  0.1290  0.0578 -1.3116
 3055TIP3    H230581   3.276   6.502   1.002 -1.2887 -0.4370  0.2316
 3056TIP3   OH230582   4.670   1.500  14.300 -0.1018  0.0920  0.0300
 3056TIP3    H130583   4.727   1.491  14.224  1.8098  2.1884  1.1292
 3056TIP3    H230584   4.704   1.436  14.362 -0.4759 -0.3031 -0.1639
 3057TIP3   OH230585   5.452   3.556   2.696  0.7907 -0.8313 -0.1583
 3057TIP3    H130586   5.427   3.648   2.693  2.6856 -0.2848 -0.9945
 3057TIP3    H230587   5.457   3.529   2.604 -1.3687 -2.2941  0.0880
 3058TIP3   OH230588   6.166   2.848  16.836  0.4377 -0.1560 -0.3504
 3058TIP3    H130589   6.107   2.773  16.833  1.8148 -1.3564  1.1163
 3058TIP3    H230590   6.244   2.819  16.789  0.8750  0.4651 -0.0195
 3059TIP3   OH230591   4.096   6.512  14.372  0.0000  0.1741  0.2022
 3059TIP3    H130592   4.022   6.571  14.386 -0.7378 -0.8775  0.8895
 3059TIP3    H230593   4.147   6.554  14.303 -1.5879  0.5949 -0.7760
 3060TIP3   OH230594   1.462   0.684   4.561 -0.4665 -0.6932 -0.2211
 3060TIP3    H130595   1.475   0.762   4.614  1.7804 -0.2357 -1.3223
 3060TIP3    H230596   1.375   0.695   4.523 -0.7984  0.5090  0.8250
 3061TIP3   OH230597   5.547   2.428  16.639  0.3479  0.4112 -0.4568
 3061TIP3    H130598   5.569   2.346  16.595  0.5370 -0.0787  0.5260
 3061TIP3    H230599   5.543   2.405  16.731  2.6543  1.9505  0.1111
 3062TIP3   OH230600   1.459   5.493   0.097 -0.2440  0.3056  0.6278
 3062TIP3    H130601   1.475   5.448   0.014  1.8768  1.9083  0.0823
 3062TIP3    H230602   1.416   5.428   0.152 -0.3441 -1.2731 -1.2281
 3063TIP3   OH230603   1.034   2.915  15.533 -0.5874  0.2990 -0.4397
 3063TIP3    H130604   0.986   2.848  15.483 -2.8430  2.6750 -1.6784
 3063TIP3    H230605   1.039   2.990  15.474 -0.5504  2.1597  1.7970
 3064TIP3   OH230606   6.551   2.052   5.273 -0.2297  0.0661  0.3187
 3064TIP3    H130607   6.467   2.045   5.229  0.2342  0.7088 -0.7087
 3064TIP3    H230608   6.601   2.116   5.222  1.7453 -2.0163 -0.5472
 3065TIP3   OH230609   5.559   3.160   4.839 -0.0321  0.0529 -0.0192
 3065TIP3    H130610   5.533   3.069   4.854  0.0630 -0.1343 -0.9187
 3065TIP3    H230611   5.632   3.154   4.778  1.5815  0.6183  1.7803
 3066TIP3   OH230612   2.941   2.396  10.897 -0.2688  0.2044  0.2040
 3066TIP3    H130613   2.872   2.429  10.955 -2.8638  0.0773 -2.5520
 3066TIP3    H230614   2.919   2.305  10.882 -0.5885  0.6151 -2.1054
 3067TIP3   OH230615   1.940   2.520  12.792  0.3073  0.3000 -0.3842
 3067TIP3    H130616   1.867   2.577  12.771  0.9406  1.9315  1.5973
 3067TIP3    H230617   1.906   2.459  12.857  0.5011  0.5607 -0.0368
 3068TIP3   OH230618   1.981   6.081  12.181 -0.2626  0.1378  0.5691
 3068TIP3    H130619   1.941   6.002  12.217  0.7304 -0.5873  0.1400
 3068TIP3    H230620   1.910   6.144  12.176 -1.4540 -1.2272 -0.5510
 3069TIP3   OH230621   5.191   4.058   3.491 -0.4085 -0.0976  0.7674
 3069TIP3    H130622   5.206   4.097   3.578  1.2488 -1.2730  1.0491
 3069TIP3    H230623   5.134   3.983   3.509  1.0986 -1.2122  1.1058
 3070TIP3   OH230624   2.285   4.958  14.113  0.2357  0.9513 -0.1615
 3070TIP3    H130625   2.302   4.876  14.067  1.9307  0.5289  1.1003
 3070TIP3    H230626   2.272   5.022  14.044 -0.7165 -0.2909 -1.1777
 3071TIP3   OH230627   0.431   1.738   5.869  0.4888  0.5711  0.1882
 3071TIP3    H130628   0.431   1.751   5.774 -1.9654  0.7180  0.1516
 3071TIP3    H230629   0.366   1.669   5.884  3.1161 -1.8452  1.5565
 3072TIP3   OH230630   0.839   4.537  14.263 -0.0176 -0.7010  0.6867
 3072TIP3    H130631   0.822   4.574  14.177 -2.1480  1.0319  1.7416
 3072TIP3    H230632   0.769   4.473  14.276  0.1114 -0.7418  1.2108
 3073TIP3   OH230633   0.918   1.068   1.355  0.2769  0.0923 -0.1012
 3073TIP3    H130634   1.010   1.085   1.371  0.0105  1.5679  0.0307
 3073TIP3    H230635   0.912   1.049   1.261  0.9587 -2.1132  0.2372
 3074TIP3   OH230636   0.126   6.512  11.681  0.7963  0.8340  0.2660
 3074TIP3    H130637   0.063   6.558  11.737 -0.6956 -0.2263 -0.4919
 3074TIP3    H230638   0.115   6.553  11.595  2.0984  1.5218  0.4048
 3075TIP3   OH230639   6.380   1.462   0.595  0.5807 -0.2122  0.4328
 3075TIP3    H130640   6.294   1.447   0.556 -0.5448  3.3985  1.1844
 3075TIP3    H230641   6.373   1.424   0.683 -0.3587  0.3206  0.5967
 3076TIP3   OH230642   3.592   1.016  11.737 -0.3155 -0.2155  0.8155
 3076TIP3    H130643   3.596   1.000  11.831 -1.1184 -1.3515  0.6786
 3076TIP3    H230644   3.528   0.953  11.704  0.8998 -0.7528 -0.6841
 3077TIP3   OH230645   3.663   3.503  13.677  0.7086 -0.3256  0.3693
 3077TIP3    H130646   3.578   3.521  13.637  1.7690 -0.3473 -2.0652
 3077TIP3    H230647   3.688   3.585  13.719  0.6494  0.5835 -1.2719
 3078TIP3   OH230648   3.760   1.729   4.609  0.7358  0.0509  0.4632
 3078TIP3    H130649   3.685   1.752   4.664  0.7219  0.0436  0.4470
 3078TIP3    H230650   3.776   1.637   4.626  0.9085  0.1178  0.6692
 3079TIP3   OH230651   3.628   5.839   2.337  0.1913 -0.5168 -0.5556
 3079TIP3    H130652   3.630   5.816   2.244 -1.1958 -2.2718 -0.2271
 3079TIP3    H230653   3.658   5.760   2.381  3.9646  1.2871  0.4847
 3080TIP3   OH230654   6.539   1.439   2.862 -0.0056  0.0842  0.5333
 3080TIP3    H130655   6.605   1.377   2.831 -0.8610 -0.2402 -0.7278
 3080TIP3    H230656   6.587   1.496   2.923  1.1725 -0.7941  0.4724
 3081TIP3   OH230657   0.728   3.238   4.670  0.1085  0.1790 -0.0904
 3081TIP3    H130658   0.822   3.238   4.687 -0.1157 -1.1945  1.4065
 3081TIP3    H230659   0.702   3.330   4.679  1.1892  0.4667  0.2554
 3082TIP3   OH230660   2.033   3.365   3.681 -0.1835  0.5501  0.1928
 3082TIP3    H130661   2.027   3.275   3.650 -1.5968  0.3015  1.0853
 3082TIP3    H230662   2.126   3.386   3.678 -0.0397 -0.2579 -1.8561
 3083TIP3   OH230663   6.569   5.209   3.599 -0.0579 -0.4482  0.0508
 3083TIP3    H130664   6.568   5.159   3.680 -5.7179  0.2068  0.8284
 3083TIP3    H230665   6.585   5.299   3.627 -0.4320 -0.4438  0.2658
 3084TIP3   OH230666   2.270   1.325   0.744 -0.0467  0.1679 -0.0775
 3084TIP3    H130667   2.360   1.294   0.732 -0.2783  0.0505 -1.7989
 3084TIP3    H230668   2.226   1.254   0.790 -0.1871 -1.5002 -2.6329
 3085TIP3   OH230669   5.173   3.341   6.106 -0.0139  0.0692  0.2188
 3085TIP3    H130670   5.211   3.296   6.181  1.4950 -1.7946 -1.5319
 3085TIP3    H230671   5.095   3.383   6.140  0.9824 -0.0842  2.9603
 3086TIP3   OH230672   1.037   1.140  11.055 -0.0495  0.5691  0.0144
 3086TIP3    H130673   0.974   1.179  10.995  0.9427  0.7670 -0.9298
 3086TIP3    H230674   1.116   1.127  11.002  0.4405 -0.4360  0.9497
 3087TIP3   OH230675   0.713   5.349  15.283  0.0689  0.1216  0.3681
 3087TIP3    H130676   0.755   5.403  15.350 -1.0479  1.1098  0.3029
 3087TIP3    H230677   0.641   5.402  15.251  0.4756 -0.3989 -1.5196
 3088TIP3   OH230678   6.410   6.020   2.694 -0.1389  0.0405  0.1228
 3088TIP3    H130679   6.377   5.943   2.648  1.1454  0.5434 -1.7633
 3088TIP3    H230680   6.338   6.083   2.692  0.2164  0.4713 -2.3309
 3089TIP3   OH230681   0.741   2.266  14.430  0.3478  1.1633  0.3410
 3089TIP3    H130682   0.727   2.300  14.518 -1.6694  0.6505  0.2595
 3089TIP3    H230683   0.825   2.220  14.435 -1.3353 -2.0476  3.0644
 3090TIP3   OH230684   1.091   0.978   2.370 -0.2071 -0.0231 -0.0317
 3090TIP3    H130685   1.125   0.937   2.449  0.1854  0.6133  0.1374
 3090TIP3    H230686   1.009   1.020   2.398 -0.9127 -1.1422 -0.3311
 3091TIP3   OH230687   3.219   1.064  13.723 -0.7604  0.0455  0.2037
 3091TIP3    H130688   3.281   1.135  13.703  0.0978 -0.6382  0.3821
 3091TIP3    H230689   3.254   0.987  13.679 -1.4059 -0.3956  0.4336
 3092TIP3   OH230690   4.658   5.027   4.258  0.0507 -0.9130  0.1505
 3092TIP3    H130691   4.711   5.023   4.178 -1.0560 -1.3467 -0.5862
 3092TIP3    H230692   4.610   4.944   4.259  0.0310 -0.9099  1.2691
 3093TIP3   OH230693   4.148   5.761  13.586  0.1004 -0.2275 -0.3150
 3093TIP3    H130694   4.174   5.689  13.528 -0.9798 -0.5771 -0.3852
 3093TIP3    H230695   4.207   5.753  13.661  0.9757 -0.2685 -0.9910
 3094TIP3   OH230696   6.046   2.924   5.628  0.3501  0.1348  0.2935
 3094TIP3    H130697   6.096   2.946   5.550 -1.3112  1.0338 -0.5867
 3094TIP3    H230698   6.016   3.008   5.663 -2.2231 -0.3956 -0.4320
 3095TIP3   OH230699   5.010   3.659  14.353 -0.2199 -0.4819  0.1120
 3095TIP3    H130700   4.928   3.645  14.400 -0.7058 -1.6828 -1.0011
 3095TIP3    H230701   5.077   3.620  14.409 -0.1753  1.5836  1.6063
 3096TIP3   OH230702   3.127   3.309  16.092 -0.2487 -0.0056  0.4760
 3096TIP3    H130703   3.105   3.389  16.140  1.2274  1.2327 -0.7629
 3096TIP3    H230704   3.213   3.328  16.054 -0.3214 -1.8221 -0.7008
 3097TIP3   OH230705   3.929   5.459   1.515  0.3816  0.0799  0.3109
 3097TIP3    H130706   3.934   5.365   1.497 -0.1014  0.1889 -0.4006
 3097TIP3    H230707   4.019   5.490   1.508  0.3829 -0.1167 -0.6618
 3098TIP3   OH230708   2.712   1.187   3.341 -0.0332 -0.3405 -0.2181
 3098TIP3    H130709   2.630   1.141   3.324 -0.8519  1.4527 -1.3977
 3098TIP3    H230710   2.739   1.157   3.427 -4.4910  2.5257  2.5736
 3099TIP3   OH230711   5.920   1.989   0.735 -0.2431 -0.4465 -0.0224
 3099TIP3    H130712   5.926   1.995   0.831  1.0309  0.0147 -0.1081
 3099TIP3    H230713   5.828   1.972   0.718 -0.8192  1.1774  1.1975
 3100TIP3   OH230714   3.134   4.857  13.466 -0.3071 -0.0500 -0.0064
 3100TIP3    H130715   3.114   4.797  13.538 -0.4750  0.9622  0.8201
 3100TIP3    H230716   3.228   4.873  13.474 -0.6600  1.7707  1.4269
 3101TIP3   OH230717   6.070   2.940   2.683 -0.3557 -0.0808  0.2420
 3101TIP3    H130718   5.997   2.925   2.624 -0.1032 -0.9029  0.1226
 3101TIP3    H230719   6.088   3.033   2.677 -0.9322 -0.0008 -0.2690
 3102TIP3   OH230720   5.772   3.916   2.068  0.6767  0.2877  0.1318
 3102TIP3    H130721   5.693   3.965   2.089 -0.0560 -0.2974 -1.1858
 3102TIP3    H230722   5.819   3.970   2.004  0.8517  0.1715  0.1587
 3103TIP3   OH230723   4.199   4.579  11.543 -0.0321  0.0984 -0.5692
 3103TIP3    H130724   4.265   4.622  11.597 -0.1862  2.2167 -1.9469
 3103TIP3    H230725   4.247   4.511  11.496  0.4178 -0.7034  0.9765
 3104TIP3   OH230726   1.302   6.625  11.810  0.6446 -0.1625  0.2101
 3104TIP3    H130727   1.232   6.690  11.804  1.2845  0.5680  0.6083
 3104TIP3    H230728   1.382   6.676  11.817  1.3325 -0.9752 -1.1694
 3105TIP3   OH230729   4.123   2.137   1.510  0.4602 -0.1035  0.5931
 3105TIP3    H130730   4.042   2.138   1.459  0.2911  0.1224  0.8616
 3105TIP3    H230731   4.192   2.120   1.446  0.3761  1.2851  0.1041
 3106TIP3   OH230732   1.029   0.637   3.186  0.1350 -0.1526 -0.1530
 3106TIP3    H130733   0.947   0.640   3.137  0.5016  3.2399 -0.8088
 3106TIP3    H230734   1.010   0.578   3.260 -2.6265 -0.1160 -0.6996
 3107TIP3   OH230735   6.691   5.414  16.929 -0.1538 -0.1612  0.5618
 3107TIP3    H130736   6.786   5.410  16.939  0.2574  1.7438 -1.6752
 3107TIP3    H230737   6.672   5.350  16.861 -0.7341 -1.5551  1.9669
 3108TIP3   OH230738   2.926   2.162   0.105 -0.2983  0.2587  0.1689
 3108TIP3    H130739   2.929   2.256   0.086  2.6214  0.0499 -0.9494
 3108TIP3    H230740   2.962   2.154   0.193  0.2084  0.1383 -0.0473
 3109TIP3   OH230741   1.820   5.532   2.855 -0.7583  0.1603 -0.0394
 3109TIP3    H130742   1.858   5.602   2.909 -0.3952 -0.0127 -0.0694
 3109TIP3    H230743   1.782   5.577   2.780 -0.7231  0.3454  0.0541
 3110TIP3   OH230744   4.314   1.112   5.767  0.6099  0.2421  0.2784
 3110TIP3    H130745   4.302   1.112   5.672 -0.2780 -1.1539  0.3650
 3110TIP3    H230746   4.288   1.200   5.794 -0.2282  0.2986 -0.6469
 3111TIP3   OH230747   3.261   3.428   5.675  0.1333  0.2996 -0.1974
 3111TIP3    H130748   3.283   3.459   5.587 -0.1676  0.6461 -0.1538
 3111TIP3    H230749   3.319   3.353   5.689  0.5414  0.5555 -0.4905
 3112TIP3   OH230750   5.114   3.551   3.548  0.2939  0.4957  0.1961
 3112TIP3    H130751   5.189   3.543   3.489  0.3222 -1.2067  0.4171
 3112TIP3    H230752   5.041   3.576   3.492  0.4232 -0.6259 -0.5018
 3113TIP3   OH230753   2.108   2.251   0.988  0.1836 -0.5057 -0.3034
 3113TIP3    H130754   2.034   2.196   1.012 -1.0565  0.2591 -2.1336
 3113TIP3    H230755   2.069   2.335   0.964  1.6946  0.0858 -0.8452
 3114TIP3   OH230756   4.519   2.586  11.922 -0.2878  0.0330  0.1224
 3114TIP3    H130757   4.565   2.594  12.006 -0.2961 -1.6429  0.3227
 3114TIP3    H230758   4.457   2.515  11.936 -0.5370 -0.0261 -1.2040
 3115TIP3   OH230759   3.713   4.278   4.743 -0.2362  0.2183  0.0976
 3115TIP3    H130760   3.704   4.254   4.835 -2.0862  1.3772  0.2720
 3115TIP3    H230761   3.798   4.322   4.737 -0.0136 -0.0481  1.1905
 3116TIP3   OH230762   0.816   3.209   3.821 -0.1392  0.5143  0.0680
 3116TIP3    H130763   0.880   3.166   3.764  2.4819  1.8446  1.8200
 3116TIP3    H230764   0.779   3.138   3.873  1.0491 -0.1351  0.0686
 3117TIP3   OH230765   3.814   5.710  17.024 -0.0274  0.5697  0.6586
 3117TIP3    H130766   3.837   5.639  16.963 -0.2373  0.2994  0.8882
 3117TIP3    H230767   3.718   5.711  17.022 -0.0402  0.4265  1.1307
 3118TIP3   OH230768   3.741   6.219   3.955 -0.1563  0.2030  0.6706
 3118TIP3    H130769   3.736   6.171   3.872  0.9400  2.0946 -0.5664
 3118TIP3    H230770   3.772   6.154   4.018 -1.7341 -1.4839 -0.1881
 3119TIP3   OH230771   1.124   3.193   5.180  0.0084 -0.1543  0.7108
 3119TIP3    H130772   1.059   3.186   5.250 -1.1947 -0.4753 -0.3991
 3119TIP3    H230773   1.155   3.104   5.167  1.4445  0.1163  1.8780
 3120TIP3   OH230774   1.071   4.410   4.978  0.0748  0.0865 -0.0833
 3120TIP3    H130775   1.089   4.321   4.947  0.9821  0.6131 -1.1506
 3120TIP3    H230776   1.123   4.418   5.058  1.0679  0.0788 -0.7083
 3121TIP3   OH230777   4.263   2.428  12.198  0.5946 -0.2076 -0.9478
 3121TIP3    H130778   4.275   2.353  12.139  0.1091 -0.6188 -0.5427
 3121TIP3    H230779   4.351   2.456  12.220  0.8061 -1.3431 -0.2659
 3122TIP3   OH230780   2.411   5.517   5.563 -0.2663  0.3191  0.4527
 3122TIP3    H130781   2.354   5.575   5.513  0.9842 -0.3690 -1.9380
 3122TIP3    H230782   2.484   5.573   5.591  1.1988 -0.0252 -2.2799
 3123TIP3   OH230783   5.032   1.552   6.784  0.4956 -0.6942  0.0563
 3123TIP3    H130784   5.100   1.486   6.772  0.3308 -0.8645  0.0606
 3123TIP3    H230785   5.038   1.606   6.705  2.9194  1.3953  1.5243
 3124TIP3   OH230786   5.333   5.343  10.885 -0.5314 -0.2839 -0.3616
 3124TIP3    H130787   5.301   5.432  10.898 -0.2781 -0.0035 -1.5391
 3124TIP3    H230788   5.428   5.350  10.896 -0.4128 -0.2164 -1.3626
 3125TIP3   OH230789   5.410   0.473   6.093  0.2509  0.1475  0.4817
 3125TIP3    H130790   5.369   0.515   6.017 -0.0322 -0.2313  0.4209
 3125TIP3    H230791   5.338   0.434   6.141  0.5135 -0.3280  0.4996
 3126TIP3   OH230792   4.378   6.730  11.847 -0.5214  0.4546 -0.2060
 3126TIP3    H130793   4.448   6.774  11.798 -0.1757  1.3845  1.0470
 3126TIP3    H230794   4.404   6.741  11.939 -1.1676 -1.1913  0.1925
 3127TIP3   OH230795   5.010   0.608   1.669  0.4003 -0.4256 -0.3059
 3127TIP3    H130796   4.926   0.627   1.629  0.5965  1.3351  0.0156
 3127TIP3    H230797   5.075   0.640   1.606  0.7861 -0.6250 -0.0201
 3128TIP3   OH230798   0.514   5.555  15.535 -0.6158 -0.0212  0.2391
 3128TIP3    H130799   0.557   5.602  15.464 -1.0757  0.8035  0.4918
 3128TIP3    H230800   0.578   5.491  15.564  0.3331  0.9924  0.4221
 3129TIP3   OH230801   3.188   0.643  13.076 -0.7048  0.3786  0.0350
 3129TIP3    H130802   3.207   0.558  13.117  0.7852  0.2896 -0.7618
 3129TIP3    H230803   3.196   0.706  13.147  2.8983  0.3529 -0.1831
 3130TIP3   OH230804   3.414   3.350  15.185 -0.6781 -0.3440 -0.1036
 3130TIP3    H130805   3.437   3.427  15.133 -0.2238 -0.3446  0.0876
 3130TIP3    H230806   3.354   3.383  15.253  0.9546  0.2208  1.1308
 3131TIP3   OH230807   4.387   6.245  10.902 -0.4875 -0.2488 -0.5676
 3131TIP3    H130808   4.306   6.206  10.866 -0.9427  1.3469 -1.3639
 3131TIP3    H230809   4.399   6.200  10.986 -2.4988 -0.1878 -0.1768
 3132TIP3   OH230810   6.355   4.844  13.756  0.7406 -0.2719  0.1035
 3132TIP3    H130811   6.279   4.786  13.754 -0.3155  1.0530  0.0594
 3132TIP3    H230812   6.345   4.895  13.836 -0.6842  2.7242 -1.8151
 3133TIP3   OH230813   4.991   4.878  13.233  0.0757 -0.1136 -0.3918
 3133TIP3    H130814   5.039   4.801  13.265 -0.6401  0.3208  1.8915
 3133TIP3    H230815   4.949   4.847  13.153  1.3303 -1.5230 -0.5698
 3134TIP3   OH230816   0.120   5.395   3.052 -1.0124  0.0558 -0.2098
 3134TIP3    H130817   0.126   5.485   3.084  0.3460  0.2399 -0.9146
 3134TIP3    H230818   0.141   5.401   2.959  0.3927 -1.1303 -0.0030
 3135TIP3   OH230819   6.000   2.468   2.029  0.3508  0.2270  0.0547
 3135TIP3    H130820   6.003   2.401   1.960  0.6818 -2.3850  2.4202
 3135TIP3    H230821   5.907   2.473   2.053  0.6205 -1.5215  1.7032
 3136TIP3   OH230822   1.354   4.766  16.948  0.1866 -0.3149 -0.2729
 3136TIP3    H130823   1.284   4.831  16.952 -0.3426 -0.8524 -0.6612
 3136TIP3    H230824   1.390   4.774  16.859 -0.3565 -1.0356 -0.5655
 3137TIP3   OH230825   0.764   1.194  14.207  0.8759 -0.0478  0.1544
 3137TIP3    H130826   0.717   1.111  14.203 -1.9304  1.4438 -0.6351
 3137TIP3    H230827   0.696   1.261  14.195  3.0925  2.3542 -0.0005
 3138TIP3   OH230828   5.902   4.949  16.686 -0.2854  0.2062  0.0936
 3138TIP3    H130829   5.892   5.039  16.655 -1.1158  0.8154  1.9708
 3138TIP3    H230830   5.992   4.945  16.717 -0.5611  0.7415  0.9949
 3139TIP3   OH230831   5.506   4.975   0.920 -0.9023  0.5321 -0.7535
 3139TIP3    H130832   5.588   4.947   0.879  0.2469  0.6891  1.3089
 3139TIP3    H230833   5.438   4.943   0.861  0.5453 -1.8323 -1.2645
 3140TIP3   OH230834   6.456   0.476  15.860 -0.6866 -0.4426  0.4536
 3140TIP3    H130835   6.484   0.442  15.945 -1.3220  0.4246  1.0329
 3140TIP3    H230836   6.386   0.418  15.832 -0.0664 -1.0907  0.2277
 3141TIP3   OH230837   5.260   0.459   2.914  0.3958 -0.2564 -0.0934
 3141TIP3    H130838   5.283   0.379   2.961  1.1888  0.2438  0.3992
 3141TIP3    H230839   5.230   0.428   2.828  0.6394 -1.0813  0.1051
 3142TIP3   OH230840   5.079   4.094   1.699 -0.1887  0.3745 -0.6906
 3142TIP3    H130841   5.132   4.058   1.628 -1.3989  0.2539 -1.5596
 3142TIP3    H230842   4.994   4.051   1.689  0.1679 -1.2087  2.0853
 3143TIP3   OH230843   1.596   5.252   3.432 -0.1670 -0.1045  0.4315
 3143TIP3    H130844   1.561   5.246   3.520 -1.9251  2.4888  0.0212
 3143TIP3    H230845   1.555   5.180   3.384 -1.2290  0.0148  1.1395
 3144TIP3   OH230846   5.118   1.085  15.689  0.2818  0.5336 -0.0430
 3144TIP3    H130847   5.208   1.105  15.715 -0.0709 -1.3817  3.2293
 3144TIP3    H230848   5.065   1.140  15.745 -0.5895 -0.1436 -0.1866
 3145TIP3   OH230849   6.523   4.895  13.260 -0.9526  0.4145 -0.1588
 3145TIP3    H130850   6.454   4.850  13.211 -0.1129 -0.7266 -0.3200
 3145TIP3    H230851   6.560   4.957  13.196 -2.0294  1.2829  0.0306
 3146TIP3   OH230852   2.178   1.898  14.829  0.3223 -0.3907 -0.4462
 3146TIP3    H130853   2.083   1.890  14.836  0.2557 -0.6430 -1.4223
 3146TIP3    H230854   2.210   1.808  14.834  0.6855 -0.1776  1.7839
 3147TIP3   OH230855   0.970   5.861  11.341  0.0783 -0.6106 -0.4399
 3147TIP3    H130856   0.914   5.829  11.270 -2.0827  0.5352  0.6271
 3147TIP3    H230857   1.035   5.793  11.354 -1.8337 -2.6515 -0.9783
 3148TIP3   OH230858   5.884   1.698  15.907  0.3760  0.1043 -0.2102
 3148TIP3    H130859   5.816   1.759  15.876  0.2782  0.1961  0.1846
 3148TIP3    H230860   5.917   1.657  15.827 -0.9172 -0.7618 -0.3300
 3149TIP3   OH230861   1.725   2.039   0.065 -0.2601 -0.2558  0.3911
 3149TIP3    H130862   1.680   1.988  -0.002 -1.8724  0.2931  1.0225
 3149TIP3    H230863   1.655   2.077   0.118  0.9082  1.6271  0.6823
 3150TIP3   OH230864   0.002   2.796  17.197  0.3709 -0.4808  0.0198
 3150TIP3    H130865   0.027   2.858  17.266  1.3907 -0.1451 -0.6207
 3150TIP3    H230866  -0.082   2.830  17.165  0.8198  0.4791 -0.1899
 3151TIP3   OH230867   5.080   2.367   1.297 -0.3568 -0.1424  0.1237
 3151TIP3    H130868   5.116   2.441   1.347  0.0900  0.3247 -0.8559
 3151TIP3    H230869   5.143   2.354   1.226 -1.5715 -0.0245 -1.0024
 3152TIP3   OH230870   1.044   2.656  13.990  0.2382  0.2711 -0.4483
 3152TIP3    H130871   1.122   2.621  14.032  0.4630  2.1386  0.8494
 3152TIP3    H230872   0.980   2.663  14.061 -0.3893  0.7256 -1.0444
 3153TIP3   OH230873   5.877   2.028   1.611  0.5502 -0.0621 -0.4867
 3153TIP3    H130874   5.945   2.008   1.676 -0.1731 -0.4115  0.1918
 3153TIP3    H230875   5.795   2.012   1.658 -0.0147 -2.6813 -2.1584
 3154TIP3   OH230876   3.560   1.961   6.631 -0.0473  0.0651 -0.2994
 3154TIP3    H130877   3.464   1.957   6.631 -0.0517 -0.1647  0.9806
 3154TIP3    H230878   3.587   1.883   6.680  0.6986  1.6218  1.9147
 3155TIP3   OH230879   6.373   4.153   4.122 -0.3578 -0.0117 -0.4650
 3155TIP3    H130880   6.343   4.201   4.200 -0.3009  0.3143 -0.6408
 3155TIP3    H230881   6.358   4.061   4.143  2.4582 -0.1953  1.1628
 3156TIP3   OH230882   3.821   3.433   6.791  0.7161 -0.2560 -0.2328
 3156TIP3    H130883   3.862   3.491   6.855 -0.1254  0.2527 -0.1442
 3156TIP3    H230884   3.729   3.456   6.794  0.0315 -2.7670  1.0987
 3157TIP3   OH230885   3.353   5.665   4.860 -0.1791  0.6181  0.3513
 3157TIP3    H130886   3.395   5.656   4.775 -0.4603  0.6677  0.2074
 3157TIP3    H230887   3.398   5.739   4.901  2.0218 -1.2017  1.4692
 3158TIP3   OH230888   5.991   5.198   0.795  0.1475 -0.1852  0.1489
 3158TIP3    H130889   5.911   5.207   0.847 -0.3654  1.2840 -0.8661
 3158TIP3    H230890   5.963   5.158   0.713  0.3616  0.7239 -0.3818
 3159TIP3   OH230891   4.841   5.906  12.362 -0.5530 -0.3330  0.8044
 3159TIP3    H130892   4.857   5.955  12.443  1.4898 -1.5194  1.1675
 3159TIP3    H230893   4.746   5.909  12.351 -0.8462  0.1643  3.0413
 3160TIP3   OH230894   0.501   0.828  15.160 -0.1079 -0.3041  0.6791
 3160TIP3    H130895   0.434   0.809  15.226 -0.5152  2.1101  1.0695
 3160TIP3    H230896   0.576   0.775  15.186 -0.7164 -0.4445  2.3055
 3161TIP3   OH230897   3.928   6.032   1.830  0.1602  0.2582 -0.1959
 3161TIP3    H130898   3.974   5.951   1.809 -2.0292 -1.5289  1.3378
 3161TIP3    H230899   3.948   6.048   1.922  2.7132  3.1143 -1.0608
 3162TIP3   OH230900   5.344   5.741  11.637  0.3589  0.4281  0.1444
 3162TIP3    H130901   5.426   5.789  11.647  0.2320  0.5044  0.8430
 3162TIP3    H230902   5.276   5.808  11.645  0.1480  0.0471  1.9074
 3163TIP3   OH230903   2.849   0.917  15.574  0.3338  0.0913 -0.1931
 3163TIP3    H130904   2.765   0.888  15.540 -0.3411  0.5412  1.0256
 3163TIP3    H230905   2.905   0.925  15.497 -0.3074 -1.5736 -0.8643
 3164TIP3   OH230906   2.693   5.896  12.657  0.4351  0.3709  0.2562
 3164TIP3    H130907   2.671   5.956  12.586 -0.1679 -0.1351  0.0040
 3164TIP3    H230908   2.619   5.902  12.717  0.1346 -0.4735 -0.0129
 3165TIP3   OH230909   0.109   2.248  17.096  0.0447  0.1283 -0.7943
 3165TIP3    H130910   0.143   2.336  17.078 -3.4993  2.1558  1.2574
 3165TIP3    H230911   0.120   2.237  17.190 -2.2819 -0.2329 -0.5127
 3166TIP3   OH230912   6.373   1.280   0.270  0.0713 -0.3580 -0.4483
 3166TIP3    H130913   6.454   1.246   0.308  0.5604  0.7480 -0.4552
 3166TIP3    H230914   6.375   1.373   0.289 -2.1845 -0.5970  1.3161
 3167TIP3   OH230915   6.302   4.273   3.286  0.1631  0.4740 -0.5118
 3167TIP3    H130916   6.338   4.243   3.202  1.0824  2.5945 -0.9311
 3167TIP3    H230917   6.236   4.338   3.262 -1.1592 -0.4857  0.3876
 3168TIP3   OH230918   1.926   2.595  16.650 -0.3809  0.0369  0.6082
 3168TIP3    H130919   1.833   2.611  16.630 -0.6326  0.5990  2.0942
 3168TIP3    H230920   1.966   2.682  16.647  0.0340 -0.1672  0.2845
 3169TIP3   OH230921   2.488   0.860   5.264 -0.0224  0.1858  0.1571
 3169TIP3    H130922   2.549   0.792   5.291  0.0491  0.5139  0.8377
 3169TIP3    H230923   2.493   0.860   5.168  1.2885  0.4408  0.2095
 3170TIP3   OH230924   0.471   6.499  14.572 -0.1670 -0.0694 -0.1350
 3170TIP3    H130925   0.399   6.512  14.634  0.2516 -2.0458  0.8373
 3170TIP3    H230926   0.514   6.418  14.601  1.8041  0.4787 -1.3227
 3171TIP3   OH230927   0.377   4.528   5.839 -0.3334  0.0244 -0.3909
 3171TIP3    H130928   0.342   4.590   5.775 -0.8737 -0.9763 -1.0780
 3171TIP3    H230929   0.390   4.447   5.790  0.9176 -0.2538  0.3656
 3172TIP3   OH230930   4.617   2.099   2.967 -0.3394  0.0784  0.1136
 3172TIP3    H130931   4.636   2.155   3.043  0.9840  0.3119 -0.3662
 3172TIP3    H230932   4.694   2.043   2.959 -1.5479 -1.7432  0.4752
 3173TIP3   OH230933   4.055   3.334  16.383  0.3321 -0.2114  0.3259
 3173TIP3    H130934   4.023   3.244  16.375  1.1403 -0.3889 -1.7472
 3173TIP3    H230935   3.993   3.386  16.331 -0.4032  0.5422  1.9003
 3174TIP3   OH230936   4.327   0.282  16.544 -0.0396 -0.4530 -0.1537
 3174TIP3    H130937   4.392   0.341  16.507  1.3013 -2.3256 -0.9564
 3174TIP3    H230938   4.273   0.255  16.470 -2.2531  1.5484  0.5931
 3175TIP3   OH230939   0.978   2.509  14.245  0.9991  0.2094  0.0853
 3175TIP3    H130940   1.034   2.436  14.218  1.4059  1.0833 -1.5574
 3175TIP3    H230941   0.892   2.469  14.256  1.2927 -0.6103 -0.4062
 3176TIP3   OH230942   0.140   6.532  15.534  0.0408 -0.1749 -0.5600
 3176TIP3    H130943   0.132   6.541  15.439  1.3120  1.6364 -0.5410
 3176TIP3    H230944   0.071   6.471  15.558  0.0818 -1.1619 -2.7165
 3177TIP3   OH230945   3.755   0.922  12.279  0.1359 -0.5292 -0.1579
 3177TIP3    H130946   3.753   0.835  12.239  0.3580 -0.7761  0.3616
 3177TIP3    H230947   3.755   0.905  12.373 -2.8325  0.0740  0.0489
 3178TIP3   OH230948   3.191   3.254  11.481 -0.4140  0.0966  0.2297
 3178TIP3    H130949   3.271   3.304  11.470  0.2028 -0.6380  1.2061
 3178TIP3    H230950   3.131   3.289  11.415  1.1242 -0.2288 -1.3938
 3179TIP3   OH230951   5.137   3.596  14.099  0.3346  0.4365 -0.3238
 3179TIP3    H130952   5.089   3.581  14.180 -2.0543 -2.2845 -2.0302
 3179TIP3    H230953   5.070   3.620  14.035  1.6173 -0.5661 -2.1627
 3180TIP3   OH230954   2.344   0.760  13.224 -0.2733  0.4396  0.3270
 3180TIP3    H130955   2.261   0.782  13.182 -0.3790 -0.2067  0.1898
 3180TIP3    H230956   2.356   0.666  13.207  0.0879  0.3503  1.0378
 3181TIP3   OH230957   6.713   2.199  16.358 -0.1086  0.2066 -0.2152
 3181TIP3    H130958   6.797   2.178  16.398 -0.4228  0.2583  0.4810
 3181TIP3    H230959   6.649   2.146  16.406 -0.5559  0.6665 -0.2917
 3182TIP3   OH230960   5.707   0.892  16.659 -0.2445  0.6317  0.2542
 3182TIP3    H130961   5.627   0.841  16.676  0.6229 -0.8769  0.0442
 3182TIP3    H230962   5.760   0.879  16.737  0.0779  1.0793  0.1130
 3183TIP3   OH230963   6.262   0.547  17.066  0.2020 -0.0026 -0.4585
 3183TIP3    H130964   6.277   0.640  17.084  0.9606  0.0614 -1.3471
 3183TIP3    H230965   6.220   0.514  17.145 -1.9686  1.5155 -0.8869
 3184TIP3   OH230966   5.424   0.901  11.864  0.1274  0.2353 -0.7063
 3184TIP3    H130967   5.407   0.924  11.956 -0.9035 -1.4573 -0.4391
 3184TIP3    H230968   5.503   0.848  11.866 -0.1231 -0.1403 -0.7463
 3185TIP3   OH230969   0.145   0.385  16.448 -0.2713 -0.3306  0.1767
 3185TIP3    H130970   0.089   0.345  16.515 -2.4323  1.9342 -0.1259
 3185TIP3    H230971   0.140   0.479  16.466  0.3184  0.2218 -2.2289
 3186TIP3   OH230972   0.300   1.930  17.162 -0.3868 -0.3948  0.2625
 3186TIP3    H130973   0.291   1.943  17.256  0.0580 -0.6629  0.3454
 3186TIP3    H230974   0.274   2.014  17.123 -1.3108 -0.5192  0.5775
 3187TIP3   OH230975   4.725   1.987  12.062  0.0167 -0.4057  0.1212
 3187TIP3    H130976   4.714   2.062  12.004  1.2476 -0.7294 -0.5548
 3187TIP3    H230977   4.698   2.019  12.149  0.7052  0.8638 -0.1179
 3188TIP3   OH230978   2.516   6.441   1.888 -0.6396 -0.0207  0.1909
 3188TIP3    H130979   2.589   6.390   1.921  0.3520  1.1587 -0.1021
 3188TIP3    H230980   2.530   6.443   1.793 -1.0195  0.2756  0.1397
 3189TIP3   OH230981   0.509   6.719   2.055  0.0019  0.2120  0.6127
 3189TIP3    H130982   0.551   6.719   2.141 -0.5267  3.6543  1.0167
 3189TIP3    H230983   0.416   6.710   2.074  0.0665 -2.5771  0.0437
 3190TIP3   OH230984   2.449   6.195   5.217 -0.0386 -0.0493 -0.0667
 3190TIP3    H130985   2.381   6.259   5.197 -0.3760 -0.3854 -0.0106
 3190TIP3    H230986   2.521   6.246   5.255  0.7867  0.6735 -2.4254
 3191TIP3   OH230987   3.746   2.651   4.283 -0.5679 -0.5886 -0.7200
 3191TIP3    H130988   3.794   2.699   4.350  1.7065 -1.5274 -1.6026
 3191TIP3    H230989   3.722   2.718   4.218  1.5077 -0.3888 -1.3386
 3192TIP3   OH230990   1.329   4.856  15.931 -0.0529  0.2715 -0.0082
 3192TIP3    H130991   1.278   4.779  15.910  0.6701 -0.0919 -0.4652
 3192TIP3    H230992   1.312   4.872  16.024  0.2549 -0.7884  0.2360
 3193TIP3   OH230993   0.034   6.616   5.012 -0.0636 -0.0062 -0.0995
 3193TIP3    H130994   0.027   6.638   5.105  0.0612 -1.1059  0.1915
 3193TIP3    H230995  -0.032   6.671   4.969  1.0315  1.7716  0.3899
 3194TIP3   OH230996   5.429   0.187  10.660 -0.0296 -0.1826 -1.1881
 3194TIP3    H130997   5.521   0.214  10.664  0.0406 -0.3594 -1.5368
 3194TIP3    H230998   5.428   0.118  10.593 -0.2408 -0.9230 -0.4357
 3195TIP3   OH230999   3.412   3.125   6.004 -0.5451 -0.2620  0.4660
 3195TIP3    H131000   3.367   3.080   6.075  0.0748 -0.7118  0.5823
 3195TIP3    H231001   3.492   3.074   5.990 -0.8169 -0.3632 -0.7767
 3196TIP3   OH231002   1.661   4.127  14.133  0.2762 -0.1656 -0.5766
 3196TIP3    H131003   1.657   4.043  14.087  1.6131 -1.3845  1.3696
 3196TIP3    H231004   1.571   4.146  14.158  0.0035 -1.2406 -0.7029
 3197TIP3   OH231005   0.507   5.273  16.319  0.2588 -0.0998  0.1570
 3197TIP3    H131006   0.496   5.365  16.296 -0.0737 -0.0215  0.6005
 3197TIP3    H231007   0.570   5.239  16.256  0.0008  0.3062 -0.3239
 3198TIP3   OH231008   3.775   5.237  15.932  0.2883  0.2061 -1.1608
 3198TIP3    H131009   3.753   5.161  15.987 -1.5101  0.7393 -1.0970
 3198TIP3    H231010   3.869   5.227  15.916  0.1451 -1.9601 -1.0437
 3199TIP3   OH231011   0.561   3.705  14.881 -0.7892 -0.3001  0.0271
 3199TIP3    H131012   0.559   3.800  14.890 -1.3651 -0.3613  0.6567
 3199TIP3    H231013   0.653   3.682  14.885 -0.6739  0.2002  0.2912
 3200TIP3   OH231014   1.964   4.907   3.383 -0.3973  0.5722 -0.0997
 3200TIP3    H131015   1.923   4.892   3.298  0.3735 -0.5814 -0.2787
 3200TIP3    H231016   1.916   4.850   3.443 -0.0081  0.3244 -0.0255
 3201TIP3   OH231017   1.218   3.835   3.409  0.1814 -0.3248 -0.1248
 3201TIP3    H131018   1.299   3.803   3.450  1.4717  1.8836 -0.7940
 3201TIP3    H231019   1.168   3.872   3.482  1.0040  0.6695 -0.0385
 3202TIP3   OH231020   3.406   4.095  15.714  0.0860 -0.5836  0.5409
 3202TIP3    H131021   3.476   4.074  15.777  1.2567 -0.7394 -0.7462
 3202TIP3    H231022   3.356   4.014  15.707  1.0881 -1.1724 -0.1011
 3203TIP3   OH231023   1.237   2.303   5.622  0.4851 -0.1276  0.3814
 3203TIP3    H131024   1.200   2.261   5.699 -2.0491 -2.5676 -1.9793
 3203TIP3    H231025   1.313   2.249   5.600  0.1784 -0.4962  0.2083
 3204TIP3   OH231026   6.693   5.482   1.621  0.2245  0.2815  0.2025
 3204TIP3    H131027   6.711   5.444   1.535 -1.3247 -0.5728  0.2160
 3204TIP3    H231028   6.646   5.414   1.668 -0.2636  1.2764  1.2041
 3205TIP3   OH231029   3.136   4.265  13.498 -0.0623 -0.4632  0.4311
 3205TIP3    H131030   3.106   4.242  13.410 -0.7270 -2.0102  1.0163
 3205TIP3    H231031   3.118   4.359  13.506 -0.0232 -0.3039 -1.0542
 3206TIP3   OH231032   3.264   0.164  16.064  0.8658  0.0671  0.2075
 3206TIP3    H131033   3.285   0.071  16.074  1.5953 -0.0923 -2.2767
 3206TIP3    H231034   3.291   0.186  15.975 -0.4086  2.3754  0.3034
 3207TIP3   OH231035   5.282   1.562   6.437  0.2715 -0.3516 -0.1777
 3207TIP3    H131036   5.194   1.591   6.462 -0.3046  1.0499 -3.2828
 3207TIP3    H231037   5.325   1.640   6.403  1.8222 -1.4949 -1.0188
 3208TIP3   OH231038   3.261   4.753   2.326  0.4655  0.5776 -0.5341
 3208TIP3    H131039   3.331   4.805   2.287  1.0628  0.2431  0.0834
 3208TIP3    H231040   3.234   4.693   2.256  0.1976  1.2869 -1.0465
 3209TIP3   OH231041   1.695   3.849   2.290  0.1691  0.0611 -1.1199
 3209TIP3    H131042   1.718   3.833   2.198  1.4351 -0.4870 -0.7212
 3209TIP3    H231043   1.759   3.800   2.340 -0.0276  0.9852  0.0819
 3210TIP3   OH231044   3.225   2.226  13.461  0.7355 -0.3558  0.5183
 3210TIP3    H131045   3.293   2.179  13.412  1.3401  0.2238  0.7730
 3210TIP3    H231046   3.270   2.258  13.540  0.1776  0.0886  0.6658
 3211TIP3   OH231047   0.412   5.507   4.109 -0.3782 -0.0271  0.0993
 3211TIP3    H131048   0.404   5.424   4.063 -2.6789 -0.4583  1.1170
 3211TIP3    H231049   0.356   5.567   4.061  1.4800  1.0524 -0.7828
 3212TIP3   OH231050   6.207   5.812  14.440 -0.1534  0.5715  0.4253
 3212TIP3    H131051   6.112   5.821  14.435 -0.1445  0.7483  0.5807
 3212TIP3    H231052   6.240   5.901  14.449 -0.0130  0.4639  1.0294
 3213TIP3   OH231053   4.342   3.944   0.857  0.3144 -0.1830 -0.2109
 3213TIP3    H131054   4.336   3.979   0.946 -1.2017  1.3889 -0.8630
 3213TIP3    H231055   4.409   3.997   0.815 -1.0180  1.0918 -0.8041
 3214TIP3   OH231056   6.401   3.043  15.473  0.7910  0.0911  0.0092
 3214TIP3    H131057   6.360   2.965  15.435  0.5506 -0.1593  0.7647
 3214TIP3    H231058   6.452   3.080  15.402 -2.1617  1.4359 -1.5593
 3215TIP3   OH231059   0.025   6.100   6.189  0.1486  0.3402 -0.0075
 3215TIP3    H131060  -0.055   6.059   6.156 -0.2846  1.1506 -0.0215
 3215TIP3    H231061   0.081   6.028   6.214 -0.6623 -0.2516  0.1517
 3216TIP3   OH231062   2.308   2.638  16.128  0.2913 -0.3168 -0.7461
 3216TIP3    H131063   2.390   2.669  16.168 -0.2182 -0.1288  0.1770
 3216TIP3    H231064   2.290   2.702  16.059 -0.6144  1.4013  0.9704
 3217TIP3   OH231065   1.266   3.986   5.489 -0.7646  0.1429 -0.6426
 3217TIP3    H131066   1.193   3.927   5.469 -1.0243 -1.1981  3.4263
 3217TIP3    H231067   1.331   3.930   5.533  0.1186  2.3585  1.0622
 3218TIP3   OH231068   5.737   0.088   5.827 -0.0882 -0.3422 -0.2850
 3218TIP3    H131069   5.733   0.152   5.899  1.7530  1.0388 -1.3104
 3218TIP3    H231070   5.760   0.006   5.870 -0.6994  0.0647  0.8807
 3219TIP3   OH231071   4.730   0.613   4.659 -0.3171  0.0658  0.4066
 3219TIP3    H131072   4.802   0.657   4.614 -0.7953  2.1267  1.5265
 3219TIP3    H231073   4.653   0.637   4.608 -0.4875 -0.2081  0.5341
 3220TIP3   OH231074   5.230   6.087  11.232  0.2560 -0.0886  0.4366
 3220TIP3    H131075   5.320   6.053  11.230 -0.1432 -1.2815 -2.4658
 3220TIP3    H231076   5.175   6.008  11.229 -0.7875  0.6367 -1.1169
 3221TIP3   OH231077   3.430   5.276  15.777 -0.4466 -0.2703  0.1293
 3221TIP3    H131078   3.526   5.276  15.774 -0.3423  0.1979  2.3184
 3221TIP3    H231079   3.405   5.352  15.724  0.4455  0.3441  0.5553
 3222TIP3   OH231080   5.036   6.749   0.470 -0.1814  0.5286  0.2518
 3222TIP3    H131081   5.123   6.710   0.467 -0.8100 -0.9832  0.7438
 3222TIP3    H231082   5.041   6.824   0.411  1.0419 -0.3560 -0.8179
 3223TIP3   OH231083   6.594   1.888  11.201 -0.3778 -0.4098  0.1748
 3223TIP3    H131084   6.653   1.963  11.203 -1.7243  0.6932 -0.1999
 3223TIP3    H231085   6.542   1.897  11.281  0.8725 -2.1928  1.2819
 3224TIP3   OH231086   0.890   0.818  16.882  0.5202  0.7325  0.2534
 3224TIP3    H131087   0.934   0.753  16.828  0.3405  0.4488  0.4482
 3224TIP3    H231088   0.853   0.769  16.955 -2.0812  0.5719 -1.0556
 3225TIP3   OH231089   6.542   3.244   0.132  0.0962 -0.1730  0.2407
 3225TIP3    H131090   6.505   3.267   0.217  0.1341 -2.1431  0.8416
 3225TIP3    H231091   6.637   3.251   0.144  0.1623 -1.4854  0.7492
 3226TIP3   OH231092   0.683   3.726   1.928  0.6616 -0.0849 -0.1819
 3226TIP3    H131093   0.636   3.801   1.890  1.5338 -0.1218 -1.4003
 3226TIP3    H231094   0.701   3.752   2.018 -0.0999  0.6750 -0.2390
 3227TIP3   OH231095   5.254   1.174  15.160 -0.1738  0.2299 -0.1872
 3227TIP3    H131096   5.267   1.171  15.255 -0.9471 -1.0231 -0.0894
 3227TIP3    H231097   5.340   1.157  15.123  0.5037  2.4622  0.2333
 3228TIP3   OH231098   6.467   4.035   4.694  0.1761 -0.5952  0.8199
 3228TIP3    H131099   6.382   4.071   4.671 -0.0700 -1.3869  0.4541
 3228TIP3    H231100   6.530   4.094   4.652 -0.2482 -1.5900 -1.3381
 3229TIP3   OH231101   5.038   4.525   5.786  0.3207 -0.2453  0.5776
 3229TIP3    H131102   5.011   4.471   5.860 -0.3398 -1.1976 -0.3275
 3229TIP3    H231103   5.045   4.464   5.713 -0.2536  0.8602 -0.4377
 3230TIP3   OH231104   0.579   4.815   2.521  0.0683 -0.5717 -0.1359
 3230TIP3    H131105   0.660   4.767   2.506  1.1377  1.1878 -0.3185
 3230TIP3    H231106   0.601   4.878   2.590 -0.4210  1.4744 -1.7490
 3231TIP3   OH231107   0.328   2.480   2.062 -0.0884 -0.4726 -0.4647
 3231TIP3    H131108   0.393   2.540   2.027 -0.1350 -0.5082 -0.6126
 3231TIP3    H231109   0.379   2.408   2.099 -0.0338 -0.3504 -0.3025
 3232TIP3   OH231110   2.553   6.487  11.744 -0.1276  0.5749  0.1742
 3232TIP3    H131111   2.483   6.423  11.760  0.7206 -0.2904  0.5311
 3232TIP3    H231112   2.631   6.433  11.730  0.8517  1.5651  1.6409
 3233TIP3   OH231113   2.302   5.885   4.509 -0.2289 -0.5937  0.3793
 3233TIP3    H131114   2.253   5.916   4.585 -3.5086 -0.6718 -1.5459
 3233TIP3    H231115   2.304   5.959   4.449  1.4528 -0.8518  0.0593
 3234TIP3   OH231116   2.470   6.777   0.237  0.1175  0.0086 -0.7054
 3234TIP3    H131117   2.517   6.706   0.281 -0.6930  0.5241  1.0812
 3234TIP3    H231118   2.378   6.757   0.251 -0.1266  2.1253  1.1188
 3235TIP3   OH231119   0.990   4.318   6.621 -0.0094 -0.0558  0.2609
 3235TIP3    H131120   0.913   4.290   6.571  0.7953  0.2842 -1.2093
 3235TIP3    H231121   0.996   4.412   6.607  0.5175 -0.0307  0.6008
 3236TIP3   OH231122   1.522   1.548   2.714 -0.2879 -0.0510  0.2576
 3236TIP3    H131123   1.530   1.610   2.642 -0.7234  0.3573  0.5501
 3236TIP3    H231124   1.432   1.560   2.747 -0.4831 -1.0398  0.1362
 3237TIP3   OH231125   4.587   6.233   4.282  0.4835  0.4964 -0.8112
 3237TIP3    H131126   4.533   6.305   4.313  0.0569  0.2586 -0.9914
 3237TIP3    H231127   4.530   6.183   4.223  1.3254  1.0449 -2.1562
 3238TIP3   OH231128   4.792   2.085   0.513  0.5017 -0.2378 -0.6150
 3238TIP3    H131129   4.851   2.010   0.519 -0.0653 -0.6247  0.2770
 3238TIP3    H231130   4.839   2.148   0.458  0.5587 -1.6344 -2.2692
 3239TIP3   OH231131   5.015   1.542  12.481 -0.6561  0.0644  0.7005
 3239TIP3    H131132   5.057   1.595  12.413 -1.6162  0.0676  0.0918
 3239TIP3    H231133   5.076   1.547  12.555  0.4098  0.0592 -0.1419
 3240TIP3   OH231134   0.862   3.498   3.922  0.1767 -0.3812  0.0057
 3240TIP3    H131135   0.843   3.551   3.845 -1.1002 -1.4483 -0.4434
 3240TIP3    H231136   0.839   3.409   3.896  2.3214 -1.2208  0.7114
 3241TIP3   OH231137   0.066   2.011   2.687 -0.2574 -0.0941  0.0484
 3241TIP3    H131138  -0.002   2.071   2.655 -0.4550  0.8464  2.0741
 3241TIP3    H231139   0.022   1.926   2.691 -1.4789  0.5619  1.6531
 3242TIP3   OH231140   3.788   0.061  12.979 -0.4225 -0.1310  0.2553
 3242TIP3    H131141   3.707   0.110  12.994 -0.6431  0.1636 -1.7263
 3242TIP3    H231142   3.761  -0.013  12.925  0.5580 -0.3138  0.0083
 3243TIP3   OH231143   2.166   1.783   0.209 -0.3486  0.3142 -0.1032
 3243TIP3    H131144   2.169   1.863   0.262 -1.9119 -0.2132  0.8465
 3243TIP3    H231145   2.101   1.802   0.142  0.1104  0.2196 -0.5857
 3244TIP3   OH231146   1.084   2.373   1.024  0.1841  0.2055 -0.0582
 3244TIP3    H131147   1.114   2.324   0.948  1.4990 -2.7383  2.1499
 3244TIP3    H231148   0.990   2.384   1.010 -0.0966 -2.6134 -0.9633
 3245TIP3   OH231149   0.480   1.215   3.821  0.1692 -0.2495 -0.3986
 3245TIP3    H131150   0.446   1.151   3.758  0.2837 -0.1344 -0.5770
 3245TIP3    H231151   0.554   1.255   3.777 -0.0704  0.2055 -0.3935
 3246TIP3   OH231152   1.352   6.719   5.206  0.2416  0.3111 -0.4401
 3246TIP3    H131153   1.441   6.704   5.174 -0.0734 -0.3760 -1.0014
 3246TIP3    H231154   1.357   6.804   5.250  1.3693 -0.0928  0.2564
 3247TIP3   OH231155   1.128   2.103  14.222 -0.0932  0.1316 -0.0163
 3247TIP3    H131156   1.214   2.061  14.222  0.5002  1.2191 -1.7305
 3247TIP3    H231157   1.094   2.089  14.134  0.4271  3.6462 -0.9259
 3248TIP3   OH231158   5.812   6.439  12.763 -0.6136 -0.0027  0.9477
 3248TIP3    H131159   5.889   6.465  12.712 -0.0442 -1.2860  1.0916
 3248TIP3    H231160   5.801   6.509  12.827 -0.4173  0.8899  0.0378
 3249TIP3   OH231161   4.075   1.642  15.037  0.4168 -0.3870  0.9997
 3249TIP3    H131162   4.074   1.565  14.981 -1.6776 -0.1214  0.5906
 3249TIP3    H231163   4.133   1.703  14.991  0.5163 -0.9965  0.2887
 3250TIP3   OH231164   2.908   5.426  15.395  0.0761 -0.3747 -0.2393
 3250TIP3    H131165   2.981   5.370  15.422  1.6334  0.7333 -1.8631
 3250TIP3    H231166   2.945   5.515  15.397 -1.6548  0.3703  0.1640
 3251TIP3   OH231167   5.349   4.555   1.434  0.3171  1.3052  0.1797
 3251TIP3    H131168   5.364   4.605   1.514  2.0498  0.0829  0.6875
 3251TIP3    H231169   5.431   4.508   1.420 -0.8910 -0.6207 -0.8137
 3252TIP3   OH231170   2.404   4.908   0.958  0.3880 -0.5402  0.2111
 3252TIP3    H131171   2.424   4.991   0.915  4.4826 -0.6885  1.3579
 3252TIP3    H231172   2.486   4.859   0.955 -1.6917 -4.4420  0.0247
 3253TIP3   OH231173   0.165   2.812   4.085  0.5819  0.0267 -0.2105
 3253TIP3    H131174   0.227   2.815   4.012  0.7218 -1.1445 -0.1599
 3253TIP3    H231175   0.129   2.723   4.082  0.3729  0.0622  0.9635
 3254TIP3   OH231176   2.988   6.275  15.795 -0.1141  0.4709 -0.1314
 3254TIP3    H131177   2.912   6.248  15.744  0.7952 -1.8344 -0.3652
 3254TIP3    H231178   3.055   6.295  15.729 -0.5179  2.7845  0.0582
 3255TIP3   OH231179   4.867   0.317   0.077  0.1846 -0.4357  0.6537
 3255TIP3    H131180   4.861   0.339   0.170  0.4906 -2.4336  1.1892
 3255TIP3    H231181   4.791   0.261   0.061 -0.3091  0.5266 -0.5184
 3256TIP3   OH231182   1.544   3.194   5.926 -0.5209 -0.1956 -0.6730
 3256TIP3    H131183   1.621   3.241   5.895 -0.2549 -0.6837 -0.7531
 3256TIP3    H231184   1.473   3.258   5.921  0.3655  1.1263  1.9400
 3257TIP3   OH231185   5.001   0.554   5.109 -0.3254  0.0413  0.9950
 3257TIP3    H131186   5.080   0.604   5.125 -0.0216 -0.7634  2.1846
 3257TIP3    H231187   5.025   0.490   5.042 -0.2936  0.5089  0.5573
 3258TIP3   OH231188   5.475   4.659  14.697  0.4423  0.6630  0.2435
 3258TIP3    H131189   5.437   4.571  14.690 -2.2046  1.3100  3.8812
 3258TIP3    H231190   5.564   4.648  14.662 -0.0321 -3.2164 -0.2847
 3259TIP3   OH231191   6.689   6.704  15.883  0.2583 -0.3557  0.0162
 3259TIP3    H131192   6.777   6.677  15.857  0.2862 -1.8981  1.4904
 3259TIP3    H231193   6.702   6.782  15.936  0.6098  0.1191 -0.7535
 3260TIP3   OH231194   1.377   2.551  12.148 -0.1029 -0.0905 -0.3376
 3260TIP3    H131195   1.290   2.510  12.150  0.0859 -0.4853  0.7434
 3260TIP3    H231196   1.437   2.482  12.176  0.4439  0.4413 -0.1619
 3261TIP3   OH231197   0.872   6.714   1.505  0.7670  0.2039 -0.0961
 3261TIP3    H131198   0.889   6.800   1.468  1.7778  0.3778  0.7218
 3261TIP3    H231199   0.847   6.660   1.430 -1.4070  1.5490 -0.4336
 3262TIP3   OH231200   4.786   4.286  16.084  0.3001 -0.0003  0.4007
 3262TIP3    H131201   4.850   4.329  16.141 -0.3004  1.9533 -0.3051
 3262TIP3    H231202   4.720   4.251  16.145  0.9120 -0.1137  1.0154
 3263TIP3   OH231203   5.779   3.204  15.306 -0.8993 -0.2196  0.4204
 3263TIP3    H131204   5.687   3.190  15.329 -0.5331 -1.9775  1.0013
 3263TIP3    H231205   5.787   3.299  15.296 -2.7370 -0.0170  0.4876
 3264TIP3   OH231206   6.728   5.130  12.425 -0.1852 -0.9982 -0.2709
 3264TIP3    H131207   6.644   5.175  12.419  0.1323 -0.3300  0.1536
 3264TIP3    H231208   6.749   5.107  12.334  0.4151  1.1755 -0.7350
 3265TIP3   OH231209   0.495   2.843   2.980 -0.2879  0.1280 -0.3609
 3265TIP3    H131210   0.506   2.809   3.069 -0.5221 -0.4123 -0.5311
 3265TIP3    H231211   0.491   2.938   2.991 -0.3506  0.0656  0.2103
 3266TIP3   OH231212   5.391   0.932   5.606  0.0519  0.3628 -0.1167
 3266TIP3    H131213   5.454   0.864   5.629  0.0580 -0.0876 -1.3956
 3266TIP3    H231214   5.441   0.995   5.554 -0.1048  1.0257  0.5189
 3267TIP3   OH231215   0.279   5.513  12.950  0.0505 -0.0324 -0.0890
 3267TIP3    H131216   0.278   5.605  12.923  2.3141 -0.3224 -1.4139
 3267TIP3    H231217   0.299   5.464  12.870  0.3213 -1.5485  0.8613
 3268TIP3   OH231218   5.697   2.301  12.895  0.7075 -0.4823 -0.1923
 3268TIP3    H131219   5.682   2.306  12.990  0.2813  0.3308 -0.3004
 3268TIP3    H231220   5.648   2.223  12.868 -2.3349  1.2858 -0.2902
 3269TIP3   OH231221   1.466   6.770   3.337 -0.3832 -0.3172  0.2654
 3269TIP3    H131222   1.502   6.801   3.254  1.0774 -0.5848  0.7663
 3269TIP3    H231223   1.472   6.675   3.332 -0.3952 -0.3385  0.6234
 3270TIP3   OH231224   4.807   3.872   2.859  0.5132 -0.3936 -0.1110
 3270TIP3    H131225   4.747   3.812   2.815 -0.4424 -0.5195  1.3239
 3270TIP3    H231226   4.760   3.901   2.937  2.4165 -0.6735  1.1965
 3271TIP3   OH231227   4.472   0.480   0.894  0.2019 -0.2367  0.5882
 3271TIP3    H131228   4.400   0.417   0.895 -0.4734  0.4714 -0.5589
 3271TIP3    H231229   4.493   0.491   0.801  1.7560 -0.3605  0.8864
 3272TIP3   OH231230   1.669   6.478  17.019  0.6363  0.1174  0.4380
 3272TIP3    H131231   1.627   6.564  17.024  0.5143  0.0341  0.8653
 3272TIP3    H231232   1.763   6.498  17.026  0.6969  0.3298 -0.8395
 3273TIP3   OH231233   0.217   6.160  17.050  0.4046  0.4957  0.7981
 3273TIP3    H131234   0.231   6.143  16.956  0.8466 -0.7616  1.0677
 3273TIP3    H231235   0.299   6.200  17.079 -0.1455  1.9333  0.4345
 3274TIP3   OH231236   5.041   4.265  17.194 -0.4143 -0.3472  0.6863
 3274TIP3    H131237   5.035   4.360  17.206  0.4613 -0.4326  2.1010
 3274TIP3    H231238   5.065   4.254  17.102 -1.4602  0.7421  0.2516
 3275TIP3   OH231239   5.910   6.556   4.722  0.2734  0.0884  0.3018
 3275TIP3    H131240   5.872   6.635   4.759 -1.0052 -0.8466  1.0199
 3275TIP3    H231241   5.971   6.589   4.655 -0.0812  1.6691  0.7091
 3276TIP3   OH231242   0.146   2.004  15.155  0.5397  0.3332 -0.1464
 3276TIP3    H131243   0.052   2.001  15.139  0.6879  0.7933 -1.1723
 3276TIP3    H231244   0.155   2.044  15.242 -0.2303 -0.5940  0.3821
 3277TIP3   OH231245   5.735   1.143   2.518 -0.4462  0.1834  0.4926
 3277TIP3    H131246   5.825   1.113   2.510 -0.5284 -0.0707  0.5128
 3277TIP3    H231247   5.700   1.094   2.592 -0.2376  1.1847  1.2775
 3278TIP3   OH231248   1.734   0.083  15.749  0.2010  0.3869 -0.2712
 3278TIP3    H131249   1.639   0.094  15.756  0.2689  1.6516 -0.9149
 3278TIP3    H231250   1.754   0.009  15.805 -1.0006  0.9986  1.0355
 3279TIP3   OH231251   3.052   3.480  12.133  0.1780  0.0288 -0.3871
 3279TIP3    H131252   3.022   3.558  12.086 -0.2741 -0.3255 -0.6958
 3279TIP3    H231253   3.007   3.484  12.217 -1.4774 -0.9602 -1.1760
 3280TIP3   OH231254   6.439   1.610  15.936  0.3208 -0.1272  0.0805
 3280TIP3    H131255   6.459   1.562  15.855 -1.4279  1.0251 -1.1216
 3280TIP3    H231256   6.502   1.681  15.937  0.3417 -0.1361 -0.3048
 3281TIP3   OH231257   5.957   0.876  10.797  0.1127  0.3712  0.5826
 3281TIP3    H131258   5.903   0.807  10.834 -1.1876  2.3461  2.6217
 3281TIP3    H231259   6.047   0.850  10.816 -0.3683 -0.5603  1.6333
 3282TIP3   OH231260   2.459   3.068  12.101  0.5811  0.1226  0.5668
 3282TIP3    H131261   2.495   2.980  12.094  1.6230  0.5966 -0.2081
 3282TIP3    H231262   2.523   3.125  12.059 -0.8393  1.0720 -0.4482
 3283TIP3   OH231263   4.053   4.928   3.022  0.0455  0.3437 -0.1128
 3283TIP3    H131264   4.114   4.903   3.090 -0.4772 -0.0101  0.2378
 3283TIP3    H231265   3.966   4.916   3.062 -0.3372 -1.6216 -1.3851
 3284TIP3   OH231266   5.123   4.112  16.583  0.2558  0.1283  0.4844
 3284TIP3    H131267   5.125   4.050  16.655 -0.0330  1.1996  1.4474
 3284TIP3    H231268   5.037   4.102  16.544 -0.1675  0.5937  1.2670
 3285TIP3   OH231269   4.552   5.243   4.355 -0.1015  0.4724  0.6825
 3285TIP3    H131270   4.562   5.150   4.333 -1.0249  0.1025  1.7451
 3285TIP3    H231271   4.472   5.270   4.310  1.4698  1.4795 -1.7369
 3286TIP3   OH231272   2.738   0.013  11.631 -0.3628 -0.0548  0.0957
 3286TIP3    H131273   2.785  -0.068  11.609 -0.3971  0.5703 -2.6228
 3286TIP3    H231274   2.646  -0.010  11.626 -0.4134 -0.4042  1.8752
 3287TIP3   OH231275   5.562   5.187  12.677 -0.4809  0.4594  0.4245
 3287TIP3    H131276   5.625   5.176  12.606 -1.6037  1.3294 -0.7291
 3287TIP3    H231277   5.607   5.150  12.754  1.2968  0.7465 -0.4257
 3288TIP3   OH231278   2.485   3.251  13.192 -0.3641 -0.2837  0.2073
 3288TIP3    H131279   2.509   3.320  13.254  0.3099  1.1439 -1.5455
 3288TIP3    H231280   2.394   3.232  13.211 -0.4478  0.8105  0.9979
 3289TIP3   OH231281   6.251   0.327  11.578 -0.5120  0.1739  0.5043
 3289TIP3    H131282   6.158   0.348  11.572 -0.3895  0.4269 -0.9376
 3289TIP3    H231283   6.290   0.402  11.623 -0.9764  0.1232  1.0054
 3290TIP3   OH231284   5.633   6.652   4.276 -0.1062  0.1009 -0.2296
 3290TIP3    H131285   5.562   6.604   4.233  1.7758 -1.6025 -1.6624
 3290TIP3    H231286   5.620   6.743   4.249 -1.3590 -0.2675 -0.9763
 3291TIP3   OH231287   2.436   4.817  16.532 -0.1222  0.3091 -0.2690
 3291TIP3    H131288   2.433   4.721  16.531  0.9790  0.2673 -0.7019
 3291TIP3    H231289   2.491   4.840  16.458 -0.7137  1.3051 -0.4113
 3292TIP3   OH231290   5.412   4.509  13.791 -0.3447  0.3297  0.5980
 3292TIP3    H131291   5.318   4.522  13.787 -0.1763  1.6775  0.6650
 3292TIP3    H231292   5.439   4.547  13.874  0.1678 -0.8248  0.9944
 3293TIP3   OH231293   6.618   5.905  11.828 -0.3045  0.3489  0.1392
 3293TIP3    H131294   6.654   5.982  11.871 -0.4277 -0.7761  2.4176
 3293TIP3    H231295   6.695   5.857  11.795 -0.1322  0.6872  0.0443
 3294TIP3   OH231296   6.160   6.569  12.015 -0.2667  0.4022  0.2613
 3294TIP3    H131297   6.087   6.615  12.057 -0.5797  0.2863 -0.1465
 3294TIP3    H231298   6.234   6.630  12.023 -0.9028  1.4068 -1.1084
 3295TIP3   OH231299   3.599   1.646  10.763  0.0559  0.6278  0.4038
 3295TIP3    H131300   3.637   1.635  10.676  1.3700  0.5787  0.9498
 3295TIP3    H231301   3.508   1.618  10.754  0.2986  0.1839 -0.8416
 3296TIP3   OH231302   6.622   1.445   1.816  0.3426 -0.0541 -0.1848
 3296TIP3    H131303   6.650   1.517   1.759  0.0626  0.0924 -0.1410
 3296TIP3    H231304   6.621   1.368   1.759  0.0496  0.0933 -0.3857
 3297TIP3   OH231305   3.410   0.030   5.630  0.0396 -0.4299 -0.3560
 3297TIP3    H131306   3.505   0.022   5.633 -0.0399 -1.0532  1.0793
 3297TIP3    H231307   3.390   0.042   5.537  1.7748  3.2088 -0.4323
 3298TIP3   OH231308   0.169   2.893  16.937  0.3060  0.2622  0.0895
 3298TIP3    H131309   0.232   2.847  16.881 -2.6221 -1.7222 -1.8422
 3298TIP3    H231310   0.084   2.879  16.894 -1.5429  2.5756  2.6579
 3299TIP3   OH231311   2.864   4.375  16.013  0.1122 -0.0573  0.4015
 3299TIP3    H131312   2.919   4.426  15.953  0.5109 -1.5382 -0.5496
 3299TIP3    H231313   2.825   4.308  15.958 -2.1210  0.5143  1.2104
 3300TIP3   OH231314   4.755   5.112   3.957  0.3844  0.3754  0.1982
 3300TIP3    H131315   4.838   5.105   4.004  0.9404 -2.6010 -0.9923
 3300TIP3    H231316   4.768   5.185   3.896  1.6086  0.8321  0.9756
 3301TIP3   OH231317   2.689   1.599  13.572 -0.8011  0.2380 -0.2886
 3301TIP3    H131318   2.711   1.662  13.504 -2.0952  0.5390 -0.4595
 3301TIP3    H231319   2.747   1.525  13.557 -1.0540  0.3115 -1.6979
 3302TIP3   OH231320   5.294   1.731   2.574  0.4336 -0.2059  0.1834
 3302TIP3    H131321   5.375   1.779   2.562  0.8303 -1.1480 -1.2347
 3302TIP3    H231322   5.232   1.796   2.608  1.5370  0.7300  0.4622
 3303TIP3   OH231323   1.853   3.960   5.222  1.0204 -0.1628  0.5294
 3303TIP3    H131324   1.771   3.977   5.268 -0.0662 -4.2055  0.4861
 3303TIP3    H231325   1.862   4.033   5.161 -3.5675 -0.3993 -0.7932
 3304TIP3   OH231326   1.213   4.583  11.347 -0.0502 -0.0219  0.3719
 3304TIP3    H131327   1.181   4.598  11.258 -1.9934 -0.2804  0.9874
 3304TIP3    H231328   1.263   4.661  11.368 -0.6852  0.6289 -0.4733
 3305TIP3   OH231329   1.251   4.967  12.484 -0.3130 -0.1584  0.8551
 3305TIP3    H131330   1.237   5.039  12.545  1.4853  0.7920  0.2062
 3305TIP3    H231331   1.201   4.991  12.406  0.5815  0.6130  0.4986
 3306TIP3   OH231332   2.840   2.493   0.506 -0.1440  0.2066 -0.2426
 3306TIP3    H131333   2.795   2.565   0.551 -0.6464 -0.4458  0.3371
 3306TIP3    H231334   2.783   2.417   0.521  1.5813 -0.8523  1.2811
 3307TIP3   OH231335   4.119   0.560   3.696  0.3521  0.1068  0.3604
 3307TIP3    H131336   4.195   0.512   3.661 -0.1589 -1.5346  1.3970
 3307TIP3    H231337   4.102   0.627   3.631  3.1295  1.0031  0.4271
 3308TIP3   OH231338   4.531   6.473  16.685  0.0190  0.1369  0.0310
 3308TIP3    H131339   4.514   6.515  16.601  0.3804 -2.0021 -1.1538
 3308TIP3    H231340   4.448   6.482  16.733  0.0745  2.1290 -0.1356
 3309TIP3   OH231341   4.596   4.667  16.691 -0.0281 -0.3518  0.1059
 3309TIP3    H131342   4.631   4.690  16.777 -1.2764  0.5005  0.4048
 3309TIP3    H231343   4.550   4.745  16.662 -1.2103 -1.2428 -0.5042
 3310TIP3   OH231344   1.456   6.606  12.446 -0.1891 -0.1861  0.5960
 3310TIP3    H131345   1.506   6.687  12.446  1.1263 -0.8383  3.7165
 3310TIP3    H231346   1.365   6.633  12.462  0.1054  0.7106  0.7779
 3311TIP3   OH231347   0.133   3.073  15.766 -0.0171 -0.2252 -0.1264
 3311TIP3    H131348   0.076   3.037  15.834 -0.3669 -0.4924 -0.5523
 3311TIP3    H231349   0.194   3.002  15.746  0.4107  0.0288  0.2636
 3312TIP3   OH231350   0.785   2.020  10.782  0.4461  0.2381 -0.0567
 3312TIP3    H131351   0.872   2.030  10.821  0.5489 -0.0246 -0.2175
 3312TIP3    H231352   0.770   2.102  10.734  0.6189  0.2666 -0.0612
 3313TIP3   OH231353   1.707   1.233   0.766 -0.2355 -0.1059 -0.1530
 3313TIP3    H131354   1.793   1.254   0.731 -0.2476 -0.4570 -0.3962
 3313TIP3    H231355   1.649   1.301   0.731 -0.1576 -0.1762 -0.4210
 3314TIP3   OH231356   3.232   4.342   5.517  0.0614  0.0283  0.2723
 3314TIP3    H131357   3.165   4.276   5.498 -0.1279  0.8591 -2.4240
 3314TIP3    H231358   3.312   4.308   5.475  0.2665  0.9138 -0.0843
 3315TIP3   OH231359   2.223   3.812   1.639  0.1719  0.5184  0.5428
 3315TIP3    H131360   2.232   3.718   1.628 -0.5327  0.4383  0.6001
 3315TIP3    H231361   2.294   3.849   1.587  0.4046 -0.0417  0.4561
 3316TIP3   OH231362   0.979   1.251  16.281 -0.3216  0.1908 -0.4756
 3316TIP3    H131363   0.925   1.183  16.241 -1.8147  0.1586  1.4180
 3316TIP3    H231364   0.929   1.331  16.268  1.1392  0.8846 -2.1609
 3317TIP3   OH231365   4.943   2.371  15.847  0.2388 -0.0194  0.3342
 3317TIP3    H131366   5.020   2.327  15.811  0.2478 -1.8904  2.4077
 3317TIP3    H231367   4.870   2.313  15.825  0.0344 -0.3796  1.8389
 3318TIP3   OH231368   1.006   1.982   4.711 -0.0478 -0.1186  0.3137
 3318TIP3    H131369   1.018   2.022   4.625 -2.4694 -2.0070 -1.0332
 3318TIP3    H231370   0.971   1.895   4.692 -0.3642 -0.7249  3.2309
 3319TIP3   OH231371   6.509   2.937   1.447  0.3854 -0.4127  0.2905
 3319TIP3    H131372   6.492   2.886   1.367 -2.3784 -1.3375  1.3438
 3319TIP3    H231373   6.534   2.871   1.512 -3.2005 -0.6273  1.6604
 3320TIP3   OH231374   0.067   0.183   1.236  0.5157 -0.0230 -0.2150
 3320TIP3    H131375   0.002   0.250   1.259  0.3863  0.0652 -0.8408
 3320TIP3    H231376   0.135   0.192   1.304  0.7211  1.0421 -0.5440
 3321TIP3   OH231377   5.523   3.663  11.882  0.1694 -0.5285 -0.1503
 3321TIP3    H131378   5.486   3.741  11.841  1.2523 -0.4426 -0.9908
 3321TIP3    H231379   5.618   3.675  11.875  0.3635 -1.3095  0.8838
 3322TIP3   OH231380   2.900   3.236  14.265  0.7132 -0.9639  0.0687
 3322TIP3    H131381   2.940   3.200  14.185  0.1758 -0.0406 -0.6243
 3322TIP3    H231382   2.887   3.329  14.246  1.5578 -0.4908  1.6263
 3323TIP3   OH231383   6.402   4.573  15.613 -0.4848  0.4439  0.9486
 3323TIP3    H131384   6.387   4.608  15.526 -1.2027  0.5309  1.1024
 3323TIP3    H231385   6.411   4.479  15.600 -0.2261  0.4934  0.7443
 3324TIP3   OH231386   0.607   0.568  15.724 -0.0033  0.0962  0.1885
 3324TIP3    H131387   0.534   0.573  15.786  0.8110  2.2685  1.0716
 3324TIP3    H231388   0.680   0.535  15.776  0.6202  1.7044  0.4033
 3325TIP3   OH231389   4.566   1.179   4.642  0.3710 -1.0751 -0.5928
 3325TIP3    H131390   4.581   1.180   4.548 -0.7332  2.5720 -0.8647
 3325TIP3    H231391   4.525   1.094   4.659  1.5887 -2.2732 -3.1583
 3326TIP3   OH231392   4.421   5.777   1.372  0.4346  0.5389 -0.1693
 3326TIP3    H131393   4.396   5.864   1.340  0.4057  0.4493 -0.3924
 3326TIP3    H231394   4.394   5.718   1.302 -2.4967 -0.0274  1.2699
 3327TIP3   OH231395   1.670   5.098   4.800  0.8047  0.6296 -0.4471
 3327TIP3    H131396   1.656   5.009   4.767  1.4576  0.9270 -1.5469
 3327TIP3    H231397   1.745   5.089   4.860 -0.7550 -0.0218  1.5421
 3328TIP3   OH231398   2.546   1.341  16.405 -0.2308 -0.6470 -0.6731
 3328TIP3    H131399   2.588   1.425  16.425  0.2318 -0.9812 -0.2226
 3328TIP3    H231400   2.460   1.347  16.445  0.5534 -1.1786  1.2150
 3329TIP3   OH231401   1.537   6.097  17.131 -0.4277  0.0992  0.3720
 3329TIP3    H131402   1.477   6.133  17.196 -1.7091 -0.8222 -0.2391
 3329TIP3    H231403   1.558   6.171  17.074 -0.9843  0.4414  0.6051
 3330TIP3   OH231404   6.420   1.076   2.063  0.2033 -0.5917 -0.9221
 3330TIP3    H131405   6.499   1.034   2.029 -0.1897 -1.1707 -1.1334
 3330TIP3    H231406   6.452   1.152   2.112  0.8172 -0.1477 -1.9824
 3331TIP3   OH231407   1.745   5.202  12.001 -0.4185  0.1152 -0.1380
 3331TIP3    H131408   1.779   5.112  11.999  0.2721  0.3361  1.0779
 3331TIP3    H231409   1.681   5.202  12.072  1.4317  1.1866  1.6270
 3332TIP3   OH231410   6.692   4.470   4.688  0.2505 -0.7878  0.1624
 3332TIP3    H131411   6.711   4.556   4.727  0.5941 -0.0555 -1.5289
 3332TIP3    H231412   6.601   4.452   4.712 -0.6292  1.1946 -1.4025
 3333TIP3   OH231413   4.738   0.310  16.691  0.2504 -0.0203 -0.1155
 3333TIP3    H131414   4.743   0.317  16.595 -2.3539  0.8772 -0.2705
 3333TIP3    H231415   4.709   0.396  16.720 -3.1280 -1.3842  1.0162
 3334TIP3   OH231416   4.987   5.806   3.597 -0.3952 -0.3492 -0.0670
 3334TIP3    H131417   4.986   5.823   3.691 -0.6689 -3.5249  0.6220
 3334TIP3    H231418   4.930   5.873   3.559 -1.9037 -0.2292  2.2685
 3335TIP3   OH231419   1.164   1.348   1.120  0.2032 -0.0810 -0.6662
 3335TIP3    H131420   1.244   1.394   1.146 -0.6136  0.4382  1.0192
 3335TIP3    H231421   1.166   1.266   1.169  0.4638 -0.8226 -1.8525
 3336TIP3   OH231422   3.908   3.233   0.966  0.5614 -0.4402  0.3577
 3336TIP3    H131423   3.847   3.177   1.013 -0.4192 -2.3536 -2.8681
 3336TIP3    H231424   3.994   3.191   0.978  0.6161 -0.0204  1.6002
 3337TIP3   OH231425   5.570   4.783   4.749  0.2801  0.3834 -0.0055
 3337TIP3    H131426   5.547   4.872   4.723 -1.5590  0.2851  1.1099
 3337TIP3    H231427   5.511   4.763   4.821 -0.7450 -2.4636 -1.4943
 3338TIP3   OH231428   5.573   5.866   5.439  0.2643  0.1020 -0.3651
 3338TIP3    H131429   5.622   5.808   5.498  0.3858  1.2758  0.7233
 3338TIP3    H231430   5.638   5.900   5.378  0.4555  0.2265 -0.0898
 3339TIP3   OH231431   5.128   1.938  13.602 -0.7712  0.1395 -0.2197
 3339TIP3    H131432   5.119   1.844  13.618 -2.2520  0.2255 -0.4446
 3339TIP3    H231433   5.188   1.968  13.670  0.1108 -1.0443 -0.4447
 3340TIP3   OH231434   2.381   2.691   3.526  0.4669 -0.1545  0.4305
 3340TIP3    H131435   2.325   2.638   3.582 -0.1674 -0.5717 -0.5711
 3340TIP3    H231436   2.349   2.674   3.437  1.0397  0.9715 -0.0098
 3341TIP3   OH231437   6.006   4.767   3.918 -0.5715 -0.3836 -0.0421
 3341TIP3    H131438   6.029   4.706   3.988 -0.1618  1.0597  1.1289
 3341TIP3    H231439   6.053   4.734   3.841  2.0780  0.0951  1.2652
 3342TIP3   OH231440   5.252   2.604  12.043 -0.1679 -0.2680 -0.0780
 3342TIP3    H131441   5.337   2.581  12.006 -0.8125 -1.2622 -0.9814
 3342TIP3    H231442   5.210   2.659  11.976  0.1395  1.0817  0.7896
 3343TIP3   OH231443   5.316   3.043  16.728 -0.3620 -0.0983 -0.3453
 3343TIP3    H131444   5.349   2.955  16.713  0.1407 -0.1330  0.9131
 3343TIP3    H231445   5.224   3.030  16.750 -0.4040 -0.2633 -0.6071
 3344TIP3   OH231446   2.205   0.962   1.403 -0.1510 -0.0659 -0.1407
 3344TIP3    H131447   2.267   0.995   1.468 -1.7697 -1.5356  2.3170
 3344TIP3    H231448   2.132   1.024   1.405 -0.1166 -0.0057 -0.7104
 3345TIP3   OH231449   1.798   1.518   5.712  0.0277 -0.1079 -0.1087
 3345TIP3    H131450   1.865   1.552   5.653 -0.9885 -1.2272 -2.0249
 3345TIP3    H231451   1.761   1.595   5.755  1.8341  0.5998  0.2249
 3346TIP3   OH231452   5.117   6.553   2.447  0.3527 -0.5316 -0.5455
 3346TIP3    H131453   5.087   6.631   2.401 -0.8239 -0.8626 -0.3524
 3346TIP3    H231454   5.211   6.567   2.459  0.5915 -0.1585 -2.5186
 3347TIP3   OH231455   1.592   6.463  12.688  0.9945  0.4304  0.0439
 3347TIP3    H131456   1.651   6.394  12.658 -0.1591 -0.0696 -1.1913
 3347TIP3    H231457   1.561   6.504  12.607 -0.8318  0.2387  0.6049
 3348TIP3   OH231458   1.431   0.009   4.428 -0.2178 -0.3706  0.1605
 3348TIP3    H131459   1.345  -0.001   4.388  0.6350  0.6205 -2.0986
 3348TIP3    H231460   1.486   0.044   4.358  1.0706  3.0496  2.5998
 3349TIP3   OH231461   4.292   1.116   2.837  0.3467 -0.5382 -0.0160
 3349TIP3    H131462   4.380   1.140   2.808  0.6263 -0.0034  1.2016
 3349TIP3    H231463   4.303   1.087   2.927 -0.7928  0.1027  0.3626
 3350TIP3   OH231464   1.110   1.468   1.511  0.6902 -0.0723 -0.3427
 3350TIP3    H131465   1.152   1.437   1.591 -0.7872  0.0134  0.5118
 3350TIP3    H231466   1.122   1.397   1.449  0.1717 -0.9953  0.5795
 3351TIP3   OH231467   2.850   4.567   2.354 -0.0153 -0.2521 -0.2142
 3351TIP3    H131468   2.914   4.636   2.373  0.0185 -0.5727  0.8981
 3351TIP3    H231469   2.813   4.591   2.269  1.7249 -0.1619 -0.9853
 3352TIP3   OH231470   2.295   2.009  17.023 -0.0243 -0.2999 -0.2581
 3352TIP3    H131471   2.293   1.914  17.015  1.9541 -0.4058  0.0273
 3352TIP3    H231472   2.316   2.026  17.115 -0.3813  0.4174 -0.2987
 3353TIP3   OH231473   5.146   0.161  17.049  0.6138 -0.1382  0.1173
 3353TIP3    H131474   5.215   0.155  16.983 -0.2341  1.0597 -0.9161
 3353TIP3    H231475   5.193   0.180  17.130  1.5887 -0.6478 -0.3054
 3354TIP3   OH231476   0.052   4.799  13.200 -0.4946  0.3033  0.0186
 3354TIP3    H131477  -0.008   4.759  13.137  0.1311 -0.3291 -0.1892
 3354TIP3    H231478   0.078   4.882  13.160 -1.1437  0.5350  0.0662
 3355TIP3   OH231479   3.029   4.268   4.209  0.8996  0.3277  0.2370
 3355TIP3    H131480   2.966   4.199   4.188 -3.2942  3.9918 -0.9304
 3355TIP3    H231481   3.089   4.269   4.134 -0.0913 -0.8790 -0.6248
 3356TIP3   OH231482   0.671   0.800   5.278 -0.2862  0.6383  0.3769
 3356TIP3    H131483   0.615   0.763   5.346 -1.1575  0.3456 -0.4760
 3356TIP3    H231484   0.611   0.820   5.206  0.0156  4.3845  0.9953
 3357TIP3   OH231485   3.464   2.387   6.557 -0.0477 -0.2193 -0.4251
 3357TIP3    H131486   3.426   2.362   6.472  0.7946  0.4998 -1.0320
 3357TIP3    H231487   3.391   2.424   6.606 -0.3767  0.1000 -1.1413
 3358TIP3   OH231488   0.033   3.783  14.135 -0.3828  0.0678  0.2665
 3358TIP3    H131489   0.061   3.697  14.168 -1.5491  0.6397  2.9705
 3358TIP3    H231490   0.065   3.845  14.200 -1.2097  1.5103 -0.6531
 3359TIP3   OH231491   2.473   2.534   0.984 -0.7613 -0.2598  0.1983
 3359TIP3    H131492   2.423   2.567   0.909  0.3846  1.0321 -0.0575
 3359TIP3    H231493   2.544   2.598   0.994 -1.8195  0.5758  3.4795
 3360TIP3   OH231494   2.228   4.916   5.146  0.0657 -0.4386 -0.6256
 3360TIP3    H131495   2.273   4.968   5.079  0.5926 -1.1359 -0.8231
 3360TIP3    H231496   2.203   4.835   5.102 -1.6313  0.0283 -0.5859
 3361TIP3   OH231497   1.750   3.209  16.486 -0.2502  0.3378 -0.0367
 3361TIP3    H131498   1.673   3.168  16.447  0.6098 -1.1357 -0.2593
 3361TIP3    H231499   1.775   3.149  16.557  0.7126  0.7847  0.0133
 3362TIP3   OH231500   0.357   0.329   4.113  0.3550  0.2175  0.4861
 3362TIP3    H131501   0.361   0.338   4.208 -0.1204  1.2121  0.4160
 3362TIP3    H231502   0.264   0.327   4.093  0.4478  0.6726 -0.0173
 3363TIP3   OH231503   2.930   4.184  12.674  1.2356  0.7701 -0.7619
 3363TIP3    H131504   2.846   4.201  12.717  1.2339  2.7072 -1.4391
 3363TIP3    H231505   2.916   4.104  12.624  0.1859  0.3806  0.1195
 3364TIP3   OH231506   5.993   2.517   2.805 -0.1303  0.0663  0.3161
 3364TIP3    H131507   6.056   2.576   2.762  0.5970 -0.1512  1.0691
 3364TIP3    H231508   6.009   2.432   2.765  0.8574 -0.2314  1.3200
 3365TIP3   OH231509   1.917   2.093   4.387  0.8165 -0.0327 -0.3537
 3365TIP3    H131510   1.973   2.171   4.395  1.6796 -0.5969 -0.7694
 3365TIP3    H231511   1.897   2.087   4.294 -3.0603  2.2601  0.0910
 3366TIP3   OH231512   1.904   6.029   1.552  0.7182  0.5820 -0.8132
 3366TIP3    H131513   1.897   6.103   1.613 -1.0578  0.2635 -0.5826
 3366TIP3    H231514   1.824   6.033   1.500 -0.1483 -1.9512  0.1443
 3367TIP3   OH231515   1.047   3.447   1.496  0.0135  0.1023  0.1200
 3367TIP3    H131516   1.001   3.528   1.518 -0.8681  0.0208 -1.3288
 3367TIP3    H231517   1.136   3.460   1.529 -0.2168  1.5207  0.2177
 3368TIP3   OH231518   3.373   0.581  17.235 -0.5820  0.4889 -0.2446
 3368TIP3    H131519   3.357   0.575  17.329 -2.2875 -0.0085 -0.5363
 3368TIP3    H231520   3.448   0.640  17.227 -0.1800  0.2391  1.4323
 3369TIP3   OH231521   0.483   6.706   2.616 -0.5261 -0.5116  0.1171
 3369TIP3    H131522   0.438   6.737   2.695  0.3087 -0.2388  0.4998
 3369TIP3    H231523   0.440   6.753   2.545 -1.4187 -0.9018  0.3822
 3370TIP3   OH231524   1.654   0.653  11.512 -0.3492 -0.0113  0.4209
 3370TIP3    H131525   1.723   0.620  11.568  0.5454  1.1655  0.0396
 3370TIP3    H231526   1.577   0.658  11.569  0.4207  0.7218  1.4203
 3371TIP3   OH231527   3.741   2.257   2.678 -0.4905  0.2472 -0.0442
 3371TIP3    H131528   3.821   2.307   2.659 -2.1978  2.7186 -1.2941
 3371TIP3    H231529   3.730   2.200   2.602  0.6672 -0.9742  0.6769
 3372TIP3   OH231530   3.520   1.937  16.336 -0.7651  0.2002  0.6451
 3372TIP3    H131531   3.443   1.977  16.376 -2.1843 -0.2006 -1.4779
 3372TIP3    H231532   3.504   1.944  16.242  1.4718 -0.5850  0.1376
 3373TIP3   OH231533   6.285   2.085   5.104  0.1624  0.4620 -0.6075
 3373TIP3    H131534   6.329   2.152   5.052 -0.1263  1.9148  0.9481
 3373TIP3    H231535   6.197   2.119   5.117  0.5536  0.7281  1.7672
 3374TIP3   OH231536   1.596   2.059   1.642  0.1802 -0.2259 -0.0777
 3374TIP3    H131537   1.508   2.096   1.641  0.1572 -0.1663  1.8159
 3374TIP3    H231538   1.583   1.964   1.647  0.1353 -0.1419  2.8344
 3375TIP3   OH231539   6.179   1.538  15.808 -0.1721 -0.4148  0.0243
 3375TIP3    H131540   6.255   1.589  15.836 -0.0598 -0.9706  0.7542
 3375TIP3    H231541   6.119   1.603  15.771 -0.1896  0.3235  1.2870
 3376TIP3   OH231542   4.914   3.206  14.200 -0.5928  0.1049  0.5633
 3376TIP3    H131543   4.843   3.213  14.264  0.3521 -2.1418  1.9739
 3376TIP3    H231544   4.939   3.114  14.203  2.4349  0.8288  0.1905
 3377TIP3   OH231545   1.885   5.820  13.830  0.1882  0.2083 -0.4211
 3377TIP3    H131546   1.831   5.844  13.754 -1.8553 -0.7504  0.6581
 3377TIP3    H231547   1.964   5.873  13.820  0.0439  0.0845 -3.2507
 3378TIP3   OH231548   5.155   2.842   3.854  0.1428 -0.0195 -0.4803
 3378TIP3    H131549   5.164   2.749   3.834 -0.9620 -0.0979 -0.6333
 3378TIP3    H231550   5.148   2.846   3.950  2.5606  0.1312 -0.2265
 3379TIP3   OH231551   2.402   6.231  12.993  0.2393  0.1703  0.4827
 3379TIP3    H131552   2.419   6.314  12.949 -0.0239 -0.3417 -0.6000
 3379TIP3    H231553   2.325   6.195  12.950  0.1318 -0.4780  1.1777
 3380TIP3   OH231554   0.983   5.951   3.580 -0.6288 -0.0422 -0.0263
 3380TIP3    H131555   0.907   5.977   3.632 -1.1052  0.3524 -0.8986
 3380TIP3    H231556   0.969   5.992   3.495  1.6211  1.8143  0.4149
 3381TIP3   OH231557   5.982   2.464   0.210 -0.2916 -0.1319  0.3590
 3381TIP3    H131558   5.910   2.402   0.198  0.7733 -1.2979 -0.2673
 3381TIP3    H231559   5.996   2.502   0.124  0.3283 -0.4904  0.2929
 3382TIP3   OH231560   6.186   0.146   5.523  0.1218  0.3953 -0.7022
 3382TIP3    H131561   6.228   0.209   5.581  1.2726  0.9897 -2.1039
 3382TIP3    H231562   6.134   0.090   5.581  1.6509  0.5996  0.9478
 3383TIP3   OH231563   2.375   4.774  11.826 -0.0067  0.2085  0.3637
 3383TIP3    H131564   2.423   4.692  11.813 -3.3856 -1.9243 -0.2024
 3383TIP3    H231565   2.379   4.790  11.920  2.2058  0.4529  0.2568
 3384TIP3   OH231566   1.030   3.789  15.684  0.4714  0.3260  0.6349
 3384TIP3    H131567   1.037   3.711  15.628 -0.4513  0.7753 -0.1300
 3384TIP3    H231568   1.116   3.796  15.725  0.7831 -0.7160  0.2056
 3385TIP3   OH231569   4.311   2.376  13.210  0.0841 -0.4570 -0.0343
 3385TIP3    H131570   4.222   2.400  13.187  0.8633  3.7610  0.4907
 3385TIP3    H231571   4.359   2.374  13.127  0.0073 -0.1927 -0.0828
 3386TIP3   OH231572   6.503   1.474  12.963  0.1709  0.1827 -0.5852
 3386TIP3    H131573   6.533   1.394  13.005  0.9269  0.9833  0.4410
 3386TIP3    H231574   6.456   1.444  12.885 -1.3988 -1.3575  0.8682
 3387TIP3   OH231575   3.185   4.300  12.947 -0.6735 -0.2117  0.2481
 3387TIP3    H131576   3.167   4.210  12.919  1.8076 -0.7193  0.0491
 3387TIP3    H231577   3.231   4.290  13.031 -0.3320  0.8596  0.2027
 3388TIP3   OH231578   0.193   5.083  13.235 -0.2177  0.2890 -0.0732
 3388TIP3    H131579   0.194   5.038  13.319 -0.1146  0.2166 -0.1141
 3388TIP3    H231580   0.131   5.155  13.247  1.3753  1.6004  0.7546
 3389TIP3   OH231581   3.449   4.435   1.865 -0.5571 -0.2877  0.2581
 3389TIP3    H131582   3.392   4.463   1.793 -2.3317 -1.4986  1.1085
 3389TIP3    H231583   3.390   4.392   1.927  0.4728  2.5953  3.5776
 3390TIP3   OH231584   4.900   4.494  14.874 -0.3451  0.3078 -0.4590
 3390TIP3    H131585   4.881   4.570  14.818  1.2658  1.3826  0.3726
 3390TIP3    H231586   4.935   4.428  14.814  1.4800  1.4876 -0.7667
 3391TIP3   OH231587   0.589   3.692  16.830  0.1362  0.6805  0.1623
 3391TIP3    H131588   0.601   3.603  16.862  2.4341  0.3877 -1.2959
 3391TIP3    H231589   0.648   3.745  16.884 -0.7887  1.2637  0.6380
 3392TIP3   OH231590   3.230   4.114  14.525 -0.1999 -0.5496  0.2242
 3392TIP3    H131591   3.251   4.173  14.598  0.4748 -0.0387 -0.3651
 3392TIP3    H231592   3.315   4.096  14.484 -0.4901 -1.3644 -0.0376
 3393TIP3   OH231593   4.217   4.009  12.409  0.2024  0.1111  0.1433
 3393TIP3    H131594   4.155   3.966  12.350 -0.7692  1.6050  0.0108
 3393TIP3    H231595   4.186   3.986  12.497  0.0504  0.0314  0.0700
 3394TIP3   OH231596   2.038   2.982  13.510 -0.1072  0.3995 -0.4804
 3394TIP3    H131597   2.022   3.053  13.573 -2.1375  0.5145 -1.0687
 3394TIP3    H231598   1.984   2.910  13.541  1.2941 -0.6464 -0.3733
 3395TIP3   OH231599   1.613   3.165  11.370  0.1334  0.5074  0.5533
 3395TIP3    H131600   1.566   3.247  11.384  0.4583  0.9899 -0.9636
 3395TIP3    H231601   1.548   3.106  11.332  0.4820  0.8614 -0.6282
 3396TIP3   OH231602   1.270   2.833   1.497  0.3138 -0.2693 -0.4066
 3396TIP3    H131603   1.286   2.829   1.591  0.0160 -0.5667 -0.3647
 3396TIP3    H231604   1.281   2.743   1.467 -0.6494 -0.3712 -0.4751
 3397TIP3   OH231605   2.052   0.118  15.155  0.1162 -0.0596  0.3886
 3397TIP3    H131606   1.976   0.065  15.130  1.6000 -2.3507  0.4778
 3397TIP3    H231607   2.044   0.129  15.249 -0.5227  0.4279  0.2836
 3398TIP3   OH231608   1.949   3.455   2.369 -0.4043  0.1665  0.0734
 3398TIP3    H131609   1.911   3.395   2.434  0.2757  1.2038  1.4834
 3398TIP3    H231610   2.042   3.457   2.391 -0.0545  0.0816 -1.3467
 3399TIP3   OH231611   6.700   0.977  14.710 -0.0623  0.0292  0.0972
 3399TIP3    H131612   6.788   0.988  14.674 -0.3277 -1.0764 -0.9530
 3399TIP3    H231613   6.650   0.935  14.640 -0.9446 -1.0055  1.2951
 3400TIP3   OH231614   5.492   0.534   5.434  0.1730  0.4240  0.1122
 3400TIP3    H131615   5.404   0.570   5.442 -0.1472 -0.2983 -0.0279
 3400TIP3    H231616   5.481   0.458   5.377  0.4791 -0.9875  1.8554
 3401TIP3   OH231617   6.634   1.874  13.035  0.2694  0.9296  0.0472
 3401TIP3    H131618   6.558   1.826  13.003  0.9866 -0.1674 -0.0588
 3401TIP3    H231619   6.673   1.914  12.957  2.2019 -2.0035 -0.6470
 3402TIP3   OH231620   1.176   3.193  16.567 -0.5275 -0.0332 -0.1374
 3402TIP3    H131621   1.270   3.207  16.577 -0.2586  0.2845 -2.5719
 3402TIP3    H231622   1.165   3.098  16.577  0.3664 -0.3373 -1.6437
 3403TIP3   OH231623   2.341   2.287  14.674  0.1453 -0.0300 -0.1930
 3403TIP3    H131624   2.428   2.247  14.684 -0.0471 -0.3539  0.2045
 3403TIP3    H231625   2.291   2.253  14.748 -0.5848 -0.5399 -0.9117
 3404TIP3   OH231626   0.199   5.493  13.202 -0.0535  0.9581  0.0992
 3404TIP3    H131627   0.216   5.487  13.108 -0.9844  0.4503 -0.0506
 3404TIP3    H231628   0.160   5.409  13.225  0.7837  0.8228  1.0835
 3405TIP3   OH231629   0.108   3.569   1.696  0.1146  0.0992  0.1849
 3405TIP3    H131630   0.170   3.517   1.747 -1.4720 -0.4014  1.6829
 3405TIP3    H231631   0.042   3.507   1.667  0.3527  0.5921 -1.5697
 3406TIP3   OH231632   4.087   1.482  12.751  0.0416 -0.8190  0.0265
 3406TIP3    H131633   4.148   1.550  12.780  0.3643 -1.6628  1.3970
 3406TIP3    H231634   4.143   1.408  12.728 -0.4339 -1.5701  1.2078
 3407TIP3   OH231635   4.049   1.249   3.992 -0.4264 -0.0930 -0.2006
 3407TIP3    H131636   4.003   1.188   3.934 -0.2002 -0.5039  0.0521
 3407TIP3    H231637   4.001   1.245   4.074 -0.0978 -0.3189 -0.0211
 3408TIP3   OH231638   5.118   6.715  13.864  0.0910 -0.6085  0.6581
 3408TIP3    H131639   5.160   6.687  13.783  2.0417  0.8009  1.0989
 3408TIP3    H231640   5.034   6.669  13.865 -0.3187 -0.1575 -2.4617
 3409TIP3   OH231641   1.515   5.934  15.517  0.0689  0.5202  0.4174
 3409TIP3    H131642   1.585   5.874  15.491  0.3487  0.6067  0.9565
 3409TIP3    H231643   1.502   5.917  15.611 -2.1588 -1.0605 -0.0970
 3410TIP3   OH231644   4.301   6.411  12.975  0.1312 -0.2024  0.2570
 3410TIP3    H131645   4.215   6.374  12.952  0.0806  0.2125 -0.2353
 3410TIP3    H231646   4.281   6.498  13.009  0.4042  0.1830 -0.5424
 3411TIP3   OH231647   2.739   1.471   3.568  0.1028 -0.3569  0.1537
 3411TIP3    H131648   2.806   1.539   3.563  2.3356 -2.4237  0.1160
 3411TIP3    H231649   2.694   1.475   3.484  0.2205  0.9869  0.1272
 3412TIP3   OH231650   2.758   2.115   5.953 -0.9371  0.2371 -0.2202
 3412TIP3    H131651   2.743   2.138   5.862 -2.8120 -0.2363 -0.0720
 3412TIP3    H231652   2.703   2.175   6.003  1.4780  1.7914  0.7867
 3413TIP3   OH231653   5.244   4.788   3.351 -0.2611 -0.1304 -0.4120
 3413TIP3    H131654   5.186   4.861   3.331  0.0435  0.1098 -0.4193
 3413TIP3    H231655   5.222   4.721   3.285 -1.0066 -0.3109  0.0113
 3414TIP3   OH231656   3.871   5.805   2.654 -0.7855  0.0268  0.8147
 3414TIP3    H131657   3.879   5.899   2.640 -0.5517 -0.2203 -0.9632
 3414TIP3    H231658   3.776   5.789   2.657 -0.8304  0.3775  1.8204
 3415TIP3   OH231659   6.283   1.422  15.488 -1.0441  0.1770 -0.9013
 3415TIP3    H131660   6.253   1.492  15.430 -2.0811  0.5236  0.0171
 3415TIP3    H231661   6.267   1.455  15.577 -1.3609 -1.1286 -0.4417
 3416TIP3   OH231662   6.120   1.912  15.354 -0.4637 -0.0554  0.6020
 3416TIP3    H131663   6.180   1.965  15.407 -1.3773  0.7397  0.8657
 3416TIP3    H231664   6.050   1.973  15.329  0.1765 -0.2452 -1.9522
 3417TIP3   OH231665   2.326   1.238  15.595 -0.1114  0.9944 -0.2348
 3417TIP3    H131666   2.303   1.153  15.557  1.9643  1.0460 -1.7953
 3417TIP3    H231667   2.263   1.299  15.557 -0.4815  0.4414 -0.5310
 3418TIP3   OH231668   6.741   4.104   3.622  0.0628  0.5712  0.6376
 3418TIP3    H131669   6.764   4.166   3.691  1.4216  1.2737 -0.3925
 3418TIP3    H231670   6.808   4.036   3.627  0.9766  1.3065 -0.7718
 3419TIP3   OH231671   4.870   5.825   0.932  0.1676 -0.6641 -0.1997
 3419TIP3    H131672   4.785   5.848   0.895 -0.6391 -0.0983  1.8675
 3419TIP3    H231673   4.886   5.736   0.904  0.0372  0.0122 -2.5925
 3420TIP3   OH231674   0.293   2.393  10.414  0.2700 -0.6138 -0.1820
 3420TIP3    H131675   0.223   2.388  10.479 -0.3691 -2.0862 -0.9422
 3420TIP3    H231676   0.267   2.331  10.345  1.2113  0.4532 -1.5630
 3421TIP3   OH231677   3.577   1.637  11.030 -0.3258  0.0460 -0.0727
 3421TIP3    H131678   3.527   1.711  11.063 -0.8548 -0.5993  0.6075
 3421TIP3    H231679   3.580   1.650  10.935  0.5017  1.4821  0.1254
 3422TIP3   OH231680   3.099   4.878  14.145 -0.0072 -0.2196  0.4977
 3422TIP3    H131681   3.019   4.826  14.147  0.3309 -0.7514  0.4132
 3422TIP3    H231682   3.145   4.855  14.226  1.3437 -2.0030 -0.7111
 3423TIP3   OH231683   0.558   2.149   3.596 -0.2044  0.1973 -0.6271
 3423TIP3    H131684   0.478   2.102   3.619 -0.5116  0.8461 -0.3583
 3423TIP3    H231685   0.615   2.081   3.560 -0.3393 -0.5457  0.4903
 3424TIP3   OH231686   0.062   5.430  11.357  0.3266  0.1703 -0.4216
 3424TIP3    H131687  -0.027   5.442  11.324  0.5262  0.9993 -0.6772
 3424TIP3    H231688   0.106   5.377  11.291 -0.1024 -0.6358 -0.0731
 3425TIP3   OH231689   4.895   2.279  11.110  0.6688 -0.0848 -0.2318
 3425TIP3    H131690   4.905   2.372  11.089  0.1305  0.3906  1.4994
 3425TIP3    H231691   4.886   2.237  11.024  0.9080  1.4431 -1.0551
 3426TIP3   OH231692   1.140   6.729   3.351 -0.6301 -0.3589  0.0367
 3426TIP3    H131693   1.230   6.752   3.326  0.3814 -2.9256  0.9383
 3426TIP3    H231694   1.105   6.685   3.273 -0.7131 -0.3545  0.0717
 3427TIP3   OH231695   1.775   1.134  11.237 -0.4297  0.1673  0.3018
 3427TIP3    H131696   1.753   1.049  11.274 -1.5148 -0.1489 -0.9711
 3427TIP3    H231697   1.731   1.135  11.152  2.2151  0.6743 -1.1909
 3428TIP3   OH231698   4.884   0.735  12.554  0.5382 -0.4689 -0.0514
 3428TIP3    H131699   4.803   0.778  12.525  0.9191 -0.4648 -1.1555
 3428TIP3    H231700   4.856   0.679  12.627 -0.5789 -0.9117 -0.7837
 3429TIP3   OH231701   3.650   3.697  13.372  0.3397  0.3575 -0.0217
 3429TIP3    H131702   3.709   3.772  13.363 -1.8294  2.3134  0.8342
 3429TIP3    H231703   3.580   3.729  13.430 -0.5215 -2.4714  0.6415
 3430TIP3   OH231704   6.064   5.198   2.430  0.7166  0.0440 -0.8409
 3430TIP3    H131705   6.072   5.110   2.467  0.5230 -0.1737 -1.3089
 3430TIP3    H231706   6.122   5.252   2.484  0.6024 -0.3092 -0.3572
 3431TIP3   OH231707   6.211   4.475   1.189  0.1741  0.6081  0.4149
 3431TIP3    H131708   6.302   4.493   1.213  0.1533  1.3248 -0.0004
 3431TIP3    H231709   6.205   4.380   1.187  1.0992  0.5531 -0.2542
 3432TIP3   OH231710   4.534   2.778   4.389  0.4553 -0.1786  0.0922
 3432TIP3    H131711   4.594   2.705   4.376  2.1581  0.5627  2.8926
 3432TIP3    H231712   4.454   2.737   4.422 -1.0852 -1.2469 -4.3579
 3433TIP3   OH231713   5.692   0.344  10.650 -0.1788 -0.0253 -0.1309
 3433TIP3    H131714   5.730   0.377  10.569  0.2645 -0.5401 -0.1422
 3433TIP3    H231715   5.767   0.306  10.698 -0.2243  1.2987  1.0451
 3434TIP3   OH231716   6.674   0.871  15.710  0.1254  0.2570  0.3218
 3434TIP3    H131717   6.627   0.824  15.779 -1.8700 -0.8243 -1.6313
 3434TIP3    H231718   6.746   0.914  15.755 -0.9144 -0.6012  3.0161
 3435TIP3   OH231719   1.141   2.852  14.691 -0.4443 -0.3828 -0.0600
 3435TIP3    H131720   1.174   2.936  14.724 -0.6352 -0.4068  0.2001
 3435TIP3    H231721   1.219   2.799  14.678 -0.4364 -0.9783  2.0305
 3436TIP3   OH231722   2.736   0.157  15.807  0.3092  0.0885 -0.3861
 3436TIP3    H131723   2.655   0.181  15.762  0.6341  0.5153 -0.7559
 3436TIP3    H231724   2.711   0.085  15.865 -0.2832  0.0620 -0.6665
 3437TIP3   OH231725   4.676   0.828  12.151  0.5742 -0.2830 -0.1874
 3437TIP3    H131726   4.701   0.737  12.169  0.1302 -0.5118 -0.7174
 3437TIP3    H231727   4.615   0.822  12.078  0.2275  0.4113  0.0408
 3438TIP3   OH231728   6.036   3.209  13.966  0.1601  0.3258  0.0763
 3438TIP3    H131729   6.008   3.137  14.022 -0.2245  1.2546  1.1330
 3438TIP3    H231730   6.073   3.167  13.889 -0.4664 -0.9859  0.4589
 3439TIP3   OH231731   6.239   6.446   2.963 -0.0671 -0.1048 -0.4051
 3439TIP3    H131732   6.231   6.502   3.040 -1.1236 -0.2346 -0.4161
 3439TIP3    H231733   6.333   6.443   2.946 -0.0079  2.1249 -0.7419
 3440TIP3   OH231734   4.796   3.767  15.161 -0.4099 -0.0607 -0.6439
 3440TIP3    H131735   4.842   3.758  15.077  0.1519  0.8049 -0.4433
 3440TIP3    H231736   4.857   3.817  15.216 -0.4058 -1.3382  0.5630
 3441TIP3   OH231737   0.865   1.144  10.785  0.0155 -0.2977  0.1898
 3441TIP3    H131738   0.896   1.056  10.764 -0.3472 -0.2831 -0.4196
 3441TIP3    H231739   0.872   1.192  10.703 -1.8046 -0.3465 -0.0406
 3442TIP3   OH231740   4.847   5.762  11.118 -0.5633  0.2602  0.1498
 3442TIP3    H131741   4.780   5.762  11.186  0.3618 -2.2681  1.1713
 3442TIP3    H231742   4.805   5.718  11.044 -0.8382  0.9784 -0.1267
 3443TIP3   OH231743   2.082   1.568  16.779  0.1919  0.5192 -0.1469
 3443TIP3    H131744   2.037   1.508  16.719 -0.3217 -0.2833  0.9947
 3443TIP3    H231745   2.061   1.655  16.746 -2.2470  0.1784  0.3316
 3444TIP3   OH231746   5.508   2.226  15.829 -0.7823  0.0775 -0.0388
 3444TIP3    H131747   5.547   2.305  15.792 -1.3462  0.0954 -0.6303
 3444TIP3    H231748   5.527   2.157  15.765  0.3542 -0.4388  0.8358
 3445TIP3   OH231749   5.468   6.376  13.244  0.4538  0.3785  0.2583
 3445TIP3    H131750   5.441   6.354  13.333 -0.4365 -0.1202 -0.1276
 3445TIP3    H231751   5.522   6.302  13.216  0.9556  0.6564  0.4610
 3446TIP3   OH231752   6.748   4.799   0.694  0.3824  0.1301 -0.3313
 3446TIP3    H131753   6.688   4.839   0.631  1.6105 -0.3473 -1.8618
 3446TIP3    H231754   6.742   4.705   0.676  1.6138  0.0793 -0.5727
 3447TIP3   OH231755   1.420   3.058  13.448 -0.1673 -0.0694  0.3548
 3447TIP3    H131756   1.474   2.979  13.451  0.6283  0.4153 -0.5346
 3447TIP3    H231757   1.358   3.041  13.377  1.3109  0.8696 -1.2325
 3448TIP3   OH231758   6.575   4.239  16.727 -0.2604  0.4546  0.0318
 3448TIP3    H131759   6.527   4.207  16.804  1.1121  0.1347  0.8009
 3448TIP3    H231760   6.667   4.235  16.754  0.3415 -0.6068 -1.9591
 3449TIP3   OH231761   3.102   1.414   1.723  0.6471 -0.8276  0.1150
 3449TIP3    H131762   3.049   1.412   1.802 -0.5431  0.2100 -0.6285
 3449TIP3    H231763   3.160   1.489   1.734  0.8607 -1.0029  0.2160
 3450TIP3   OH231764   5.772   2.896  16.540  0.2903  0.3160  0.0451
 3450TIP3    H131765   5.719   2.946  16.603 -0.5909  0.1816 -0.5760
 3450TIP3    H231766   5.735   2.807  16.543 -0.1103  0.4380 -1.0485
 3451TIP3   OH231767   3.302   2.657  13.184 -0.3674 -0.6009 -0.3503
 3451TIP3    H131768   3.250   2.728  13.222 -0.0210  0.2523 -1.4054
 3451TIP3    H231769   3.391   2.691  13.182  0.1015 -1.7174  0.6416
 3452TIP3   OH231770   6.237   4.204  12.118  0.5606 -0.3602 -0.0481
 3452TIP3    H131771   6.312   4.237  12.169 -0.1747 -1.2779  1.7444
 3452TIP3    H231772   6.162   4.218  12.175 -0.2508 -1.8179 -0.7180
 3453TIP3   OH231773   1.504   5.308  15.166 -0.0860 -0.0204 -0.0584
 3453TIP3    H131774   1.438   5.373  15.192  0.9825  1.0032  0.1627
 3453TIP3    H231775   1.586   5.342  15.202  0.7029 -0.8414 -1.0529
 3454TIP3   OH231776   5.703   1.577  11.342 -0.5921 -0.4681 -0.7042
 3454TIP3    H131777   5.660   1.657  11.372 -0.0627 -1.0153  1.8147
 3454TIP3    H231778   5.633   1.513  11.334 -0.7319 -0.3682 -0.3270
 3455TIP3   OH231779   1.373   2.286   1.437 -0.6921 -0.4767  0.0395
 3455TIP3    H131780   1.336   2.219   1.495  2.0476 -0.5654  1.9289
 3455TIP3    H231781   1.467   2.282   1.454 -0.1384  1.9923 -1.8477
 3456TIP3   OH231782   2.376   5.707  15.565  0.3441  0.0106 -0.0509
 3456TIP3    H131783   2.352   5.624  15.523 -0.9663  0.2375  0.2000
 3456TIP3    H231784   2.415   5.759  15.495 -0.1306 -0.2921 -0.5490
 3457TIP3   OH231785   3.611   0.499  11.651  0.1660 -0.1684  0.7882
 3457TIP3    H131786   3.663   0.534  11.578 -0.5297  0.7101  0.6955
 3457TIP3    H231787   3.535   0.459  11.609  0.0214 -0.1183  1.0032
 3458TIP3   OH231788   4.602   3.678  11.468 -0.4083 -0.1183  0.2686
 3458TIP3    H131789   4.690   3.690  11.502  0.1456 -0.1748 -1.0576
 3458TIP3    H231790   4.605   3.595  11.420 -1.6499 -0.9638  1.5731
 3459TIP3   OH231791   6.525   6.126  14.183 -0.0496 -0.0483 -0.5468
 3459TIP3    H131792   6.483   6.057  14.234 -0.5790 -0.7252 -1.8648
 3459TIP3    H231793   6.511   6.205  14.235  1.1012 -0.9871  1.2937
 3460TIP3   OH231794   0.925   1.628   2.994 -0.0732  0.5308 -0.5787
 3460TIP3    H131795   0.929   1.687   3.070 -0.2461 -1.4256  1.0114
 3460TIP3    H231796   0.874   1.553   3.024 -0.1338 -0.3215 -2.6453
 3461TIP3   OH231797   0.087   0.207   0.501 -0.5800 -0.3767 -0.2559
 3461TIP3    H131798   0.135   0.148   0.560  2.3335  2.4197  0.4551
 3461TIP3    H231799   0.006   0.226   0.547  0.0565 -1.0101  1.2023
 3462TIP3   OH231800   5.126   1.957   3.824  0.4507 -0.2643  0.0483
 3462TIP3    H131801   5.051   2.017   3.828  0.0613 -0.5839 -1.6292
 3462TIP3    H231802   5.096   1.879   3.871  1.2529  1.0706  2.9601
 3463TIP3   OH231803   4.144   1.807   5.730  0.2559 -0.3765 -0.2818
 3463TIP3    H131804   4.086   1.873   5.766 -0.1125 -1.5638  1.4083
 3463TIP3    H231805   4.205   1.856   5.675 -0.0507  1.3440  0.8333
 3464TIP3   OH231806   4.837   6.091  11.125 -0.7150  0.0657  0.4988
 3464TIP3    H131807   4.892   6.117  11.198  0.1990 -1.6449  0.4636
 3464TIP3    H231808   4.785   6.018  11.159 -0.9848 -0.1040 -0.2615
 3465TIP3   OH231809   3.314   1.323   3.565  0.1133 -0.1262 -0.2499
 3465TIP3    H131810   3.402   1.355   3.588  0.8037 -1.9439 -0.1852
 3465TIP3    H231811   3.330   1.241   3.520 -1.5738 -0.3782 -0.4383
 3466TIP3   OH231812   0.562   0.511  12.566 -0.5403  0.4568  0.5919
 3466TIP3    H131813   0.536   0.511  12.658  1.2080 -1.4700  1.1668
 3466TIP3    H231814   0.612   0.592  12.556  0.5678 -0.0384  1.7914
 3467TIP3   OH231815   3.295   5.608  10.552 -0.2600 -0.1431 -0.0877
 3467TIP3    H131816   3.203   5.627  10.532  0.1621 -0.4665 -2.6180
 3467TIP3    H231817   3.345   5.664  10.494  1.1279 -1.1568  0.0613
 3468TIP3   OH231818   1.192   4.440  15.662  0.5985  0.3493  0.3006
 3468TIP3    H131819   1.181   4.356  15.707  0.3044 -0.9682 -2.0844
 3468TIP3    H231820   1.196   4.417  15.569  1.2929  2.9247 -0.3754
 3469TIP3   OH231821   2.554   0.933  10.727  0.2846 -0.1957 -0.3373
 3469TIP3    H131822   2.481   0.878  10.698  0.1796 -0.0010 -0.4390
 3469TIP3    H231823   2.588   0.972  10.647  0.2555  0.0176 -0.2460
 3470TIP3   OH231824   1.600   3.583   0.558 -0.3369 -0.2400  0.1291
 3470TIP3    H131825   1.647   3.557   0.637  0.4667 -1.5808 -0.7476
 3470TIP3    H231826   1.604   3.678   0.558  1.1510 -0.2663  0.8311
 3471TIP3   OH231827   3.929   1.165  14.954 -0.9655  0.4088  0.2251
 3471TIP3    H131828   3.883   1.248  14.963 -0.4823  0.7248 -0.1449
 3471TIP3    H231829   4.021   1.187  14.970 -0.7574  0.0561 -0.4426
 3472TIP3   OH231830   0.937   4.044   5.993  0.4347  0.2724 -0.3557
 3472TIP3    H131831   0.982   4.009   5.915  0.5978 -3.0941  1.0570
 3472TIP3    H231832   1.001   4.034   6.063 -0.8747 -0.1327  0.8268
 3473TIP3   OH231833   0.449   0.892  16.582 -0.5225  0.3396 -0.5434
 3473TIP3    H131834   0.363   0.933  16.582  0.2017  1.9738 -0.3275
 3473TIP3    H231835   0.467   0.873  16.674 -0.4035  0.6024 -0.5095
 3474TIP3   OH231836   0.004   1.977  11.587 -0.6756 -0.0742  0.0265
 3474TIP3    H131837  -0.054   1.996  11.660  0.4541  0.6968  0.7484
 3474TIP3    H231838   0.092   1.992  11.621  0.0015 -1.5424 -0.9373
 3475TIP3   OH231839   4.899   0.210   1.036  0.2094 -0.9323  0.3511
 3475TIP3    H131840   4.826   0.268   1.013  0.0735 -1.4442 -0.5647
 3475TIP3    H231841   4.902   0.212   1.132  0.3324  0.7202  0.3367
 3476TIP3   OH231842   1.234   2.147  12.060 -0.1968 -0.7935  0.0471
 3476TIP3    H131843   1.234   2.233  12.102  0.2852  0.1528 -1.7842
 3476TIP3    H231844   1.223   2.085  12.132  0.8272  0.7215  1.5901
 3477TIP3   OH231845   6.283   4.827   0.282  0.5119  0.5465  0.8098
 3477TIP3    H131846   6.298   4.917   0.312  1.0164  0.7662 -0.0593
 3477TIP3    H231847   6.290   4.832   0.187  0.4187 -0.3969  0.7423
 3478TIP3   OH231848   1.627   3.302   1.158  0.0938 -0.4208 -0.0036
 3478TIP3    H131849   1.558   3.317   1.223 -0.0755  0.6644 -0.4211
 3478TIP3    H231850   1.589   3.331   1.075  1.6464  1.9212  0.0364
 3479TIP3   OH231851   3.999   2.049  11.531  0.3819 -0.2367  0.1884
 3479TIP3    H131852   3.940   1.983  11.494  0.5420 -0.5014  0.3996
 3479TIP3    H231853   3.946   2.127  11.540  0.3254 -0.1757 -0.5692
 3480TIP3   OH231854   6.199   1.478   3.742 -0.0823 -0.5561 -0.1015
 3480TIP3    H131855   6.131   1.526   3.695  0.6789  1.0193  0.3562
 3480TIP3    H231856   6.175   1.486   3.834 -0.6397 -2.1800 -0.0791
 3481TIP3   OH231857   0.538   4.576   1.995 -0.1571  0.5662 -0.1208
 3481TIP3    H131858   0.547   4.610   2.084  0.3032  0.5967 -0.1759
 3481TIP3    H231859   0.625   4.588   1.956 -0.3708  0.6007 -0.5893
 3482TIP3   OH231860   0.796   3.813  16.164  0.0844 -0.0101 -0.9063
 3482TIP3    H131861   0.729   3.817  16.095  0.3062  1.3305 -1.0833
 3482TIP3    H231862   0.746   3.812  16.246 -0.1706 -0.9721 -1.0630
 3483TIP3   OH231863   3.492   0.040  11.564 -0.0155 -0.9886 -0.1729
 3483TIP3    H131864   3.409   0.015  11.525 -0.6241 -0.3930  0.6909
 3483TIP3    H231865   3.517  -0.034  11.618  0.1928 -1.3044 -0.6976
 3484TIP3   OH231866   4.004   5.108  12.165 -0.1290  0.1394 -0.3506
 3484TIP3    H131867   3.934   5.155  12.210 -0.7013  0.0111 -1.0849
 3484TIP3    H231868   4.051   5.175  12.115 -0.1629  0.1258 -0.4018
 3485TIP3   OH231869   4.245   4.201  13.030 -0.4707 -0.6263 -0.5749
 3485TIP3    H131870   4.149   4.196  13.032 -0.4702 -1.7700 -1.9658
 3485TIP3    H231871   4.274   4.139  13.096 -0.6834 -0.3418 -0.2101
 3486TIP3   OH231872   1.808   4.150   3.179  0.0022  0.0222  0.0014
 3486TIP3    H131873   1.818   4.244   3.166 -1.1023  0.1963  0.3123
 3486TIP3    H231874   1.757   4.120   3.104 -2.3682  0.2484  1.3910
 3487TIP3   OH231875   2.427   5.105   4.334 -0.6718 -0.8087  0.0848
 3487TIP3    H131876   2.522   5.115   4.342 -0.8757  0.5032  1.4423
 3487TIP3    H231877   2.414   5.061   4.250  1.0003  1.4069 -1.4609
 3488TIP3   OH231878   2.435   3.111   1.815 -0.1044  0.2475  0.4007
 3488TIP3    H131879   2.383   3.078   1.741 -0.4283 -0.5501  0.9728
 3488TIP3    H231880   2.524   3.082   1.796 -0.5420 -1.9670  1.4099
 3489TIP3   OH231881   3.283   5.097   5.126  0.0306 -0.5761  0.1824
 3489TIP3    H131882   3.285   5.003   5.140 -0.4708 -0.5559  0.4435
 3489TIP3    H231883   3.367   5.118   5.086  2.0452 -0.5064  4.0079
 3490TIP3   OH231884   1.812   3.749   4.238 -0.2408  0.0714 -0.0839
 3490TIP3    H131885   1.738   3.694   4.215  1.0773 -0.9525 -2.2404
 3490TIP3    H231886   1.808   3.757   4.333 -2.8754 -0.2138 -0.1093
 3491TIP3   OH231887   2.910   2.634  11.556  0.3491 -0.1338  0.6053
 3491TIP3    H131888   2.961   2.697  11.505  0.0030 -0.7517 -0.5272
 3491TIP3    H231889   2.973   2.599  11.619  0.8451  0.4683  0.4637
 3492TIP3   OH231890   4.262   5.548   5.713  0.1718  0.2952 -0.4955
 3492TIP3    H131891   4.331   5.510   5.767  0.7571  1.8206 -0.1104
 3492TIP3    H231892   4.183   5.537   5.765  0.9680  3.3047  1.6490
 3493TIP3   OH231893   3.264   3.950  13.369  0.2589 -0.0984  0.2612
 3493TIP3    H131894   3.331   3.936  13.302 -0.0185  0.3153 -0.1061
 3493TIP3    H231895   3.193   3.994  13.323  0.6483  1.5022  1.1378
 3494TIP3   OH231896   5.447   2.338   5.368  0.1444 -0.3524  0.1403
 3494TIP3    H131897   5.464   2.269   5.431  2.1698  0.7375  0.8926
 3494TIP3    H231898   5.482   2.305   5.286  0.1897 -0.6076  0.2607
 3495TIP3   OH231899   5.317   1.890  13.412  0.3525  0.1136 -0.0272
 3495TIP3    H131900   5.296   1.967  13.359  1.1746  0.7746  0.5866
 3495TIP3    H231901   5.269   1.903  13.494 -0.8954 -0.8924 -0.5688
 3496TIP3   OH231902   2.975   3.031  15.020 -0.0228 -0.1135 -0.0894
 3496TIP3    H131903   2.952   2.938  15.015 -0.6365  0.0363 -0.1327
 3496TIP3    H231904   3.066   3.032  15.049 -0.4441 -0.6936  1.3316
 3497TIP3   OH231905   1.822   5.964   3.887  0.1190 -0.4950  0.8492
 3497TIP3    H131906   1.829   6.055   3.917 -1.8154  0.6596 -1.7669
 3497TIP3    H231907   1.906   5.947   3.844  0.7678 -0.2269  1.9613
 3498TIP3   OH231908   2.749   5.000  10.636 -0.5113  0.3768  0.3994
 3498TIP3    H131909   2.796   5.081  10.657 -1.8056  1.4877 -0.7897
 3498TIP3    H231910   2.659   5.028  10.620 -0.8269 -1.1906 -0.8138
 3499TIP3   OH231911   5.198   1.105   1.541 -0.4355  0.0038 -0.2144
 3499TIP3    H131912   5.132   1.094   1.609 -0.8712 -1.0008 -0.7811
 3499TIP3    H231913   5.233   1.193   1.555 -0.4597 -0.2054  1.3455
 3500TIP3   OH231914   4.550   2.883  13.218  0.3755 -0.0298 -0.3659
 3500TIP3    H131915   4.487   2.867  13.288  0.8600  1.4194  0.4504
 3500TIP3    H231916   4.562   2.798  13.176 -1.6569 -0.4684 -0.1776
 3501TIP3   OH231917   6.109   5.793  15.006 -0.0954 -0.2404  0.3333
 3501TIP3    H131918   6.023   5.762  14.980 -0.0393  0.0003 -0.1323
 3501TIP3    H231919   6.123   5.872  14.955  0.7796 -0.7638 -0.2711
 3502TIP3   OH231920   5.323   3.782  15.987 -0.2236 -0.1438  0.1097
 3502TIP3    H131921   5.361   3.697  15.962 -0.0036 -0.8681  2.6218
 3502TIP3    H231922   5.243   3.759  16.034 -1.1526  1.1719 -0.7780
 3503TIP3   OH231923   6.604   2.340   1.528  0.0521 -0.4197  0.0384
 3503TIP3    H131924   6.596   2.263   1.472 -1.7174 -0.7410  0.6456
 3503TIP3    H231925   6.513   2.363   1.550  0.6308  0.3985  1.8053
 3504TIP3   OH231926   5.341   5.726  14.040 -0.3760  0.5168 -0.4902
 3504TIP3    H131927   5.322   5.676  13.961 -0.2548 -0.5529  0.1334
 3504TIP3    H231928   5.273   5.699  14.102 -0.5164  1.4037 -0.2527
 3505TIP3   OH231929   1.804   3.704   5.118  0.1364 -0.2427  0.5033
 3505TIP3    H131930   1.742   3.671   5.183  0.2081  0.4967  0.9628
 3505TIP3    H231931   1.835   3.787   5.155 -1.0588  1.0431 -1.1933
 3506TIP3   OH231932   2.136   5.072  13.191 -0.6392  0.3044  0.0450
 3506TIP3    H131933   2.048   5.074  13.153 -1.3656 -0.2009  1.5842
 3506TIP3    H231934   2.127   5.119  13.274  0.3049 -0.5394  0.6557
 3507TIP3   OH231935   5.855   3.385   3.252  0.2354 -0.0172  0.1759
 3507TIP3    H131936   5.874   3.479   3.247 -1.1393  0.3278  0.9838
 3507TIP3    H231937   5.915   3.345   3.189 -0.2302  1.5577 -1.3338
 3508TIP3   OH231938   4.981   5.465  13.960 -0.0995 -0.1426  0.2501
 3508TIP3    H131939   4.903   5.419  13.991 -2.3387  2.4242 -1.0331
 3508TIP3    H231940   5.020   5.502  14.039 -0.8710 -0.5303  0.8338
 3509TIP3   OH231941   1.141   5.967   0.485  0.1271 -0.0612 -0.0444
 3509TIP3    H131942   1.196   5.897   0.520 -2.1191 -1.3657  1.0257
 3509TIP3    H231943   1.171   6.045   0.531  1.0862 -0.7146  0.4870
 3510TIP3   OH231944   6.240   5.038  12.789 -0.4413 -0.9109  0.0093
 3510TIP3    H131945   6.326   5.012  12.756 -0.0278  0.2909  0.0898
 3510TIP3    H231946   6.216   5.112  12.734 -1.2864 -1.0397  0.2034
 3511TIP3   OH231947   1.442   1.388   1.374 -0.0816  0.4771 -0.3701
 3511TIP3    H131948   1.532   1.402   1.344 -0.3009  0.1150 -1.2264
 3511TIP3    H231949   1.419   1.471   1.416  0.6905  0.5343 -0.0315
 3512TIP3   OH231950   2.050   4.768  14.876 -0.2473  0.0212 -0.2787
 3512TIP3    H131951   2.001   4.689  14.852 -0.0182 -0.6419  1.3179
 3512TIP3    H231952   2.137   4.737  14.899  0.1720  0.8834 -0.6424
 3513TIP3   OH231953   3.097   5.045   4.038  0.3776 -0.3649  0.3207
 3513TIP3    H131954   3.050   4.987   4.098  0.2177 -0.4915  0.0783
 3513TIP3    H231955   3.142   4.985   3.978 -1.3305 -0.2691 -1.1369
 3514TIP3   OH231956   6.585   1.882   4.196  0.3664  0.6848 -1.1599
 3514TIP3    H131957   6.589   1.840   4.110 -3.1289 -1.7541 -0.3444
 3514TIP3    H231958   6.547   1.968   4.179 -0.2478  0.2436 -2.0734
 3515TIP3   OH231959   3.162   2.721  15.204  0.0668  0.5622 -0.5278
 3515TIP3    H131960   3.080   2.703  15.250 -0.1653  0.0026 -1.1496
 3515TIP3    H231961   3.136   2.737  15.114  0.5719  1.1587 -0.5791
 3516TIP3   OH231962   3.623   3.604   4.644 -0.0189 -0.4055  0.2431
 3516TIP3    H131963   3.682   3.529   4.650  0.0017 -0.4848 -0.7548
 3516TIP3    H231964   3.627   3.630   4.552 -0.0430  0.8138  0.5732
 3517TIP3   OH231965   2.175   5.987   4.743  0.2234  0.0633  0.1751
 3517TIP3    H131966   2.199   5.945   4.826 -0.3111 -0.1742  0.2184
 3517TIP3    H231967   2.135   6.070   4.769 -0.9019 -0.4783  0.2182
 3518TIP3   OH231968   5.914   3.152   5.178 -0.2526 -0.4557  0.1179
 3518TIP3    H131969   5.945   3.115   5.260  1.4792 -0.8621 -0.6756
 3518TIP3    H231970   5.871   3.234   5.204  0.3484 -0.5184  1.4083
 3519TIP3   OH231971   1.338   1.047  15.581  0.3104  0.0659 -0.2642
 3519TIP3    H131972   1.376   1.088  15.659  2.0216 -1.3368 -0.2897
 3519TIP3    H231973   1.390   1.082  15.509  1.5725 -1.7968 -0.3150
 3520TIP3   OH231974   1.475   2.937   5.687 -0.1245 -0.4323  0.2304
 3520TIP3    H131975   1.438   2.849   5.675  0.2057 -0.5186 -0.2147
 3520TIP3    H231976   1.524   2.931   5.769 -1.2341 -0.2606  0.9124
 3521TIP3   OH231977   5.656   4.935   4.401 -0.5111  0.2770 -0.4614
 3521TIP3    H131978   5.683   4.844   4.417 -1.7247 -0.1825 -0.9457
 3521TIP3    H231979   5.725   4.970   4.345 -0.0613 -0.3608 -0.3237
 3522TIP3   OH231980   1.324   3.306   2.590 -0.0564 -0.2137  0.4477
 3522TIP3    H131981   1.373   3.246   2.646  0.5921 -0.1954 -0.0866
 3522TIP3    H231982   1.266   3.250   2.539  0.6713 -0.4184 -0.1747
 3523TIP3   OH231983   4.188   5.932  11.248  0.1012  0.0898  0.0682
 3523TIP3    H131984   4.234   6.012  11.273  0.3698 -0.1413  0.3076
 3523TIP3    H231985   4.112   5.963  11.198 -0.2189  0.5317  0.8136
 3524TIP3   OH231986   5.730   4.072  14.617 -0.1046 -0.1691 -0.5073
 3524TIP3    H131987   5.663   4.101  14.679 -0.4686  0.3967 -1.1466
 3524TIP3    H231988   5.703   4.110  14.534  1.6286  1.0699 -0.5637
 3525TIP3   OH231989   5.977   2.075  16.698 -0.0031 -0.1172 -0.3159
 3525TIP3    H131990   6.022   2.111  16.774 -0.6482  1.0346 -0.4561
 3525TIP3    H231991   6.045   2.071  16.630  0.9227 -2.4040  0.6306
 3526TIP3   OH231992   6.761   1.300  16.958 -0.5314  0.6308  0.1401
 3526TIP3    H131993   6.672   1.335  16.950 -0.1208  1.9007  0.7736
 3526TIP3    H231994   6.757   1.214  16.915 -1.8988  0.9282 -0.3989
 3527TIP3   OH231995   5.494   4.893  14.501  0.4261 -0.1044 -0.8498
 3527TIP3    H131996   5.573   4.918  14.548 -0.3055  1.1712 -0.2424
 3527TIP3    H231997   5.476   4.804  14.531  1.1034 -0.0582 -0.2660
 3528TIP3   OH231998   6.548   0.509  12.012 -0.2338 -0.2382  0.5336
 3528TIP3    H131999   6.464   0.527  12.054 -0.1699 -0.2006  0.6455
 3528TIP3    H232000   6.593   0.451  12.073  1.2930  2.4983  2.2161
 3529TIP3   OH232001   2.756   1.986   3.850  0.3579  0.0946 -0.6413
 3529TIP3    H132002   2.749   1.992   3.945  0.4714  0.1761 -0.6382
 3529TIP3    H232003   2.671   2.014   3.818 -0.0921 -1.0617 -0.5242
 3530TIP3   OH232004   4.813   4.695   5.621  0.2769  0.0502 -0.3418
 3530TIP3    H132005   4.850   4.752   5.688 -0.3039  0.4600 -0.3575
 3530TIP3    H232006   4.719   4.716   5.622 -0.4413 -2.6778  1.4523
 3531TIP3   OH232007   1.603   0.987  14.692  0.0790  0.0367 -0.1695
 3531TIP3    H132008   1.541   0.948  14.754  1.0611 -0.8531  0.2797
 3531TIP3    H232009   1.652   0.912  14.658  3.1706  0.9117  1.9433
 3532TIP3   OH232010   4.606   0.643   1.717 -0.6932  0.7133  0.1422
 3532TIP3    H132011   4.588   0.614   1.627 -0.6374 -1.2895  0.7238
 3532TIP3    H232012   4.565   0.576   1.772 -0.3261  1.6575  1.6132
 3533TIP3   OH232013   2.194   0.768  16.459 -0.2595  0.2136  0.9923
 3533TIP3    H132014   2.279   0.780  16.501  0.5594  2.0193 -1.0163
 3533TIP3    H232015   2.212   0.711  16.384 -0.5564  1.4772 -0.0742
 3534TIP3   OH232016   0.337   4.176  16.762  0.6414  0.3415 -0.2434
 3534TIP3    H132017   0.269   4.125  16.718  0.2518 -0.5028  1.2596
 3534TIP3    H232018   0.383   4.111  16.817  0.8900  1.3856  0.8212
 3535TIP3   OH232019   0.251   5.497   5.851  0.3931  0.8134  0.0675
 3535TIP3    H132020   0.164   5.481   5.888  0.6916 -1.5454 -0.1342
 3535TIP3    H232021   0.237   5.500   5.757  0.7493 -1.8388 -0.1465
 3536TIP3   OH232022   1.903   2.029   1.480 -0.6727 -0.4760  0.4928
 3536TIP3    H132023   1.912   2.120   1.508  0.2103  0.6491 -2.8953
 3536TIP3    H232024   1.822   2.027   1.429  1.2217 -0.4356 -2.7944
 3537TIP3   OH232025   4.820   4.526  13.874 -0.1840  0.3083 -0.7314
 3537TIP3    H132026   4.858   4.516  13.787 -1.8444 -2.1897 -1.3047
 3537TIP3    H232027   4.859   4.456  13.925  2.6073  3.1780  1.4097
 3538TIP3   OH232028   4.193   6.185  15.475  1.0569  0.6078  0.0807
 3538TIP3    H132029   4.114   6.144  15.509  0.8764  1.4748  0.7371
 3538TIP3    H232030   4.162   6.250  15.412  1.4337 -2.1897 -3.2920
 3539TIP3   OH232031   5.827   4.957   3.901  0.1479 -0.4738 -0.5250
 3539TIP3    H132032   5.789   4.930   3.818  3.1689  0.6411 -2.3906
 3539TIP3    H232033   5.896   4.894   3.919  0.5039  0.1439  0.3902
 3540TIP3   OH232034   0.959   5.466   0.964 -0.2902 -0.1982 -0.3741
 3540TIP3    H132035   0.954   5.371   0.952  0.0036 -0.2943  0.2271
 3540TIP3    H232036   0.978   5.500   0.877  1.2474 -0.8152 -0.3094
 3541TIP3   OH232037   5.355   3.003  15.215  0.0242  0.2356  0.2203
 3541TIP3    H132038   5.378   3.020  15.124 -0.7733 -0.1689 -0.0682
 3541TIP3    H232039   5.260   3.018  15.218 -0.0079 -0.1014  0.8993
 3542TIP3   OH232040   6.506   5.079   4.150 -0.1738  0.9528  0.0773
 3542TIP3    H132041   6.496   5.104   4.242  1.0753  1.2839  0.1364
 3542TIP3    H232042   6.599   5.061   4.140 -0.3168  0.8092 -1.1049
 3543TIP3   OH232043   4.068   2.658  11.008  0.6043 -0.2167  0.0365
 3543TIP3    H132044   4.155   2.648  10.970  0.4243  0.5333 -0.5898
 3543TIP3    H232045   4.064   2.749  11.038  0.5140 -0.6091  1.3022
 3544TIP3   OH232046   0.123   3.142   3.081 -0.0563 -0.0276 -0.4853
 3544TIP3    H132047   0.115   3.195   3.161  1.3095  0.3923 -0.6025
 3544TIP3    H232048   0.041   3.155   3.035 -0.8756 -0.2705  0.8399
 3545TIP3   OH232049   0.388   6.666  13.185  0.3810  0.0692 -0.1209
 3545TIP3    H132050   0.419   6.589  13.137 -0.0711  0.0169 -0.3382
 3545TIP3    H232051   0.371   6.731  13.117 -0.0601  0.0691 -0.0117
 3546TIP3   OH232052   6.511   3.880   1.602 -0.2385  0.0781  0.3602
 3546TIP3    H132053   6.466   3.963   1.618 -1.8961 -0.6437 -0.3873
 3546TIP3    H232054   6.601   3.896   1.632  0.3453  3.1030 -2.4098
 3547TIP3   OH232055   5.782   4.750   1.705 -0.2477  0.2037  0.3025
 3547TIP3    H132056   5.833   4.678   1.742  0.9018  0.3306 -0.9685
 3547TIP3    H232057   5.701   4.751   1.757  0.3210 -1.0748  1.2683
 3548TIP3   OH232058   4.762   3.511   5.165 -0.8055 -0.2672 -0.4859
 3548TIP3    H132059   4.845   3.522   5.120 -1.2806  0.9865 -1.0836
 3548TIP3    H232060   4.751   3.591   5.215 -2.3683  0.2560 -1.6093
 3549TIP3   OH232061   5.269   0.770  11.207 -0.3338 -0.2537 -0.2740
 3549TIP3    H132062   5.364   0.770  11.196 -0.4226  1.4365 -1.3669
 3549TIP3    H232063   5.245   0.677  11.204  1.3571 -0.7863  1.0567
 3550TIP3   OH232064   6.111   5.434   0.829  0.0799  0.4210  0.0880
 3550TIP3    H132065   6.038   5.492   0.807  0.5531  0.9685 -0.0617
 3550TIP3    H232066   6.088   5.351   0.789 -0.6314  0.4838  0.3479
 3551TIP3   OH232067   3.612   0.476  13.573  0.3634  0.4464 -0.1650
 3551TIP3    H132068   3.540   0.430  13.530  1.8147 -1.8676 -0.2982
 3551TIP3    H232069   3.626   0.427  13.654  1.2775  1.3385  0.2408
 3552TIP3   OH232070   2.184   3.475  11.670 -0.1151  0.4433 -0.1747
 3552TIP3    H132071   2.195   3.449  11.579  0.4681  0.0667  0.0020
 3552TIP3    H232072   2.112   3.538  11.668 -0.5520 -0.0682 -0.8014
 3553TIP3   OH232073   4.816   1.752  13.477 -0.3991 -0.5079 -0.7088
 3553TIP3    H132074   4.771   1.765  13.560  1.5590  1.5163  0.1241
 3553TIP3    H232075   4.856   1.666  13.484  1.1365  0.3011  1.2065
 3554TIP3   OH232076   1.331   3.456  12.759  0.1296  0.4021  0.0117
 3554TIP3    H132077   1.292   3.426  12.677  0.7453  0.8718 -0.4578
 3554TIP3    H232078   1.319   3.551  12.759  1.7194  0.6328 -0.4051
 3555TIP3   OH232079   2.676   1.156  13.893  0.4115  0.8018  0.3146
 3555TIP3    H132080   2.601   1.172  13.950  0.2127  2.3098 -0.3021
 3555TIP3    H232081   2.640   1.110  13.818  0.4923 -0.2903  0.9288
 3556TIP3   OH232082   2.030   4.820   6.223 -0.0817 -0.0619  0.2469
 3556TIP3    H132083   2.016   4.902   6.270 -1.6329 -0.3992  0.4235
 3556TIP3    H232084   2.064   4.760   6.289 -0.9727 -0.1538  0.6274
 3557TIP3   OH232085   4.906   4.015   5.944 -0.0747  0.5232 -0.3397
 3557TIP3    H132086   4.813   4.020   5.925 -0.3230 -1.6286  0.0896
 3557TIP3    H232087   4.934   3.932   5.905  0.9725 -0.3766  2.1259
 3558TIP3   OH232088   2.146   1.375  16.383 -0.4535  0.9568  0.0150
 3558TIP3    H132089   2.202   1.449  16.407  1.1068 -0.0991 -0.2150
 3558TIP3    H232090   2.079   1.373  16.451  1.3893  0.6194  1.9380
 3559TIP3   OH232091   0.698   6.160  12.097 -0.0228  0.4516 -0.6448
 3559TIP3    H132092   0.605   6.177  12.080 -0.6128 -0.1054  1.6565
 3559TIP3    H232093   0.726   6.232  12.154  1.0207  0.7011 -1.4477
 3560TIP3   OH232094   3.080   5.716   0.713 -0.4507  0.1321 -0.0633
 3560TIP3    H132095   2.996   5.680   0.682 -1.4657  1.8543  0.5523
 3560TIP3    H232096   3.078   5.700   0.808  0.0901 -0.1416 -0.0973
 3561TIP3   OH232097   2.502   4.875   1.485  0.0256 -0.9690 -0.6376
 3561TIP3    H132098   2.503   4.780   1.496 -0.3522 -0.8823  0.2818
 3561TIP3    H232099   2.423   4.903   1.531  0.5271 -0.1385 -0.2551
 3562TIP3   OH232100   6.550   1.396  13.446  0.0880  0.1215 -0.0363
 3562TIP3    H132101   6.492   1.363  13.378  0.8465 -1.9664  0.2480
 3562TIP3    H232102   6.493   1.415  13.520 -0.1770 -4.3614  1.1765
 3563TIP3   OH232103   3.732   2.071  14.294  0.6923  0.7732 -0.1097
 3563TIP3    H132104   3.669   2.005  14.323  0.7111 -0.4936 -2.6848
 3563TIP3    H232105   3.679   2.149  14.276 -0.2280 -0.2133 -2.0525
 3564TIP3   OH232106   1.685   0.309  14.988  0.3973 -0.1456 -0.0292
 3564TIP3    H132107   1.779   0.328  14.994  0.3933  0.1914 -0.9128
 3564TIP3    H232108   1.680   0.213  14.984  0.5179 -0.3416  2.7389
 3565TIP3   OH232109   2.882   3.357   1.106  0.0382  0.5909  0.0595
 3565TIP3    H132110   2.973   3.332   1.126  0.0651  0.0463 -0.7061
 3565TIP3    H232111   2.891   3.432   1.047 -0.0063  0.4632 -0.1096
 3566TIP3   OH232112   3.958   1.855  15.471  0.4156 -0.0202 -0.1308
 3566TIP3    H132113   3.922   1.837  15.384 -1.0815  2.2098 -0.0605
 3566TIP3    H232114   3.895   1.916  15.511  0.8722 -1.1883  2.6605
 3567TIP3   OH232115   6.259   2.885  14.552  0.1475 -0.2590  0.6474
 3567TIP3    H132116   6.269   2.791  14.535  0.6159 -0.1232  0.1497
 3567TIP3    H232117   6.224   2.889  14.641  0.0193 -0.9071  0.6353
 3568TIP3   OH232118   1.605   1.253  11.411 -0.2570 -0.0443  0.0995
 3568TIP3    H132119   1.630   1.343  11.430  0.6394 -0.5882  1.6389
 3568TIP3    H232120   1.655   1.229  11.333  0.1827  0.4937  0.2193
 3569TIP3   OH232121   5.379   3.857  12.264  0.0276  0.6238  0.0570
 3569TIP3    H132122   5.467   3.871  12.229  0.8612 -2.1684  0.8101
 3569TIP3    H232123   5.362   3.935  12.317  2.8781  0.4139  1.4662
 3570TIP3   OH232124   2.628   5.041  12.631  0.1788  0.2084 -0.4567
 3570TIP3    H132125   2.571   5.005  12.563  0.2516 -0.2681 -0.2693
 3570TIP3    H232126   2.647   4.967  12.688 -1.2978  0.9446  1.0953
 3571TIP3   OH232127   1.696   5.799   0.599  0.1410 -0.3576  0.7124
 3571TIP3    H132128   1.674   5.761   0.514  0.4334  1.3792 -0.1962
 3571TIP3    H232129   1.713   5.724   0.656 -1.4192 -1.6058 -0.3694
 3572TIP3   OH232130   4.977   0.052  14.845 -0.6877 -0.0784  0.8088
 3572TIP3    H132131   4.997   0.057  14.752 -1.4831  2.9618  0.6969
 3572TIP3    H232132   5.059   0.023  14.886 -0.3504 -1.5161 -0.7782
 3573TIP3   OH232133   3.839   2.513   4.016 -0.3361  0.6710  0.1167
 3573TIP3    H132134   3.781   2.528   4.090  0.3481  1.1234  0.5718
 3573TIP3    H232135   3.900   2.587   4.018  1.2448 -0.5926  0.5944
 3574TIP3   OH232136   0.912   4.092   2.824 -0.7981  0.2798 -0.8903
 3574TIP3    H132137   0.976   4.102   2.753  1.0573 -1.3099  0.4608
 3574TIP3    H232138   0.905   4.180   2.862 -0.3853  0.7453 -1.8519
 3575TIP3   OH232139   4.129   5.384   0.726 -0.3964 -0.1718  0.1137
 3575TIP3    H132140   4.192   5.339   0.783 -0.4494 -0.7477 -0.2823
 3575TIP3    H232141   4.171   5.468   0.708  0.5815 -0.8084 -0.6904
 3576TIP3   OH232142   6.061   0.095  13.265 -0.1110  0.3738 -0.1920
 3576TIP3    H132143   6.073   0.066  13.356  2.4682 -1.7056 -1.0630
 3576TIP3    H232144   6.031   0.016  13.220  2.2692  0.2717 -1.7608
 3577TIP3   OH232145   1.555   3.556  13.348 -0.1908  0.0104  0.1326
 3577TIP3    H132146   1.514   3.642  13.359  1.8018  1.0133  0.3013
 3577TIP3    H232147   1.509   3.499  13.410 -1.7908  0.8480 -0.2406
 3578TIP3   OH232148   3.014   3.431  10.983  0.6703 -0.3586 -0.0568
 3578TIP3    H132149   3.058   3.376  11.048  0.4103 -1.1354 -0.5163
 3578TIP3    H232150   3.070   3.508  10.974  0.8237 -0.3467  0.9139
 3579TIP3   OH232151   3.926   5.516   1.906 -0.3243  0.5115 -0.3024
 3579TIP3    H132152   3.923   5.432   1.952 -0.1059  0.5550 -0.2067
 3579TIP3    H232153   4.013   5.518   1.866  0.6694  1.7494  1.7163
 3580TIP3   OH232154   2.286   4.737   0.087 -0.2500 -0.7732  0.7033
 3580TIP3    H132155   2.297   4.689   0.169  0.0730  0.2535  1.2730
 3580TIP3    H232156   2.191   4.743   0.076 -0.3105 -0.1336  1.4841
 3581TIP3   OH232157   5.092   4.971   1.783  0.2276  0.4345 -0.2858
 3581TIP3    H132158   5.086   4.973   1.878  2.6036  0.1623 -0.0710
 3581TIP3    H232159   5.183   4.948   1.765 -0.2440  0.1501 -2.6348
 3582TIP3   OH232160   3.855   2.611  16.685  0.2323 -0.5999  0.0126
 3582TIP3    H132161   3.770   2.651  16.671  0.2092 -0.6247  0.0798
 3582TIP3    H232162   3.882   2.642  16.772  0.8772  0.4624 -0.5429
 3583TIP3   OH232163   0.346   2.002   1.366 -0.5439 -0.0518  0.3357
 3583TIP3    H132164   0.345   1.961   1.453 -0.4565 -0.0556  0.3346
 3583TIP3    H232165   0.404   1.948   1.314  0.0366  0.4021  0.4954
 3584TIP3   OH232166   6.409   3.514   5.095  0.1292  0.2100 -0.2809
 3584TIP3    H132167   6.460   3.588   5.063  1.5698 -1.2522 -1.5684
 3584TIP3    H232168   6.475   3.453   5.130 -1.0367 -0.3489  1.0340
 3585TIP3   OH232169   3.894   2.883  15.747 -0.3210 -0.1424  1.0114
 3585TIP3    H132170   3.971   2.845  15.790  1.4613  2.1929  0.0715
 3585TIP3    H232171   3.821   2.861  15.806  1.2571 -1.2068  2.6837
 3586TIP3   OH232172   1.089   2.988  17.020 -0.0372  0.6159 -0.5825
 3586TIP3    H132173   1.040   3.033  16.952 -1.2471  0.1761 -0.0239
 3586TIP3    H232174   1.181   3.003  16.997 -0.3927  2.8071 -0.7498
 3587TIP3   OH232175   0.478   2.769   0.910  0.2660  0.0525  0.7517
 3587TIP3    H132176   0.490   2.676   0.891 -0.3306  0.2748 -0.8014
 3587TIP3    H232177   0.565   2.807   0.900  0.4288 -0.2607  0.9685
 3588TIP3   OH232178   5.389   0.923   4.193  0.2320 -0.3315 -0.2400
 3588TIP3    H132179   5.365   0.852   4.253 -3.5490  1.5365  0.7759
 3588TIP3    H232180   5.410   0.879   4.111 -0.2011 -2.7071  0.8352
 3589TIP3   OH232181   6.634   3.513  14.720  0.3273  0.7957 -0.3574
 3589TIP3    H132182   6.656   3.434  14.670  0.0008  1.4334 -1.5674
 3589TIP3    H232183   6.664   3.495  14.809  0.9270 -0.3934 -0.7786
 3590TIP3   OH232184   3.130   5.632   4.026  0.5271  0.3644  0.2704
 3590TIP3    H132185   3.095   5.564   3.969  0.6491 -0.0354  0.6685
 3590TIP3    H232186   3.063   5.645   4.093  0.7879  0.1661  0.5746
 3591TIP3   OH232187   6.626   4.005   6.157 -0.1872 -0.0487 -0.2536
 3591TIP3    H132188   6.547   3.953   6.168 -1.5867  2.1919  1.2056
 3591TIP3    H232189   6.698   3.945   6.176 -1.5603 -1.9109 -0.6961
 3592TIP3   OH232190   6.648   2.633   0.887  0.2930  0.4337 -0.1481
 3592TIP3    H132191   6.655   2.724   0.917 -3.2737  0.9520 -0.3488
 3592TIP3    H232192   6.664   2.638   0.792  2.4234  0.3888  0.1760
 3593TIP3   OH232193   0.671   1.489  11.789 -0.4288  0.0969  0.0204
 3593TIP3    H132194   0.766   1.499  11.796 -0.0838 -2.5561 -0.0336
 3593TIP3    H232195   0.637   1.579  11.791  1.9621  1.0451  1.4063
 3594TIP3   OH232196   4.219   2.311   4.571  0.1141  0.2321 -0.1318
 3594TIP3    H132197   4.228   2.217   4.583 -0.3606 -0.1754 -2.5629
 3594TIP3    H232198   4.301   2.348   4.605 -0.1099 -0.9180  1.7588
 3595TIP3   OH232199   1.062   2.384  16.030  0.3621  0.3504 -0.1509
 3595TIP3    H132200   1.051   2.322  16.102  1.7993 -0.0855 -0.2730
 3595TIP3    H232201   1.157   2.399  16.026  0.3784 -0.0715 -2.3079
 3596TIP3   OH232202   2.726   0.427  14.347 -0.2465  0.5924 -0.0550
 3596TIP3    H132203   2.771   0.418  14.262 -0.4844  1.6737 -0.3085
 3596TIP3    H232204   2.633   0.425  14.325 -0.3115  1.6967  0.0708
 3597TIP3   OH232205   5.350   0.109   6.228  0.2303  0.1890  0.1136
 3597TIP3    H132206   5.442   0.110   6.253  0.7154 -3.5485 -0.9717
 3597TIP3    H232207   5.351   0.097   6.133 -1.4231  0.6015  0.0024
 3598TIP3   OH232208   5.873   6.616  13.483  0.2002  0.6067 -0.2316
 3598TIP3    H132209   5.792   6.662  13.501  0.8453  2.3025 -1.3914
 3598TIP3    H232210   5.853   6.524  13.501 -2.0668  0.9294 -0.7990
 3599TIP3   OH232211   4.020   6.588  15.780  0.1294 -0.0946 -0.4613
 3599TIP3    H132212   4.059   6.504  15.756 -1.5613 -1.3299  0.8655
 3599TIP3    H232213   3.938   6.565  15.823 -0.0592  2.2290  0.5681
 3600TIP3   OH232214   6.046   2.509  11.519 -0.0003 -0.3645  0.4683
 3600TIP3    H132215   6.029   2.453  11.443 -0.1656  0.5085 -0.1540
 3600TIP3    H232216   5.998   2.468  11.591 -2.2016  0.2987 -0.5436
 3601TIP3   OH232217   2.107   1.879   6.425 -0.4054  0.1554 -0.0104
 3601TIP3    H132218   2.033   1.850   6.478 -0.8645 -3.3645 -2.2489
 3601TIP3    H232219   2.183   1.870   6.482 -1.1644 -1.0857  0.8591
 3602TIP3   OH232220   6.106   6.758  13.563 -0.1328  0.1472 -0.1858
 3602TIP3    H132221   6.036   6.703  13.528 -0.3718  1.0287 -1.1210
 3602TIP3    H232222   6.065   6.806  13.635  0.4409 -1.9009  1.6234
 3603TIP3   OH232223   5.392   4.398   5.132 -0.1056 -0.2011  0.2956
 3603TIP3    H132224   5.456   4.331   5.158  0.5229  0.2171 -0.1496
 3603TIP3    H232225   5.394   4.461   5.204 -0.4709 -0.4959  0.5691
 3604TIP3   OH232226   5.527   3.575  14.402  0.2714  0.1538  0.3600
 3604TIP3    H132227   5.524   3.484  14.430 -0.8412  0.0322 -0.1326
 3604TIP3    H232228   5.603   3.580  14.344 -0.1147 -0.6475 -0.2292
 3605TIP3   OH232229   0.463   1.027  13.031 -0.2173  0.8020 -0.0626
 3605TIP3    H132230   0.527   1.027  13.103  1.2629  0.9717 -1.3184
 3605TIP3    H232231   0.451   1.120  13.011  1.2512  0.7250 -1.5597
 3606TIP3   OH232232   1.308   4.314  11.106 -0.1573 -0.5292 -0.1007
 3606TIP3    H132233   1.314   4.309  11.011 -3.0020 -2.5721 -0.2979
 3606TIP3    H232234   1.235   4.374  11.123  2.5843  2.8281  1.0670
 3607TIP3   OH232235   3.948   6.580  12.887  0.1750 -0.1334  0.1902
 3607TIP3    H132236   3.980   6.515  12.951  0.1152  0.2119  0.5767
 3607TIP3    H232237   3.855   6.588  12.907  0.0587 -0.3705 -0.2522
 3608TIP3   OH232238   5.117   2.477   3.434  0.2412  0.4683 -0.1850
 3608TIP3    H132239   5.205   2.509   3.454  0.6572 -0.8614  0.2317
 3608TIP3    H232240   5.111   2.480   3.339  1.3722 -0.9463 -0.3377
 3609TIP3   OH232241   3.287   1.859   2.741 -0.0040  0.0634  0.0373
 3609TIP3    H132242   3.307   1.785   2.799 -0.8965  0.1026  0.4108
 3609TIP3    H232243   3.261   1.929   2.799  1.9075  1.0574 -0.2470
 3610TIP3   OH232244   3.495   6.490  17.130 -0.1378  0.4654  0.4768
 3610TIP3    H132245   3.584   6.497  17.164 -0.0451  2.4910 -0.0856
 3610TIP3    H232246   3.506   6.455  17.041 -0.1814 -2.0263  1.3507
 3611TIP3   OH232247   0.936   5.462  12.479  0.6961  0.4365 -0.4422
 3611TIP3    H132248   0.984   5.434  12.557  0.6938  1.5243 -0.0330
 3611TIP3    H232249   0.971   5.549  12.459 -1.0050  1.2276 -0.1891
 3612TIP3   OH232250   0.389   6.026   4.522  0.7633  0.1418 -0.0543
 3612TIP3    H132251   0.396   6.045   4.616  3.0833  0.0188 -0.1515
 3612TIP3    H232252   0.303   6.060   4.498 -1.6376 -3.1617  2.8154
 3613TIP3   OH232253   0.811   0.249  14.967 -0.2536  0.0860  0.7658
 3613TIP3    H132254   0.776   0.221  15.051 -1.2498  0.3048  0.4447
 3613TIP3    H232255   0.765   0.196  14.902 -1.0206  1.3136  0.2492
 3614TIP3   OH232256   0.982   1.205  14.058 -0.0622 -0.1678  0.3511
 3614TIP3    H132257   0.995   1.114  14.029  0.6662 -0.1848  0.7326
 3614TIP3    H232258   0.905   1.201  14.115  1.2149 -0.9166  2.0672
 3615TIP3   OH232259   0.237   5.960   2.584  0.7479  0.3392 -0.2516
 3615TIP3    H132260   0.314   5.905   2.596 -1.0507 -2.0088  1.6254
 3615TIP3    H232261   0.173   5.902   2.543 -0.9530  1.2585  0.9714
 3616TIP3   OH232262   1.663   5.682  10.895  0.1205 -0.1524 -0.4809
 3616TIP3    H132263   1.713   5.764  10.900  0.0250 -0.1730  2.0273
 3616TIP3    H232264   1.729   5.614  10.907 -0.1390 -0.3242 -0.0472
 3617TIP3   OH232265   4.215   4.500  15.179 -0.2354 -0.2017  0.0250
 3617TIP3    H132266   4.293   4.506  15.124  1.3233 -1.3442  1.9958
 3617TIP3    H232267   4.230   4.562  15.250 -0.2365 -1.6648  1.3779
 3618TIP3   OH232268   4.825   0.214   1.305 -0.1231  0.5742  0.1791
 3618TIP3    H132269   4.836   0.163   1.385 -0.9061 -0.7199 -0.4888
 3618TIP3    H232270   4.757   0.167   1.256  0.1726  1.4560 -1.1445
 3619TIP3   OH232271   6.046   2.093   6.061  0.0558 -0.5420 -0.3944
 3619TIP3    H132272   5.970   2.137   6.099  0.9170 -1.0025  2.0124
 3619TIP3    H232273   6.122   2.132   6.105  1.0210 -2.2923 -0.3941
 3620TIP3   OH232274   0.426   6.015   3.720 -0.0298  0.2081  0.0432
 3620TIP3    H132275   0.460   6.102   3.741  1.1556 -0.4574  0.9485
 3620TIP3    H232276   0.482   5.984   3.649  0.2727 -0.2738  0.4909
 3621TIP3   OH232277   4.440   3.357  17.073 -0.4078  0.5766  0.0032
 3621TIP3    H132278   4.380   3.323  17.007 -0.0164  0.5594 -0.3443
 3621TIP3    H232279   4.463   3.281  17.127  1.6786 -0.0993 -1.6944
 3622TIP3   OH232280   1.515   2.081  16.950  0.0961  0.1263 -0.3387
 3622TIP3    H132281   1.506   2.146  17.019  0.2165  0.5841 -0.7510
 3622TIP3    H232282   1.492   2.127  16.869 -0.2180 -0.4487 -0.5897
 3623TIP3   OH232283   5.802   2.001   1.298 -0.1549 -0.6959 -0.2362
 3623TIP3    H132284   5.767   1.999   1.387  1.2687  0.1457  0.3706
 3623TIP3    H232285   5.818   1.909   1.276 -1.4630 -0.9898 -0.0420
 3624TIP3   OH232286   3.802   3.907   6.113 -0.2247  0.0276  0.0524
 3624TIP3    H132287   3.857   3.832   6.137  0.6825  0.7046  0.1605
 3624TIP3    H232288   3.718   3.889   6.153  0.5899  0.0483  1.8557
 3625TIP3   OH232289   5.583   0.351  16.030 -0.3229  0.0185  0.0445
 3625TIP3    H132290   5.503   0.401  16.045  0.0874  0.3477  1.2694
 3625TIP3    H232291   5.652   0.417  16.026 -0.1177 -0.2528 -1.1341
 3626TIP3   OH232292   5.311   2.255  14.695 -0.2931 -0.0565 -0.4922
 3626TIP3    H132293   5.344   2.237  14.783 -0.6594  2.3032  0.2074
 3626TIP3    H232294   5.243   2.189  14.681 -0.7053 -0.0689  1.2967
 3627TIP3   OH232295   2.122   3.909  13.835 -0.7784  0.3574 -0.4086
 3627TIP3    H132296   2.172   3.916  13.917 -0.9250 -0.2736 -0.2581
 3627TIP3    H232297   2.172   3.960  13.772 -0.1282  0.0180 -0.1769
 3628TIP3   OH232298   3.298   4.283   4.876 -0.1628  0.0521  0.2764
 3628TIP3    H132299   3.286   4.356   4.936 -0.7836  0.5518 -0.4446
 3628TIP3    H232300   3.309   4.323   4.790  1.1706 -0.6347  0.0868
 3629TIP3   OH232301   1.844   6.035   1.081  0.0849 -0.2500  0.0805
 3629TIP3    H132302   1.912   6.069   1.023 -0.9324 -1.4076 -1.8809
 3629TIP3    H232303   1.869   5.944   1.098 -0.5552 -0.4486  0.0001
 3630TIP3   OH232304   6.099   2.245  13.893  0.4365  0.0427 -0.2581
 3630TIP3    H132305   6.184   2.280  13.869 -0.0902  0.3791 -1.7661
 3630TIP3    H232306   6.101   2.154  13.862  0.1035  0.1795 -0.6926
 3631TIP3   OH232307   3.646   3.333   0.518 -0.0061 -0.1273 -0.6440
 3631TIP3    H132308   3.665   3.426   0.520 -1.2003  0.1494 -1.3722
 3631TIP3    H232309   3.699   3.298   0.447  0.9585 -0.1526  0.0602
 3632TIP3   OH232310   4.471   4.388  13.352  0.4615  0.0217  1.0930
 3632TIP3    H132311   4.384   4.375  13.390 -0.8436  0.6815 -1.4986
 3632TIP3    H232312   4.472   4.332  13.275  2.1428  0.4355  0.7823
 3633TIP3   OH232313   5.745   1.202  11.923 -0.2798  0.4408  0.3417
 3633TIP3    H132314   5.761   1.152  11.842 -0.2183 -1.3735  1.4168
 3633TIP3    H232315   5.806   1.275  11.918  3.6207 -2.4632  1.0737
 3634TIP3   OH232316   5.562   1.405  12.708  0.0931 -0.5385  0.2531
 3634TIP3    H132317   5.605   1.441  12.630 -1.2832  0.9011  0.1229
 3634TIP3    H232318   5.586   1.465  12.778  0.6863 -1.4017  0.8153
 3635TIP3   OH232319   1.248   0.534  10.661  0.2658  0.1618 -0.3154
 3635TIP3    H132320   1.160   0.568  10.647  1.4136  2.6632 -2.3361
 3635TIP3    H232321   1.283   0.586  10.733 -0.1618 -1.5686  1.2351
 3636TIP3   OH232322   4.354   1.586  13.651  0.2452  0.4415 -0.2514
 3636TIP3    H132323   4.300   1.641  13.708 -0.3963 -0.1158 -0.3029
 3636TIP3    H232324   4.409   1.648  13.604  1.5941  0.8421  1.7480
 3637TIP3   OH232325   5.151   2.516   3.906 -0.3023 -0.1762 -0.1676
 3637TIP3    H132326   5.218   2.458   3.941 -0.4098 -0.9203 -1.1874
 3637TIP3    H232327   5.086   2.521   3.976  0.1783 -0.4881  0.3134
 3638TIP3   OH232328   2.796   4.535   1.780  0.0044  0.4593 -0.3693
 3638TIP3    H132329   2.705   4.532   1.808 -0.0881  1.1993 -0.5573
 3638TIP3    H232330   2.842   4.475   1.839 -0.8541 -1.1669 -1.3019
 3639TIP3   OH232331   4.457   6.198   0.355  0.2642  0.5456  0.1765
 3639TIP3    H132332   4.507   6.192   0.437  0.5053 -0.0443 -0.0103
 3639TIP3    H232333   4.521   6.180   0.286 -0.5916 -2.4898  0.0331
 3640TIP3   OH232334   6.488   3.861   1.041 -0.2833 -0.4371  0.0809
 3640TIP3    H132335   6.443   3.801   1.100 -0.6068 -0.7758 -0.5042
 3640TIP3    H232336   6.461   3.948   1.069 -0.3049 -0.5876  0.5320
 3641TIP3   OH232337   0.806   0.217  12.364 -0.0615 -0.1518 -0.2855
 3641TIP3    H132338   0.837   0.164  12.438 -0.8499  0.2606  0.3625
 3641TIP3    H232339   0.840   0.173  12.287  1.7397  0.0368  0.3689
 3642TIP3   OH232340   4.276   6.452  15.735 -0.4171 -0.3653  0.5057
 3642TIP3    H132341   4.253   6.450  15.642  0.3822  0.9911  0.2523
 3642TIP3    H232342   4.330   6.530  15.744 -1.9987  0.5893  2.4622
 3643TIP3   OH232343   1.690   0.998   0.331 -0.0272 -0.6077 -0.6603
 3643TIP3    H132344   1.670   0.922   0.276 -1.0234 -1.4219  0.7528
 3643TIP3    H232345   1.641   0.982   0.412  0.5208  1.0810  0.0417
 3644TIP3   OH232346   1.002   5.966  13.392  0.7682  0.2944 -0.0260
 3644TIP3    H132347   0.953   6.028  13.446 -1.4273 -0.0965 -1.4614
 3644TIP3    H232348   0.993   5.882  13.438 -1.5089 -0.1369 -1.1115
 3645TIP3   OH232349   1.838   4.414   2.971  0.4098 -0.3287  0.6912
 3645TIP3    H132350   1.881   4.445   3.050  1.2562 -1.3891  0.6704
 3645TIP3    H232351   1.909   4.377   2.918 -0.0773  0.7290 -0.7616
 3646TIP3   OH232352   0.464   0.089   2.864  0.0492  0.6366 -0.3413
 3646TIP3    H132353   0.511   0.082   2.947  2.5814 -1.9091 -1.7884
 3646TIP3    H232354   0.513   0.156   2.815  1.1334 -0.7281 -1.1871
 3647TIP3   OH232355   3.853   4.873  12.227 -0.0727 -0.2464  0.1123
 3647TIP3    H132356   3.769   4.918  12.235 -0.7446 -1.4670  0.2380
 3647TIP3    H232357   3.894   4.910  12.149 -0.5236  0.6851  0.3136
 3648TIP3   OH232358   4.603   5.007   0.097  0.1364 -0.0602  0.2180
 3648TIP3    H132359   4.508   5.018   0.102 -0.1487 -1.8355 -0.6405
 3648TIP3    H232360   4.616   4.912   0.095  1.9321  0.1524  0.2307
 3649TIP3   OH232361   6.553   1.316  11.810  0.3193  0.0362 -0.4687
 3649TIP3    H132362   6.613   1.391  11.813 -0.6318  0.8073  2.3534
 3649TIP3    H232363   6.515   1.318  11.722  0.8478  2.4299 -0.6939
 3650TIP3   OH232364   1.241   1.344  13.554 -0.3668 -0.0203  0.6140
 3650TIP3    H132365   1.178   1.313  13.618  0.4531  0.9679  1.9617
 3650TIP3    H232366   1.199   1.421  13.514 -1.6230 -1.6572 -1.3937
 3651TIP3   OH232367   4.084   5.920   4.343 -0.0236 -0.2349 -0.1784
 3651TIP3    H132368   4.091   5.826   4.364  0.2106 -0.2644 -0.3817
 3651TIP3    H232369   4.137   5.930   4.264  0.0961  0.1057 -0.0535
 3652TIP3   OH232370   1.891   0.130  16.486 -0.1238 -0.3805 -0.2942
 3652TIP3    H132371   1.873   0.070  16.413  1.0357 -1.4389  0.2522
 3652TIP3    H232372   1.983   0.154  16.475  0.8784 -2.6351  2.2190
 3653TIP3   OH232373   6.744   4.085   3.983  1.0573  0.1953  0.0574
 3653TIP3    H132374   6.749   4.121   4.071 -0.0315  1.4454 -0.3646
 3653TIP3    H232375   6.834   4.087   3.950  1.4842 -0.3458  1.1336
 3654TIP3   OH232376   5.543   0.182  13.865 -0.0439  0.0304 -0.2559
 3654TIP3    H132377   5.550   0.218  13.777  0.3243  0.8822  0.1176
 3654TIP3    H232378   5.546   0.087  13.852  0.4627  0.1545 -1.1222
 3655TIP3   OH232379   4.909   1.793  12.216 -0.1393 -0.0738 -0.0840
 3655TIP3    H132380   4.852   1.844  12.159  0.8981 -0.5683 -1.6235
 3655TIP3    H232381   4.924   1.711  12.168  2.0669  0.1451  0.1388
 3656TIP3   OH232382   2.397   5.430   0.152  0.0615 -0.5113  0.1134
 3656TIP3    H132383   2.351   5.513   0.138 -2.0628 -1.6848 -0.1939
 3656TIP3    H232384   2.413   5.396   0.064 -1.3508 -1.5737  0.2268
 3657TIP3   OH232385   5.372   4.164   6.033  0.4550 -0.2518 -0.6003
 3657TIP3    H132386   5.292   4.126   6.069  0.5483 -1.7344 -1.8331
 3657TIP3    H232387   5.434   4.091   6.031  1.7467  0.7908  0.0069
 3658TIP3   OH232388   1.416   1.351   0.221  0.2835  0.2847  0.3760
 3658TIP3    H132389   1.483   1.395   0.273 -0.7398  3.0759 -0.4833
 3658TIP3    H232390   1.440   1.368   0.130 -1.3592  1.1070  0.0489
 3659TIP3   OH232391   2.944   0.796  13.259  0.2101 -0.2527  0.0589
 3659TIP3    H132392   2.849   0.801  13.252  0.2480  0.1685 -0.1762
 3659TIP3    H232393   2.976   0.818  13.172  0.4924 -1.6051 -0.2016
 3660TIP3   OH232394   5.132   0.297  11.533  0.3827  0.2521  0.2828
 3660TIP3    H132395   5.210   0.244  11.513 -0.5746 -1.0385 -0.1473
 3660TIP3    H232396   5.113   0.276  11.624  0.3141  0.2860  0.2754
 3661TIP3   OH232397   0.570   5.756   4.876 -0.2197  0.0726  0.0034
 3661TIP3    H132398   0.617   5.688   4.827 -0.6913  0.8844 -1.6362
 3661TIP3    H232399   0.524   5.707   4.944  0.5480 -1.0915 -0.2651
 3662TIP3   OH232400   5.733   5.857  13.084 -0.2773 -0.0974 -0.2125
 3662TIP3    H132401   5.692   5.788  13.136 -1.3083 -0.5128 -1.5022
 3662TIP3    H232402   5.816   5.820  13.055  0.9775  0.6544  2.2242
 3663TIP3   OH232403   6.431   1.226   5.631  0.4077  0.0567 -0.0345
 3663TIP3    H132404   6.443   1.182   5.547  0.4866 -1.2119  0.6221
 3663TIP3    H232405   6.362   1.290   5.615  1.0399  0.4483 -1.2846
 3664TIP3   OH232406   5.027   0.595   0.818  0.0277 -0.2416 -0.0253
 3664TIP3    H132407   4.975   0.611   0.897  2.3262  1.1692  1.3156
 3664TIP3    H232408   4.968   0.616   0.746 -1.7515 -0.3157  1.3317
 3665TIP3   OH232409   1.239   2.411   1.756 -0.6079 -0.3862  0.1238
 3665TIP3    H132410   1.293   2.451   1.687 -0.4262 -0.9657 -0.0747
 3665TIP3    H232411   1.237   2.318   1.733 -1.9398 -0.3317 -0.0395
 3666TIP3   OH232412   2.217   6.590   4.301  0.0220 -0.3598  0.0831
 3666TIP3    H132413   2.231   6.683   4.323  1.6938 -0.9032  1.5691
 3666TIP3    H232414   2.296   6.564   4.255 -0.1263 -1.2187  0.2994
 3667TIP3   OH232415   6.137   2.011  11.563 -0.4395  0.2732  0.0546
 3667TIP3    H132416   6.172   1.960  11.636  2.1809  1.6048 -0.1678
 3667TIP3    H232417   6.214   2.039  11.515 -1.7250  4.0717 -0.0717
 3668TIP3   OH232418   1.160   1.424  15.629  0.1448 -0.0166  0.7501
 3668TIP3    H132419   1.130   1.512  15.608 -0.0184  0.5737  3.1933
 3668TIP3    H232420   1.248   1.435  15.663  0.2377 -0.8485  0.8128
 3669TIP3   OH232421   4.026   5.143   0.917 -0.0074 -0.5208 -0.0666
 3669TIP3    H132422   4.081   5.140   0.995  2.1135  0.6111 -1.4132
 3669TIP3    H232423   4.021   5.236   0.895  0.7139 -0.9117 -2.0809
 3670TIP3   OH232424   4.827   0.142  13.890 -0.5398 -0.2154 -0.3833
 3670TIP3    H132425   4.866   0.229  13.896 -0.3243  0.0672 -3.8501
 3670TIP3    H232426   4.901   0.082  13.888 -0.5464 -0.2049 -1.0135
 3671TIP3   OH232427   4.391   5.973  12.885  0.3412 -0.1952 -0.1036
 3671TIP3    H132428   4.394   6.046  12.947 -1.4543 -0.5031  0.3892
 3671TIP3    H232429   4.310   5.986  12.836  0.0472 -1.7901 -0.0881
 3672TIP3   OH232430   3.694   2.080   2.930  0.3358 -0.0888 -0.7197
 3672TIP3    H132431   3.728   2.160   2.970  0.3797  0.1632 -1.2532
 3672TIP3    H232432   3.739   2.075   2.845  0.4397 -0.7547 -0.6314
 3673TIP3   OH232433   0.290   3.932   3.206 -1.0801 -0.0708  0.4151
 3673TIP3    H132434   0.298   3.912   3.113  0.2234  1.2211  0.2075
 3673TIP3    H232435   0.298   3.847   3.249  0.9367 -0.4411 -0.5572
 3674TIP3   OH232436   3.338   2.855   5.725  0.5105 -0.2981  0.0887
 3674TIP3    H132437   3.379   2.866   5.639 -1.3648 -1.9496 -1.1011
 3674TIP3    H232438   3.403   2.809   5.778  2.0099  1.4562 -0.1071
 3675TIP3   OH232439   2.890   6.655   3.903 -0.4823  0.0899  0.4853
 3675TIP3    H132440   2.882   6.720   3.833  1.6561  0.8370  0.8665
 3675TIP3    H232441   2.947   6.587   3.866 -0.5421 -0.2451  0.9942
 3676TIP3   OH232442   0.232   6.495  17.186  0.0002  0.2265 -0.0069
 3676TIP3    H132443   0.144   6.467  17.160  0.8871 -3.7678  0.6613
 3676TIP3    H232444   0.217   6.565  17.249 -2.5876  0.6849 -0.9833
 3677TIP3   OH232445   1.478   3.034   6.569  0.7772 -0.6978 -0.0029
 3677TIP3    H132446   1.399   2.981   6.578  1.0863 -1.0290  0.9370
 3677TIP3    H232447   1.550   2.973   6.583  1.1298  0.0075  1.6103
 3678TIP3   OH232448   3.867   1.864  14.170  0.7975  0.3297  0.4800
 3678TIP3    H132449   3.807   1.791  14.183  1.5486 -0.2469  0.7941
 3678TIP3    H232450   3.835   1.933  14.228  1.0555 -0.3562  1.4733
 3679TIP3   OH232451   1.878   1.201   5.049 -0.1294  0.6150 -0.7515
 3679TIP3    H132452   1.949   1.255   5.083 -0.8363  1.2898 -0.2878
 3679TIP3    H232453   1.821   1.186   5.125 -0.5851  0.2662 -1.1510
 3680TIP3   OH232454   5.960   5.763   6.062 -0.0923  0.0044  0.7890
 3680TIP3    H132455   5.900   5.688   6.059  0.2262 -0.2821 -2.2508
 3680TIP3    H232456   6.047   5.725   6.074  0.0209 -0.1334 -0.3226
 3681TIP3   OH232457   0.583   1.438   1.441  0.2352  0.2058  0.0745
 3681TIP3    H132458   0.658   1.391   1.406  0.3996  1.1771 -0.9299
 3681TIP3    H232459   0.607   1.530   1.435  0.7370  0.4705  3.7962
 3682TIP3   OH232460   2.166   3.580   0.762 -0.0557  0.7930 -0.5009
 3682TIP3    H132461   2.238   3.641   0.779 -1.7297  2.8420 -0.4070
 3682TIP3    H232462   2.207   3.494   0.765  2.1331  1.7940  0.9896
 3683TIP3   OH232463   1.485   5.674  11.413  0.5083 -0.3771 -0.0144
 3683TIP3    H132464   1.551   5.742  11.424 -0.9308  0.8025  1.6658
 3683TIP3    H232465   1.450   5.659  11.500 -0.1789 -2.3331 -0.5602
 3684TIP3   OH232466   6.088   4.749  15.703 -0.8129  0.1873 -0.1693
 3684TIP3    H132467   6.116   4.660  15.725 -0.7294  0.6678  1.8923
 3684TIP3    H232468   6.169   4.796  15.685 -0.7913  0.0252 -0.4843
 3685TIP3   OH232469   5.811   6.173   4.845  0.3645 -0.3597  0.4508
 3685TIP3    H132470   5.777   6.235   4.910 -0.7308 -0.6494  0.1642
 3685TIP3    H232471   5.902   6.201   4.831 -0.3709  1.7685 -0.3730
 3686TIP3   OH232472   3.444   5.317  15.458  0.1033  0.3011  0.5726
 3686TIP3    H132473   3.516   5.314  15.522  0.6875 -1.7286 -0.1060
 3686TIP3    H232474   3.479   5.274  15.380 -1.3466  0.6850 -0.3231
 3687TIP3   OH232475   5.643   0.485  14.298  0.6387 -0.5049 -0.3066
 3687TIP3    H132476   5.640   0.524  14.386 -1.1654 -0.5161 -0.3282
 3687TIP3    H232477   5.571   0.422  14.297  2.0992 -2.2528 -1.0354
 3688TIP3   OH232478   4.265   1.485   0.006 -0.3687 -0.0714 -0.4633
 3688TIP3    H132479   4.209   1.453   0.077 -0.5403 -1.0344 -1.0109
 3688TIP3    H232480   4.347   1.436   0.017 -0.2973 -0.0187 -0.7588
 3689TIP3   OH232481   1.466   0.287   4.004  0.4765  0.0142  0.0259
 3689TIP3    H132482   1.408   0.348   3.957 -0.9886 -0.6277  0.9068
 3689TIP3    H232483   1.551   0.298   3.962  0.0409  1.9568 -0.4761
 3690TIP3   OH232484   1.782   2.524  13.938 -0.4417  0.7550 -0.1969
 3690TIP3    H132485   1.823   2.604  13.972 -1.3472  1.2012 -0.1087
 3690TIP3    H232486   1.690   2.548  13.925 -0.7098 -0.2465 -0.2612
 3691TIP3   OH232487   6.744   5.667  14.732  0.0321  0.2059 -0.2409
 3691TIP3    H132488   6.679   5.733  14.709 -0.3314 -0.6539 -1.8661
 3691TIP3    H232489   6.694   5.587  14.744  0.6530 -0.1734 -0.1110
 3692TIP3   OH232490   0.111   3.176  16.827 -0.3696 -0.1687 -0.3145
 3692TIP3    H132491   0.079   3.134  16.907  0.4430 -1.7908 -0.7977
 3692TIP3    H232492   0.064   3.259  16.823 -2.4119 -1.2008  0.4603
 3693TIP3   OH232493   5.393   5.301  13.352 -0.7559  0.0325 -0.4055
 3693TIP3    H132494   5.324   5.248  13.391 -2.5145  1.8807 -0.8564
 3693TIP3    H232495   5.408   5.371  13.415  0.6972 -0.2951 -0.3506
 3694TIP3   OH232496   4.156   3.430  15.449  0.5599  0.4383 -0.2195
 3694TIP3    H132497   4.249   3.429  15.425  0.5599 -0.9172 -0.2439
 3694TIP3    H232498   4.117   3.494  15.389  1.1176 -0.5508 -1.7222
 3695TIP3   OH232499   2.357   0.883  13.931 -0.1019 -0.0448 -0.2024
 3695TIP3    H132500   2.275   0.908  13.888  0.3986 -0.8132 -1.6534
 3695TIP3    H232501   2.328   0.836  14.010 -1.0986 -1.2622 -1.2506
 3696TIP3   OH232502   4.988   6.288  12.636  0.1154 -0.7172  0.0489
 3696TIP3    H132503   5.069   6.268  12.683  0.1344 -1.2586 -0.2131
 3696TIP3    H232504   5.012   6.287  12.544  0.3131  1.3583  0.0166
 3697TIP3   OH232505   1.993   1.994  15.191  0.6474  0.0384  0.4565
 3697TIP3    H132506   1.954   2.000  15.278 -1.6656  0.8958 -0.5501
 3697TIP3    H232507   2.024   2.083  15.173 -2.1250  0.8231 -0.9115
 3698TIP3   OH232508   2.799   6.486  15.041 -0.1985  0.2639  0.4816
 3698TIP3    H132509   2.816   6.504  14.948 -0.5726  1.5588  0.6457
 3698TIP3    H232510   2.884   6.461  15.077  0.3656  1.7526  0.2216
 3699TIP3   OH232511   3.773   3.019  11.222  0.3288 -0.2397 -0.0633
 3699TIP3    H132512   3.820   3.007  11.139 -1.7025  1.9504 -1.6583
 3699TIP3    H232513   3.821   3.088  11.267  0.0657  0.2696 -0.5531
 3700TIP3   OH232514   1.412   0.683   1.967 -0.1721 -0.4371  0.2496
 3700TIP3    H132515   1.437   0.606   1.916 -0.0008  0.0501 -0.4194
 3700TIP3    H232516   1.495   0.716   2.002  0.1621  0.9833 -1.6902
 3701TIP3   OH232517   1.635   6.468  14.694  0.0289  0.1742 -0.2688
 3701TIP3    H132518   1.572   6.446  14.762  1.5299  1.2625  1.5664
 3701TIP3    H232519   1.631   6.563  14.688  1.2123  0.2248 -0.4007
 3702TIP3   OH232520   3.604   3.020   1.590 -0.0472 -0.3618 -0.2765
 3702TIP3    H132521   3.631   3.004   1.680  0.3089 -3.3738 -0.8416
 3702TIP3    H232522   3.530   3.081   1.597  0.2689 -0.1712  1.9742
 3703TIP3   OH232523   5.408   3.339  14.125  0.5726 -0.2229  0.1994
 3703TIP3    H132524   5.497   3.310  14.141  0.8681  0.8652  0.5892
 3703TIP3    H232525   5.417   3.426  14.087 -0.3359  0.0565  0.5883
 3704TIP3   OH232526   3.735   3.391  14.915  0.5794 -0.1009  0.1273
 3704TIP3    H132527   3.772   3.325  14.857 -0.2431 -1.4450  1.0736
 3704TIP3    H232528   3.685   3.341  14.980 -0.4940  1.4718  0.5843
 3705TIP3   OH232529   6.631   5.177   1.194  0.3157  0.0176 -0.0940
 3705TIP3    H132530   6.559   5.118   1.218  0.2362 -0.6564 -1.8415
 3705TIP3    H232531   6.710   5.134   1.229  0.0461 -0.0370  0.4633
 3706TIP3   OH232532   6.445   2.215  12.274  0.2360 -0.2196 -0.4699
 3706TIP3    H132533   6.390   2.276  12.323  0.0399 -0.6347 -0.1644
 3706TIP3    H232534   6.383   2.159  12.226  0.3513 -1.1249  0.4014
 3707TIP3   OH232535   5.113   4.972  12.641  0.6013  0.8055  0.1152
 3707TIP3    H132536   5.192   4.972  12.695  2.1278 -0.5788 -1.9588
 3707TIP3    H232537   5.145   4.982  12.551 -1.6910  1.3116 -0.7264
 3708TIP3   OH232538   2.259   6.647   2.186 -0.6028  0.2781 -0.4238
 3708TIP3    H132539   2.317   6.693   2.247  1.6757 -0.3330 -1.9710
 3708TIP3    H232540   2.200   6.715   2.154  1.1768  1.6883 -0.9188
 3709TIP3   OH232541   3.659   1.570  16.678  0.1017 -0.0149  0.1085
 3709TIP3    H132542   3.649   1.482  16.640 -1.2429  0.1654 -0.0268
 3709TIP3    H232543   3.614   1.627  16.615  2.2465  1.0006 -0.5757
 3710TIP3   OH232544   1.594   0.824   5.443  0.0504 -0.0833 -0.4533
 3710TIP3    H132545   1.577   0.782   5.528  0.5719  0.3025 -0.1555
 3710TIP3    H232546   1.665   0.773   5.406  0.6721  0.5109 -0.0998
 3711TIP3   OH232547   0.670   1.093  16.414  0.5096 -0.1046 -0.0006
 3711TIP3    H132548   0.721   1.046  16.347 -0.9246 -3.0527  0.7918
 3711TIP3    H232549   0.674   1.036  16.491 -1.4669  1.0485  1.0367
 3712TIP3   OH232550   0.084   3.302   0.479 -0.4914 -0.5732 -0.3739
 3712TIP3    H132551   0.026   3.242   0.527  0.4879 -0.5332  0.9049
 3712TIP3    H232552   0.172   3.278   0.507  0.2583 -1.3451 -3.0852
 3713TIP3   OH232553   2.892   1.241   5.276 -0.0333  0.3571 -0.3206
 3713TIP3    H132554   2.947   1.188   5.334  0.2539 -1.4547 -2.1291
 3713TIP3    H232555   2.809   1.193   5.271 -0.7632  1.5359  0.1019
 3714TIP3   OH232556   4.215   2.169  12.062 -0.0351 -0.6019  0.1323
 3714TIP3    H132557   4.170   2.133  11.985 -0.4275 -0.8006  0.4507
 3714TIP3    H232558   4.157   2.149  12.135 -0.3195  0.7577  0.3084
 3715TIP3   OH232559   6.009   0.273   0.409  0.1481 -0.7368  0.3824
 3715TIP3    H132560   6.095   0.288   0.448  0.7699  2.2611 -1.6890
 3715TIP3    H232561   5.948   0.318   0.467  0.8102  1.9802 -0.8623
 3716TIP3   OH232562   0.614   6.718  12.404 -0.4506 -0.2997  0.1076
 3716TIP3    H132563   0.635   6.794  12.458 -0.8681 -0.4114  0.4320
 3716TIP3    H232564   0.520   6.726  12.386 -0.0649  0.5256 -1.8258
 3717TIP3   OH232565   1.898   2.542   5.278  0.2080 -0.1647  0.3373
 3717TIP3    H132566   1.898   2.484   5.202  1.1821  0.1861  0.0588
 3717TIP3    H232567   1.911   2.630   5.242  3.8096 -0.2594  1.0346
 3718TIP3   OH232568   3.603   6.053  12.452 -0.6417  0.0022  0.1667
 3718TIP3    H132569   3.586   6.116  12.382 -0.3715 -1.4162 -1.2429
 3718TIP3    H232570   3.622   5.971  12.406 -2.4518 -1.5114  1.9443
 3719TIP3   OH232571   3.762   2.146  15.187 -0.2424  0.5853 -0.2581
 3719TIP3    H132572   3.806   2.228  15.164 -2.7354  1.8095 -1.0640
 3719TIP3    H232573   3.762   2.095  15.106  2.7727 -1.0787  0.6349
 3720TIP3   OH232574   5.899   5.008  12.737 -0.0972 -0.1675  0.2578
 3720TIP3    H132575   5.838   4.949  12.691  1.7657 -1.6790 -0.3866
 3720TIP3    H232576   5.972   5.018  12.676  0.7928  0.7537  1.4469
 3721TIP3   OH232577   3.278   6.527  14.142 -0.2363 -0.3894  0.2393
 3721TIP3    H132578   3.230   6.571  14.213 -2.2554 -1.9726 -0.0404
 3721TIP3    H232579   3.328   6.458  14.186 -0.3107 -0.4140  0.2859
 3722TIP3   OH232580   4.097   0.422   1.619  0.5896 -0.5261 -0.1938
 3722TIP3    H132581   4.158   0.348   1.620 -1.4626 -2.2760  0.5238
 3722TIP3    H232582   4.031   0.398   1.554 -0.5977  0.2293  0.6948
 3723TIP3   OH232583   4.373   3.234   1.024  0.1864 -0.0996 -0.4402
 3723TIP3    H132584   4.380   3.197   0.936  1.1078  1.1666 -0.9336
 3723TIP3    H232585   4.297   3.291   1.020 -0.5909 -1.0864  0.0027
 3724TIP3   OH232586   0.758   3.774  16.463  0.1606 -0.4333  0.0329
 3724TIP3    H132587   0.839   3.734  16.494  0.1804 -1.5421 -1.3471
 3724TIP3    H232588   0.702   3.700  16.441 -0.3830  0.2978 -1.1228
 3725TIP3   OH232589   3.687   4.987  13.901  0.3920 -0.4473 -0.4918
 3725TIP3    H132590   3.670   4.914  13.840 -0.2814 -0.1382 -0.6822
 3725TIP3    H232591   3.759   5.035  13.861 -0.5746  0.2192 -1.4827
 3726TIP3   OH232592   5.599   1.074  15.623 -0.5090 -0.4580 -0.6101
 3726TIP3    H132593   5.636   0.988  15.605 -0.9659 -0.4630 -1.5701
 3726TIP3    H232594   5.632   1.130  15.553 -1.1959 -0.1399 -0.6848
 3727TIP3   OH232595   2.321   5.632   3.818 -0.1056 -0.0864  0.1057
 3727TIP3    H132596   2.254   5.699   3.836 -0.1233 -0.1371  0.2332
 3727TIP3    H232597   2.278   5.570   3.759 -0.5241 -0.6793  1.0041
 3728TIP3   OH232598   5.823   5.400  12.586 -0.5105  0.1629 -0.6906
 3728TIP3    H132599   5.730   5.375  12.581 -0.5889  0.2416  0.2065
 3728TIP3    H232600   5.860   5.372  12.502 -1.4714  0.6650 -1.2956
 3729TIP3   OH232601   1.952   5.604  16.410  0.0742 -0.0406 -0.2853
 3729TIP3    H132602   2.004   5.555  16.347 -0.4795 -0.8431 -0.1345
 3729TIP3    H232603   1.877   5.636  16.360 -0.1313 -0.2904 -0.1372
 3730TIP3   OH232604   1.749   5.916   5.091 -0.5993 -0.2992  0.5404
 3730TIP3    H132605   1.801   5.930   5.012 -0.4090  0.7964  0.8384
 3730TIP3    H232606   1.767   5.993   5.146 -2.2250 -0.0724  0.8234
 3731TIP3   OH232607   5.019   0.489   0.413  0.4267 -0.1607 -0.4853
 3731TIP3    H132608   4.939   0.437   0.406  0.9486 -0.9832 -0.4581
 3731TIP3    H232609   5.011   0.555   0.344 -1.3734  1.3169  1.0100
 3732TIP3   OH232610   3.239   3.497  12.575 -0.2544  0.1651 -0.3333
 3732TIP3    H132611   3.264   3.449  12.495  0.2459 -1.1388  0.5668
 3732TIP3    H232612   3.308   3.563  12.585 -0.1391  0.1229 -0.7941
 3733TIP3   OH232613   3.087   2.529   4.433  0.1253  0.3843  0.1658
 3733TIP3    H132614   3.001   2.568   4.444  1.0024  2.0696  1.5456
 3733TIP3    H232615   3.117   2.560   4.348 -0.1425  0.7603  0.2080
 3734TIP3   OH232616   3.323   5.332   3.178  0.3978  0.0828 -0.3957
 3734TIP3    H132617   3.342   5.372   3.093  0.0506  0.3147 -0.3689
 3734TIP3    H232618   3.394   5.360   3.235 -1.5863  3.7622  0.6489
 3735TIP3   OH232619   4.090   3.558  12.978 -0.1333 -0.4117 -0.3706
 3735TIP3    H132620   4.051   3.588  13.060  0.4233 -2.5690  0.7546
 3735TIP3    H232621   4.016   3.527  12.926 -0.5952  1.8107 -1.1267
 3736TIP3   OH232622   6.052   0.338   2.271 -0.3547 -0.3413 -0.2638
 3736TIP3    H132623   6.148   0.340   2.278 -0.4017  1.3355  0.2068
 3736TIP3    H232624   6.022   0.327   2.362 -0.6274  0.8594 -0.2013
 3737TIP3   OH232625   1.656   6.308  15.267 -0.0978  0.3949  0.3217
 3737TIP3    H132626   1.748   6.292  15.247 -0.0619 -1.9971  1.9923
 3737TIP3    H232627   1.612   6.303  15.182  1.0734 -0.3370 -0.2607
 3738TIP3   OH232628   5.502   0.564   0.714 -0.2304 -0.2803 -0.2397
 3738TIP3    H132629   5.499   0.655   0.743 -0.1638  0.3619 -2.1304
 3738TIP3    H232630   5.533   0.568   0.624  2.5046 -2.3838  0.4442
 3739TIP3   OH232631   6.130   5.455   5.793  0.3506  0.0920 -0.4813
 3739TIP3    H132632   6.125   5.506   5.874  0.0483  1.3172 -1.2382
 3739TIP3    H232633   6.077   5.377   5.810  0.8042  0.0159  0.6979
 3740TIP3   OH232634   6.740   3.339  17.093  0.6745 -0.4079  0.6095
 3740TIP3    H132635   6.803   3.268  17.108 -0.0871 -1.1793  0.2834
 3740TIP3    H232636   6.704   3.320  17.006  0.7172  0.5902  0.3666
 3741TIP3   OH232637   1.796   4.262   4.659  0.3009 -0.2809  0.0384
 3741TIP3    H132638   1.708   4.228   4.671  0.0322  0.1895 -0.5556
 3741TIP3    H232639   1.792   4.352   4.691  0.4519 -0.1156 -0.4006
 3742TIP3   OH232640   3.719   0.520  11.159  0.0304 -0.5224 -0.3151
 3742TIP3    H132641   3.644   0.483  11.111 -1.2352 -1.7677  2.4330
 3742TIP3    H232642   3.785   0.451  11.156 -0.1428 -0.7015 -0.0806
 3743TIP3   OH232643   1.003   3.262  14.316 -0.1147  0.1459  0.0855
 3743TIP3    H132644   1.090   3.267  14.277  0.3699 -2.1644  0.7173
 3743TIP3    H232645   1.018   3.225  14.403 -1.6944 -0.0539  0.2983
 3744TIP3   OH232646   3.793   2.058  13.167 -0.0396 -0.1848  0.2706
 3744TIP3    H132647   3.766   1.979  13.120 -0.1159  1.1498 -2.0853
 3744TIP3    H232648   3.887   2.045  13.184 -0.0965 -0.8666  0.0873
 3745TIP3   OH232649   5.187   0.760   4.395 -0.2176 -0.9096  1.0427
 3745TIP3    H132650   5.258   0.796   4.449 -0.2782 -2.4470  2.1980
 3745TIP3    H232651   5.107   0.786   4.440 -0.5776  1.8552 -0.8807
 3746TIP3   OH232652   5.803   6.745  13.210 -0.1833  0.0649 -0.4107
 3746TIP3    H132653   5.805   6.834  13.245 -2.3492  1.1441 -2.6790
 3746TIP3    H232654   5.780   6.690  13.285 -0.2149  1.5888  0.7490
 3747TIP3   OH232655   0.005   3.304   1.258  0.3188 -0.4024  0.3031
 3747TIP3    H132656  -0.062   3.320   1.325  1.1518  1.6373  0.7009
 3747TIP3    H232657   0.068   3.246   1.301 -0.4626 -1.2018  0.3915
 3748TIP3   OH232658   1.380   4.663  16.251  0.1517  0.1574  0.0977
 3748TIP3    H132659   1.413   4.585  16.205  0.3386 -0.0542  0.5758
 3748TIP3    H232660   1.378   4.637  16.343 -0.6158  0.4365  0.1664
 3749TIP3   OH232661   5.765   2.295   0.220 -0.0567  0.4381 -0.1858
 3749TIP3    H132662   5.772   2.260   0.131 -2.5959 -0.3364 -0.1650
 3749TIP3    H232663   5.675   2.330   0.225 -0.7802 -1.4647  2.6977
 3750TIP3   OH232664   2.561   4.125  16.303 -0.6199 -0.6256 -0.1099
 3750TIP3    H132665   2.573   4.151  16.394 -1.0820 -1.9434  0.3497
 3750TIP3    H232666   2.523   4.203  16.261  1.5790  0.7485  0.2875
 3751TIP3   OH232667   1.186   1.521  12.876  0.2333  0.0068 -0.5096
 3751TIP3    H132668   1.238   1.493  12.951  0.5403  0.7891 -0.4126
 3751TIP3    H232669   1.122   1.582  12.913 -1.2925 -1.5420 -0.5088
 3752TIP3   OH232670   4.761   3.436   6.452 -0.1786 -0.3773  0.0763
 3752TIP3    H132671   4.690   3.487   6.414  0.2185  0.8749  0.9545
 3752TIP3    H232672   4.745   3.440   6.547 -0.3441 -2.2165  0.1612
 3753TIP3   OH232673   1.159   3.578  14.740 -0.1762  0.0286 -0.2454
 3753TIP3    H132674   1.149   3.672  14.729  0.0294 -0.1119 -1.8611
 3753TIP3    H232675   1.178   3.567  14.833  1.9875  1.7882 -0.3913
 3754TIP3   OH232676   3.303   5.366   2.615 -0.0742  0.1880 -0.3152
 3754TIP3    H132677   3.380   5.310   2.619  0.0819  0.4210 -0.0016
 3754TIP3    H232678   3.229   5.306   2.625  0.1189  0.1094  0.7804
 3755TIP3   OH232679   2.927   5.247   4.180 -0.1564  0.2398  0.3444
 3755TIP3    H132680   2.973   5.201   4.110 -0.2399  0.0235  0.4296
 3755TIP3    H232681   2.975   5.328   4.191 -0.1362  0.2692  0.0435
 3756TIP3   OH232682   2.579   2.996   2.997 -0.1992  0.3057  0.1331
 3756TIP3    H132683   2.675   2.989   3.003 -0.2890 -0.3899  0.8545
 3756TIP3    H232684   2.562   3.090   3.004  0.4456  0.4749 -0.3635
 3757TIP3   OH232685   2.413   4.871  17.137  0.3258 -0.1313  0.0187
 3757TIP3    H132686   2.334   4.916  17.105 -0.3377 -0.2966  1.3682
 3757TIP3    H232687   2.383   4.818  17.210  1.9320  0.9445  1.5524
 3758TIP3   OH232688   4.601   5.673  14.681  0.4370  0.2749 -0.4727
 3758TIP3    H132689   4.582   5.610  14.751  1.4515 -0.4681 -0.8341
 3758TIP3    H232690   4.689   5.704  14.700 -0.1794  1.8669 -0.1190
 3759TIP3   OH232691   5.064   3.552  14.972 -0.4957 -0.3550  0.4127
 3759TIP3    H132692   5.087   3.480  15.030 -0.6619 -0.3700  0.4630
 3759TIP3    H232693   5.113   3.536  14.892 -0.7882 -0.7061  0.3011
 3760TIP3   OH232694   4.825   1.507  15.967 -0.1137 -0.1187  0.2809
 3760TIP3    H132695   4.837   1.552  15.883  3.8841  1.2104  1.3790
 3760TIP3    H232696   4.814   1.577  16.030 -1.9210 -1.0792  1.1094
 3761TIP3   OH232697   2.821   4.692   2.964  0.1714  0.6938  0.0152
 3761TIP3    H132698   2.791   4.632   2.896  1.2529  0.3588 -0.1863
 3761TIP3    H232699   2.836   4.775   2.919 -0.8778  1.0050  0.2079
 3762TIP3   OH232700   2.513   6.133   4.506  0.2496 -0.8981  0.3698
 3762TIP3    H132701   2.519   6.226   4.484  2.0950 -1.2978 -1.0843
 3762TIP3    H232702   2.421   6.112   4.495 -0.1999  0.7403  0.7091
 3763TIP3   OH232703   1.585   1.996   2.304 -0.2009  0.2605  0.4343
 3763TIP3    H132704   1.514   2.038   2.255 -0.9098 -0.5139  0.7667
 3763TIP3    H232705   1.655   1.986   2.240 -0.4817  0.8106  0.0317
 3764TIP3   OH232706   4.931   0.301   5.513  0.4466 -0.0428 -0.2952
 3764TIP3    H132707   4.999   0.266   5.571 -0.4515 -0.7166  0.3733
 3764TIP3    H232708   4.921   0.392   5.540  0.1553 -0.3075  0.5032
 3765TIP3   OH232709   0.488   2.847  10.886  0.6191  0.0703 -1.0462
 3765TIP3    H132710   0.456   2.933  10.858  1.0538  0.4299 -0.4473
 3765TIP3    H232711   0.543   2.865  10.962 -3.9347 -1.1387  3.0765
 3766TIP3   OH232712   1.612   5.552  16.780  0.5467 -0.6164  0.3646
 3766TIP3    H132713   1.691   5.606  16.777  0.7051 -0.8672 -0.9118
 3766TIP3    H232714   1.639   5.470  16.738 -0.2087 -0.9526  0.5263
 3767TIP3   OH232715   3.310   2.419   1.946 -0.3419  0.9891  0.1461
 3767TIP3    H132716   3.365   2.465   2.009 -2.3066 -0.1092  2.8293
 3767TIP3    H232717   3.231   2.473   1.938 -1.1304 -0.0735  0.5285
 3768TIP3   OH232718   1.506   4.324  11.963 -0.3367  0.3441  0.5149
 3768TIP3    H132719   1.463   4.356  11.884  0.5274  1.7910  0.5920
 3768TIP3    H232720   1.517   4.230  11.947 -0.0992  0.6130 -1.1276
 3769TIP3   OH232721   4.615   6.700   0.930  0.9228  0.2334 -0.3676
 3769TIP3    H132722   4.586   6.610   0.912  0.8148 -0.4200  2.5579
 3769TIP3    H232723   4.534   6.750   0.936  0.8616  0.0699  0.1489
 3770TIP3   OH232724   0.023   6.309  16.180  0.0014  0.1088 -0.3519
 3770TIP3    H132725  -0.035   6.297  16.255  0.9822 -1.8569  0.1657
 3770TIP3    H232726   0.059   6.397  16.192 -0.9789  0.4011  0.6595
 3771TIP3   OH232727   1.802   1.431   4.265  0.3443 -0.3099  0.1457
 3771TIP3    H132728   1.876   1.389   4.309  1.0381 -0.8075 -1.4362
 3771TIP3    H232729   1.840   1.475   4.189 -0.7190  1.1745  0.4312
 3772TIP3   OH232730   1.834   1.158  14.350  0.7451 -0.4200  0.2202
 3772TIP3    H132731   1.813   1.246  14.382  1.2763 -0.4912  0.7739
 3772TIP3    H232732   1.749   1.117  14.334  0.4774  0.6272 -1.2581
 3773TIP3   OH232733   0.837   0.572   0.294  0.5972  0.0689  0.4155
 3773TIP3    H132734   0.800   0.497   0.249  1.3176  0.3915 -0.7553
 3773TIP3    H232735   0.762   0.616   0.334 -0.1750  0.1465 -1.0528
 3774TIP3   OH232736   0.996   3.502   2.944 -0.0391 -0.4968 -0.9669
 3774TIP3    H132737   1.087   3.531   2.944  0.0178 -0.5841  0.6746
 3774TIP3    H232738   0.961   3.532   3.028 -1.4298 -0.7604 -1.4255
 3775TIP3   OH232739   0.448   6.224   3.382  0.4102 -0.1330  0.2012
 3775TIP3    H132740   0.481   6.231   3.472 -0.4226  2.3429  0.3808
 3775TIP3    H232741   0.369   6.278   3.381 -0.0127 -0.6997 -1.8650
 3776TIP3   OH232742   1.335   0.394  12.250  0.4330 -0.6159 -0.4624
 3776TIP3    H132743   1.419   0.351  12.262  1.3886  1.4992  1.0943
 3776TIP3    H232744   1.278   0.353  12.315  1.2580  0.1791  0.8208
 3777TIP3   OH232745   5.198   5.017   3.900 -0.2376  0.1561  0.0882
 3777TIP3    H132746   5.232   4.959   3.832 -1.0784 -0.4426  0.1622
 3777TIP3    H232747   5.196   5.103   3.858 -1.2504 -0.2935 -0.8513
 3778TIP3   OH232748   4.474   4.144   6.471 -0.0765 -0.1907 -0.1928
 3778TIP3    H132749   4.493   4.235   6.491 -0.5063 -0.2845  0.7026
 3778TIP3    H232750   4.557   4.108   6.441  0.8292 -0.1826  2.0621
 3779TIP3   OH232751   1.054   0.556   4.679  0.1003  0.0237 -0.9946
 3779TIP3    H132752   1.127   0.566   4.739 -0.1440 -1.4959 -0.3796
 3779TIP3    H232753   1.049   0.461   4.663 -2.1172 -0.0206 -0.4684
 3780TIP3   OH232754   3.347   0.618   1.125  0.0142 -0.1499 -0.4046
 3780TIP3    H132755   3.333   0.687   1.190  1.2987  0.4490 -0.7446
 3780TIP3    H232756   3.331   0.537   1.173 -0.3765  0.3317  0.3059
 3781TIP3   OH232757   4.070   1.175   3.205 -0.1476  0.1593 -0.2641
 3781TIP3    H132758   4.017   1.245   3.168 -0.1249 -0.1265 -0.8475
 3781TIP3    H232759   4.065   1.105   3.141  1.7586  0.4923 -0.8347
 3782TIP3   OH232760   1.293   3.611   2.131 -0.0644 -0.1939  1.1270
 3782TIP3    H132761   1.268   3.694   2.092 -0.0037 -0.2060  1.0607
 3782TIP3    H232762   1.366   3.633   2.190  0.6436 -0.3495  0.3284
 3783TIP3   OH232763   5.702   0.125  14.641  0.6385  0.3489 -0.1433
 3783TIP3    H132764   5.611   0.154  14.636  0.8779  0.9333 -3.8070
 3783TIP3    H232765   5.698   0.030  14.635  0.2735  0.3915 -0.5886
 3784TIP3   OH232766   1.341   6.242   1.926  0.1092 -0.0792 -0.5492
 3784TIP3    H132767   1.260   6.201   1.896  1.5267 -1.8237 -2.3361
 3784TIP3    H232768   1.360   6.200   2.010 -0.0307 -0.8748 -0.9073
 3785TIP3   OH232769   5.356   1.906   3.372 -0.0800  0.3627 -0.3055
 3785TIP3    H132770   5.261   1.912   3.384  0.0576  0.3479  0.8884
 3785TIP3    H232771   5.374   1.812   3.371 -0.0041  0.3703  0.1432
 3786TIP3   OH232772   0.344   1.949   5.737  0.6161 -0.2750 -0.5405
 3786TIP3    H132773   0.360   1.989   5.652  0.4324 -0.8179 -0.8387
 3786TIP3    H232774   0.415   1.979   5.792  1.3920 -0.8396 -1.2087
 3787TIP3   OH232775   5.375   2.671   4.538 -0.4233  0.3549  1.3488
 3787TIP3    H132776   5.466   2.674   4.569 -0.0395 -0.7678  0.4015
 3787TIP3    H232777   5.374   2.728   4.461 -0.2510 -0.4306  0.7486
 3788TIP3   OH232778   5.948   5.045  12.212 -0.9147  0.6612  0.1907
 3788TIP3    H132779   5.937   4.997  12.294 -1.4280 -0.2568 -0.4045
 3788TIP3    H232780   5.858   5.057  12.179 -0.7726  1.7196  0.1495
 3789TIP3   OH232781   2.228   0.594  16.242 -0.5404  0.0322  0.2113
 3789TIP3    H132782   2.243   0.500  16.239 -0.1652  0.0464  1.1817
 3789TIP3    H232783   2.156   0.609  16.181 -2.3322 -1.2412  1.8712
 3790TIP3   OH232784   0.583   5.393   0.119 -0.2041 -0.3428  0.0478
 3790TIP3    H132785   0.581   5.472   0.172 -0.2229 -0.9954  1.0511
 3790TIP3    H232786   0.653   5.340   0.157  0.7987 -0.2220 -1.5092
 3791TIP3   OH232787   5.558   5.466  16.160  0.0504  0.3010  0.2095
 3791TIP3    H132788   5.470   5.480  16.193  0.9701  0.8269  2.5992
 3791TIP3    H232789   5.576   5.373  16.178  0.7353  0.7079  1.7335
 3792TIP3   OH232790   4.652   1.406   0.565 -0.0584  0.3268  0.5748
 3792TIP3    H132791   4.596   1.391   0.489 -1.5505  0.0414  1.6912
 3792TIP3    H232792   4.612   1.355   0.635 -0.4241  2.8611  2.3325
 3793TIP3   OH232793   3.531   1.532  15.751 -0.2251 -0.5175 -0.1286
 3793TIP3    H132794   3.522   1.441  15.724 -1.5756 -0.9398  1.5273
 3793TIP3    H232795   3.624   1.542  15.772  0.3355 -0.8875 -2.2466
 3794TIP3   OH232796   4.861   3.278  16.284 -0.0304  0.2669 -0.2047
 3794TIP3    H132797   4.804   3.325  16.224 -0.5514  0.5214  0.4798
 3794TIP3    H232798   4.805   3.214  16.327  0.1384  0.6327  0.5953
 3795TIP3   OH232799   0.384   6.613  14.330 -0.2973  0.1880  0.7163
 3795TIP3    H132800   0.417   6.572  14.411 -1.5991 -0.4182  0.9650
 3795TIP3    H232801   0.440   6.578  14.261  0.0994 -0.1862  1.2204
 3796TIP3   OH232802   4.001   4.303  14.572  0.1116  0.0105  0.1734
 3796TIP3    H132803   3.988   4.224  14.625  0.8483 -0.8885 -0.9417
 3796TIP3    H232804   4.054   4.274  14.498  1.2809  1.7776  0.2597
 3797TIP3   OH232805   0.042   0.798   1.401 -0.1182  0.3749  0.0217
 3797TIP3    H132806   0.075   0.880   1.366 -1.8171  0.8183 -0.6326
 3797TIP3    H232807  -0.006   0.758   1.328 -0.4116 -0.5837  0.7108
 3798TIP3   OH232808   6.729   2.460   1.282  0.1302 -0.4417 -0.0842
 3798TIP3    H132809   6.668   2.454   1.356 -0.9593 -0.4372 -0.9572
 3798TIP3    H232810   6.749   2.370   1.260  1.5076 -0.4420  1.0274
 3799TIP3   OH232811   5.401   2.915   0.078 -0.3273  0.0293 -0.1266
 3799TIP3    H132812   5.337   2.946   0.014  0.4836  1.7474 -0.1632
 3799TIP3    H232813   5.368   2.945   0.162  0.3496  0.8398 -0.1358
 3800TIP3   OH232814   5.696   0.218  12.850  0.3306  0.1539 -0.2028
 3800TIP3    H132815   5.629   0.183  12.909 -0.8469  0.2501 -1.4373
 3800TIP3    H232816   5.698   0.157  12.776  1.0466  0.5832 -0.5518
 3801TIP3   OH232817   3.854   2.199   5.609  0.3458 -0.6965  0.3658
 3801TIP3    H132818   3.912   2.151   5.549 -1.1019 -1.8701 -0.1620
 3801TIP3    H232819   3.786   2.136   5.632  0.0146  0.2225  2.0547
 3802TIP3   OH232820   5.902   3.769  16.374 -0.9419 -0.4448  0.3265
 3802TIP3    H132821   5.955   3.804  16.302  0.2209 -0.1887  1.2779
 3802TIP3    H232822   5.817   3.811  16.364 -1.1179 -1.1241 -1.4367
 3803TIP3   OH232823   6.380   2.738  16.727 -0.2828 -0.3271  0.3674
 3803TIP3    H132824   6.447   2.675  16.753  0.0028 -1.0368 -1.9072
 3803TIP3    H232825   6.429   2.813  16.692 -0.6519  0.7567  2.0095
 3804TIP3   OH232826   1.412   3.659   3.566  0.0761  0.1054  0.0931
 3804TIP3    H132827   1.439   3.596   3.499  1.4464 -0.3987  1.0815
 3804TIP3    H232828   1.323   3.632   3.589 -0.8363  0.9270 -2.2231
 3805TIP3   OH232829   4.142   3.362   2.107 -0.5405 -0.5901 -0.2368
 3805TIP3    H132830   4.089   3.284   2.092  2.1151 -2.4575 -0.7473
 3805TIP3    H232831   4.166   3.392   2.019  1.5823 -1.6088 -0.0730
 3806TIP3   OH232832   5.922   6.131   2.153  0.8108  0.3113  0.4945
 3806TIP3    H132833   5.827   6.147   2.145  0.7345 -0.3169  0.0517
 3806TIP3    H232834   5.960   6.182   2.081  0.7360 -0.0127  0.2205
 3807TIP3   OH232835   4.420   5.834  17.111 -0.7297  0.0134 -0.0864
 3807TIP3    H132836   4.482   5.904  17.132  0.0822 -1.5485  3.5739
 3807TIP3    H232837   4.335   5.869  17.136 -0.0989 -0.7695  3.8669
 3808TIP3   OH232838   6.719   4.639  16.467  0.1052  0.1839  0.1807
 3808TIP3    H132839   6.660   4.566  16.486 -1.2123  1.2120  0.1027
 3808TIP3    H232840   6.763   4.612  16.386  1.5762 -1.6635  1.4970
 3809TIP3   OH232841   3.999   3.163   6.928 -0.4026 -0.4053 -0.1390
 3809TIP3    H132842   4.045   3.181   6.846  0.0403  0.5106  0.2922
 3809TIP3    H232843   3.917   3.211   6.920 -0.3672 -0.3301 -0.0580
 3810TIP3   OH232844   3.207   5.522   5.165 -0.0461  0.0979 -0.3406
 3810TIP3    H132845   3.298   5.543   5.144  0.2548 -1.3498 -0.5770
 3810TIP3    H232846   3.207   5.503   5.258 -0.4335  1.6532  0.0018
 3811TIP3   OH232847   0.967   6.343   3.545  0.0185 -0.3391 -0.1511
 3811TIP3    H132848   0.895   6.367   3.486 -0.1742 -1.6867 -0.4900
 3811TIP3    H232849   0.924   6.323   3.628  0.2717  1.3582  0.4414
 3812TIP3   OH232850   0.100   5.630   1.753  0.0217 -0.0270 -0.9648
 3812TIP3    H132851   0.065   5.695   1.815  1.2474  1.4096 -1.6948
 3812TIP3    H232852   0.023   5.586   1.718 -0.9179  1.4232 -0.8238
 3813TIP3   OH232853   0.801   5.541   4.819 -0.9680  0.1855 -0.7247
 3813TIP3    H132854   0.808   5.597   4.741  1.1141  1.4109  0.2500
 3813TIP3    H232855   0.853   5.464   4.797 -0.7561  0.3280 -0.7308
 3814TIP3   OH232856   3.123   3.088  14.461 -0.1336 -0.0720  0.8375
 3814TIP3    H132857   3.099   3.104  14.369  0.0254  0.0026  0.8077
 3814TIP3    H232858   3.213   3.120  14.467 -0.6961  1.4977  1.4340
 3815TIP3   OH232859   2.747   0.831  15.813  0.3188  0.0638  0.1684
 3815TIP3    H132860   2.697   0.896  15.862 -1.7611 -1.7151  0.5538
 3815TIP3    H232861   2.791   0.881  15.745 -1.9087  1.7771 -0.1069
 3816TIP3   OH232862   5.357   4.274   1.474 -0.0777  0.4955 -0.4304
 3816TIP3    H132863   5.290   4.333   1.509 -0.8028  0.7226 -2.1018
 3816TIP3    H232864   5.412   4.330   1.419 -0.4501 -0.2535 -1.6114
 3817TIP3   OH232865   6.398   6.019   5.918 -0.0931  0.4078 -0.4940
 3817TIP3    H132866   6.338   6.013   5.992 -0.7236  0.2208 -1.0055
 3817TIP3    H232867   6.481   5.985   5.951 -0.2825  0.6226  0.2098
 3818TIP3   OH232868   6.323   3.723   5.958 -0.2256 -0.5177  0.1863
 3818TIP3    H132869   6.329   3.685   6.046  1.4415  0.3133  0.4747
 3818TIP3    H232870   6.305   3.815   5.973  1.2018 -0.1345 -0.2591
 3819TIP3   OH232871   2.275   6.358  11.107 -0.4000 -0.4968  0.0022
 3819TIP3    H132872   2.240   6.378  11.020 -1.2855 -1.8507  0.0172
 3819TIP3    H232873   2.354   6.307  11.090 -0.2822 -0.3041 -0.0205
 3820TIP3   OH232874   2.604   3.626  13.195 -0.0896  0.0194  0.2447
 3820TIP3    H132875   2.551   3.569  13.250 -0.7878  1.2945  0.9429
 3820TIP3    H232876   2.543   3.660  13.130 -0.4097  2.1659  1.5660
 3821TIP3   OH232877   3.995   4.379  13.241 -0.4788 -0.0776 -0.6176
 3821TIP3    H132878   3.938   4.455  13.234  0.0972  0.2404 -2.6908
 3821TIP3    H232879   4.006   4.350  13.150  1.3346 -1.0955 -0.1140
 3822TIP3   OH232880   1.088   4.785   3.434  0.0720  0.4324 -0.1513
 3822TIP3    H132881   1.074   4.829   3.349 -3.4048  1.4545  0.7988
 3822TIP3    H232882   1.000   4.772   3.469  1.3567 -0.8069  2.9287
 3823TIP3   OH232883   5.379   5.862   4.579 -0.0040 -0.5046  0.4703
 3823TIP3    H132884   5.469   5.834   4.566 -0.2631 -1.3037  0.3588
 3823TIP3    H232885   5.346   5.881   4.491  0.4459  1.0656  0.6134
 3824TIP3   OH232886   1.966   6.010  13.344  0.2732  0.6567  0.0977
 3824TIP3    H132887   2.019   6.088  13.332  0.9064  0.3439  0.8487
 3824TIP3    H232888   1.993   5.973  13.428 -0.5274  0.0236  0.1008
 3825TIP3   OH232889   5.779   3.403  15.642  0.0679 -0.9013  0.0580
 3825TIP3    H132890   5.700   3.455  15.656  1.2370  0.9189  0.1832
 3825TIP3    H232891   5.846   3.467  15.620  1.2238 -2.5364 -1.4046
 3826TIP3   OH232892   4.788   6.374  13.574 -0.0006 -0.1732  0.4875
 3826TIP3    H132893   4.859   6.336  13.522 -0.5026 -1.3739  0.6415
 3826TIP3    H232894   4.746   6.436  13.515 -0.5448 -1.4881 -0.5622
 3827TIP3   OH232895   3.496   5.274   3.553  0.1599 -0.1351 -0.6371
 3827TIP3    H132896   3.514   5.307   3.465  2.2382 -2.4016 -1.1679
 3827TIP3    H232897   3.427   5.209   3.540 -1.5669  1.4664 -0.0712
 3828TIP3   OH232898   2.152   5.453   5.097 -0.1146  0.1539  0.4509
 3828TIP3    H132899   2.090   5.524   5.080 -1.4529 -0.6499  1.6798
 3828TIP3    H232900   2.230   5.496   5.129 -1.1497  1.0736  1.8353
 3829TIP3   OH232901   5.896   0.768  16.858 -0.3823  0.1385  0.4466
 3829TIP3    H132902   5.854   0.682  16.854  0.4819 -0.2718 -0.1269
 3829TIP3    H232903   5.984   0.754  16.822 -1.6869  2.1445 -4.4194
 3830TIP3   OH232904   2.009   4.354  11.304  0.2354 -0.1845 -0.3203
 3830TIP3    H132905   2.008   4.292  11.231  0.4102  0.1388 -0.6048
 3830TIP3    H232906   1.954   4.314  11.371 -1.0222  0.1036 -1.1398
 3831TIP3   OH232907   0.392   0.868   3.995 -0.1499 -0.1026 -0.1440
 3831TIP3    H132908   0.335   0.855   3.919 -1.0152 -0.1739  0.5024
 3831TIP3    H232909   0.433   0.782   4.008  0.0543 -0.0724 -0.5661
 3832TIP3   OH232910   2.577   0.276   4.813 -0.3665 -0.1867 -0.2991
 3832TIP3    H132911   2.639   0.341   4.778  1.1558 -1.3081  0.2064
 3832TIP3    H232912   2.573   0.296   4.906 -1.3998  0.3687 -0.4540
 3833TIP3   OH232913   3.139   1.935   2.188  0.6302  0.1133  0.6613
 3833TIP3    H132914   3.205   2.004   2.186  0.1372  0.6142  1.3410
 3833TIP3    H232915   3.055   1.981   2.190  0.3066 -0.4751  1.9383
 3834TIP3   OH232916   1.056   4.451  14.588  0.4165 -0.6090  0.1329
 3834TIP3    H132917   0.962   4.468  14.595  0.1051 -2.3044  0.4514
 3834TIP3    H232918   1.066   4.411  14.502  0.8938 -0.1510 -0.0233
 3835TIP3   OH232919   4.940   2.489   5.791 -0.2942 -0.0269 -0.3589
 3835TIP3    H132920   4.913   2.400   5.769  1.9646 -0.7626 -0.4310
 3835TIP3    H232921   4.916   2.500   5.883 -0.4597 -0.7721 -0.3082
 3836TIP3   OH232922   2.280   2.784  15.326 -0.7449  0.2881  0.0778
 3836TIP3    H132923   2.341   2.855  15.304  0.1371 -0.8420 -1.3450
 3836TIP3    H232924   2.323   2.736  15.396 -1.2027  0.9550  0.8316
 3837TIP3   OH232925   0.709   1.346   2.907 -0.4523 -0.2967 -0.0132
 3837TIP3    H132926   0.633   1.287   2.904 -1.0781  0.4971 -0.9488
 3837TIP3    H232927   0.673   1.428   2.942  0.0393 -0.0173 -0.1599
 3838TIP3   OH232928   3.728   2.149   1.650  0.0996 -0.1004 -0.6075
 3838TIP3    H132929   3.638   2.178   1.659 -0.5167 -1.0125 -3.1615
 3838TIP3    H232930   3.750   2.113   1.736 -1.6352  0.9592  0.3295
 3839TIP3   OH232931   1.541   0.371  15.234  0.2012 -0.7039  0.1336
 3839TIP3    H132932   1.593   0.350  15.156  1.0844 -1.2686  0.8634
 3839TIP3    H232933   1.604   0.406  15.297 -0.8272  2.0247 -0.1880
 3840TIP3   OH232934   2.921   5.852  15.042  0.1550  0.5423 -0.1144
 3840TIP3    H132935   2.842   5.827  14.995  1.2867 -0.6822 -1.4759
 3840TIP3    H232936   2.889   5.893  15.123 -1.8408  0.3227 -0.7337
 3841TIP3   OH232937   1.997   1.040   3.531 -0.4362 -0.0401  0.0026
 3841TIP3    H132938   1.981   1.058   3.624  1.2239  0.2817  0.2511
 3841TIP3    H232939   1.941   1.102   3.485  1.0795  2.0586  0.8298
 3842TIP3   OH232940   3.791   3.957  13.468  0.3782 -0.0246  0.2783
 3842TIP3    H132941   3.827   3.922  13.549 -2.0813  0.7619  1.8244
 3842TIP3    H232942   3.806   4.051  13.473  1.6619 -0.1265 -1.0119
 3843TIP3   OH232943   0.035   3.542  13.598  0.3254  0.1533  0.1725
 3843TIP3    H132944  -0.016   3.475  13.553 -1.7576  1.1818  0.8691
 3843TIP3    H232945   0.010   3.534  13.690  1.6972  0.4990  0.6014
 3844TIP3   OH232946   3.891   6.073  13.738 -0.0683  0.2757  0.0830
 3844TIP3    H132947   3.863   6.001  13.795 -0.9571  0.8399  0.3752
 3844TIP3    H232948   3.987   6.071  13.741 -0.0868 -0.7539  0.2551
 3845TIP3   OH232949   3.208   6.035  17.196 -0.2371 -0.4271  0.5619
 3845TIP3    H132950   3.287   6.022  17.248  0.6555  0.8850 -0.4120
 3845TIP3    H232951   3.168   6.114  17.233  1.4430  1.7024 -1.8477
 3846TIP3   OH232952   5.230   6.027   3.973  0.0328 -0.4109  0.4619
 3846TIP3    H132953   5.321   6.010   3.947  0.1390  1.1951 -0.3032
 3846TIP3    H232954   5.238   6.076   4.055 -0.0790  0.8200 -0.2414
 3847TIP3   OH232955   5.063   0.107   5.843 -0.2148  0.1639  0.2509
 3847TIP3    H132956   5.075   0.150   5.927 -0.6846 -1.4164  1.1693
 3847TIP3    H232957   4.973   0.075   5.845  0.4876 -1.9597  0.1656
 3848TIP3   OH232958   0.058   6.632  16.648 -0.6459 -0.6757  0.6294
 3848TIP3    H132959   0.098   6.584  16.721  2.2762 -0.1254 -0.4914
 3848TIP3    H232960   0.117   6.705  16.632 -2.1819  0.2590 -1.1380
 3849TIP3   OH232961   3.819   3.279   4.987 -0.2684 -0.3225  0.4929
 3849TIP3    H132962   3.809   3.212   4.919  0.8859  0.0102 -0.0368
 3849TIP3    H232963   3.760   3.349   4.961 -1.0507 -0.8768  0.7346
 3850TIP3   OH232964   4.219   1.658   4.838 -0.1827 -0.2052 -0.0460
 3850TIP3    H132965   4.146   1.711   4.868 -1.6960 -2.1497 -0.0732
 3850TIP3    H232966   4.261   1.626   4.918 -0.7516 -0.8847 -0.0169
 3851TIP3   OH232967   3.937   0.208  12.797 -0.7649 -0.3436 -0.4277
 3851TIP3    H132968   3.898   0.178  12.879 -0.5905  0.2155 -0.1360
 3851TIP3    H232969   4.018   0.158  12.789  0.4051  1.2210  0.9267
 3852TIP3   OH232970   2.435   1.640   4.509 -0.1510 -0.1739 -0.2311
 3852TIP3    H132971   2.399   1.568   4.457 -0.1173  0.7558 -1.6015
 3852TIP3    H232972   2.393   1.718   4.474  1.3971  0.6914 -0.2392
 3853TIP3   OH232973   1.473   2.919  15.399  0.5967 -1.1216  0.1178
 3853TIP3    H132974   1.422   2.852  15.355  0.8488 -1.2522  0.0234
 3853TIP3    H232975   1.441   3.002  15.362 -1.2703 -1.0144  1.8105
 3854TIP3   OH232976   6.359   4.532  13.719 -0.1171 -0.0369  0.4250
 3854TIP3    H132977   6.336   4.568  13.805 -0.7161 -0.5100  0.4654
 3854TIP3    H232978   6.314   4.448  13.715  0.0868 -0.1189 -0.2685
 3855TIP3   OH232979   6.444   0.681   0.969  0.4688 -0.0482 -0.4754
 3855TIP3    H132980   6.465   0.774   0.980  0.2248  0.6911 -4.4990
 3855TIP3    H232981   6.355   0.672   1.002  0.6606  1.0395  0.3938
 3856TIP3   OH232982   2.908   5.782  15.984 -0.3434  0.2272  0.0806
 3856TIP3    H132983   2.869   5.869  15.988  0.7216  0.7150  0.2748
 3856TIP3    H232984   2.901   5.747  16.073 -1.1578 -0.0633 -0.0963
 3857TIP3   OH232985   3.774   0.579   1.216 -0.7999  0.5129 -0.1827
 3857TIP3    H132986   3.764   0.651   1.154  2.3776  2.0982  0.9026
 3857TIP3    H232987   3.796   0.621   1.299 -1.5198 -1.6463  1.2063
 3858TIP3   OH232988   4.163   2.009  13.531 -0.9924  0.2766  0.3636
 3858TIP3    H132989   4.097   2.064  13.573  0.3293  1.9611  0.3303
 3858TIP3    H232990   4.243   2.061  13.532  0.7718 -2.2331  1.7073
 3859TIP3   OH232991   1.272   3.020   0.832 -0.4919  0.5614 -0.2839
 3859TIP3    H132992   1.243   3.075   0.759 -0.1673  1.6508  0.3866
 3859TIP3    H232993   1.237   3.063   0.910 -0.0109 -0.0516  0.2807
 3860TIP3   OH232994   6.223   4.678   5.434 -1.0711 -0.1847  0.5727
 3860TIP3    H132995   6.163   4.741   5.475  0.2862  0.9589  0.8837
 3860TIP3    H232996   6.263   4.726   5.362  0.0249 -0.6492  0.8431
 3861TIP3   OH232997   2.818   4.775  14.053  0.1208  0.1514 -0.0632
 3861TIP3    H132998   2.775   4.726  14.123  0.8627 -0.4200  0.0020
 3861TIP3    H232999   2.747   4.825  14.013 -0.5735 -0.6253  0.1591
 3862TIP3   OH233000   5.191   2.772  12.273 -0.0255  0.1266  0.3319
 3862TIP3    H133001   5.101   2.791  12.248 -0.4539 -2.2056 -0.1365
 3862TIP3    H233002   5.222   2.711  12.206  1.2011 -0.7007  1.6035
 3863TIP3   OH233003   2.028   5.060  15.955  0.4703 -0.1305  0.2115
 3863TIP3    H133004   2.034   5.151  15.985  1.1220 -0.5011  1.2760
 3863TIP3    H233005   2.114   5.042  15.917 -0.1664  0.1599 -1.4646
 3864TIP3   OH233006   0.991   5.758  13.172  0.0077 -0.4099  0.7829
 3864TIP3    H133007   0.898   5.744  13.151 -0.1158 -1.2520  1.7873
 3864TIP3    H233008   1.031   5.781  13.088 -0.9449 -0.9747  0.1474
 3865TIP3   OH233009   4.195   6.231   1.887 -0.2364  0.5590 -0.1314
 3865TIP3    H133010   4.278   6.186   1.904 -0.7584 -1.0062 -1.4125
 3865TIP3    H233011   4.133   6.191   1.947 -0.9062 -1.2030 -1.8805
 3866TIP3   OH233012   3.990   4.173  16.052 -0.5801 -0.0519  0.9417
 3866TIP3    H133013   4.015   4.181  16.144 -1.0626  0.0207  1.0652
 3866TIP3    H233014   3.973   4.262  16.023  0.2775  0.0087  0.5778
 3867TIP3   OH233015   6.731   2.823  12.793 -0.3020 -0.2282 -0.0187
 3867TIP3    H133016   6.696   2.795  12.709  0.5380 -1.0465 -0.1147
 3867TIP3    H233017   6.792   2.754  12.818  0.9189  0.9286  0.3302
 3868TIP3   OH233018   4.268   2.539   3.274 -0.1900 -0.4840  0.0728
 3868TIP3    H133019   4.257   2.634   3.269 -1.7069 -0.6663 -0.3946
 3868TIP3    H233020   4.227   2.514   3.357  0.3587 -0.7336  0.2790
 3869TIP3   OH233021   6.383   5.393  13.898  0.0132  0.1854  0.3105
 3869TIP3    H133022   6.444   5.406  13.971 -1.5284  0.1341  1.6983
 3869TIP3    H233023   6.414   5.315  13.854  0.9388  0.1478  0.9932
 3870TIP3   OH233024   1.113   0.819   2.131 -0.5485  0.0330 -0.5040
 3870TIP3    H133025   1.153   0.736   2.159 -0.6630  0.4289  0.8645
 3870TIP3    H233026   1.123   0.877   2.206 -3.0661  0.3656 -0.3534
 3871TIP3   OH233027   3.136   4.817  16.319  0.1061 -1.1824  0.0280
 3871TIP3    H133028   3.184   4.881  16.267 -1.8823 -0.0525 -0.5252
 3871TIP3    H233029   3.099   4.757  16.254 -2.1789  0.0895  0.0506
 3872TIP3   OH233030   5.364   0.809  13.936 -0.4241 -0.0400  0.2700
 3872TIP3    H133031   5.373   0.838  14.026  0.9628  0.5257 -0.0326
 3872TIP3    H233032   5.380   0.887  13.883 -0.9530 -0.4212 -0.4750
 3873TIP3   OH233033   6.576   5.610   2.712  0.5483  0.0284  0.0168
 3873TIP3    H133034   6.489   5.650   2.710  0.0479 -1.0810 -1.7057
 3873TIP3    H233035   6.571   5.547   2.784 -0.2002 -0.3021 -0.3173
 3874TIP3   OH233036   0.007   4.441  11.709  0.0475  0.3471 -0.8623
 3874TIP3    H133037   0.027   4.401  11.794 -1.3762  0.0799 -0.6349
 3874TIP3    H233038   0.047   4.382  11.645  2.2711  1.2181 -0.3932
 3875TIP3   OH233039   3.574   5.093  11.420  0.0028  0.8006 -0.0492
 3875TIP3    H133040   3.599   5.184  11.404 -0.5436  0.8676 -0.5721
 3875TIP3    H233041   3.503   5.098  11.483  1.0205  0.6314  1.1557
 3876TIP3   OH233042   3.664   5.965  10.438  0.7855  0.0279  0.7181
 3876TIP3    H133043   3.695   6.046  10.397  0.8459 -0.1266  0.4574
 3876TIP3    H233044   3.693   5.972  10.529 -2.0054  1.8214  1.6191
 3877TIP3   OH233045   6.214   4.569   0.926  0.1135 -0.1244 -0.0832
 3877TIP3    H133046   6.136   4.539   0.881 -0.3246  0.6305  0.1413
 3877TIP3    H233047   6.187   4.578   1.018  0.4048  0.3308 -0.0368
 3878TIP3   OH233048   0.982   5.775  15.226 -0.4867 -0.3714  0.3886
 3878TIP3    H133049   1.017   5.777  15.137 -0.6105  1.0839  0.3519
 3878TIP3    H233050   1.024   5.699  15.267  0.6115 -0.2665 -0.4973
 3879TIP3   OH233051   4.826   4.215   2.603  0.4866 -0.1103 -0.5054
 3879TIP3    H133052   4.748   4.224   2.658  1.2055 -1.2112  0.7542
 3879TIP3    H233053   4.811   4.275   2.530  0.1334  2.5801  1.6284
 3880TIP3   OH233054   3.535   3.224  12.060 -0.1645 -0.3853  0.4249
 3880TIP3    H133055   3.569   3.298  12.111  0.5525  0.4217 -1.1314
 3880TIP3    H233056   3.471   3.183  12.117 -1.6797  2.3142  0.8554
 3881TIP3   OH233057   1.213   5.026   5.116  0.1795 -0.2494  0.0368
 3881TIP3    H133058   1.258   5.014   5.033 -1.3834 -2.2982 -0.6112
 3881TIP3    H233059   1.128   4.983   5.103 -0.4267  0.0889  2.4261
 3882TIP3   OH233060   6.457   0.437   1.242  0.1243 -0.5378  0.8102
 3882TIP3    H133061   6.424   0.478   1.322 -0.9834 -1.2961  0.7563
 3882TIP3    H233062   6.387   0.450   1.178  0.8693 -0.2124  0.0340
 3883TIP3   OH233063   1.472   5.110   0.723 -0.6470 -0.2958  0.7017
 3883TIP3    H133064   1.460   5.087   0.631  0.3269 -0.3523  0.5719
 3883TIP3    H233065   1.419   5.188   0.736 -0.6366 -0.1728  0.0328
 3884TIP3   OH233066   0.746   2.616   2.787 -0.3282  0.1446 -0.6576
 3884TIP3    H133067   0.673   2.668   2.754 -0.6857 -0.5375 -0.9717
 3884TIP3    H233068   0.705   2.544   2.835  0.1874  1.3979  1.8103
 3885TIP3   OH233069   4.302   4.083  13.412  0.4784 -0.4780 -0.8617
 3885TIP3    H133070   4.253   4.165  13.404  1.7359  0.2620 -1.2723
 3885TIP3    H233071   4.357   4.096  13.490  1.5269 -0.4607 -1.5876
 3886TIP3   OH233072   3.004   6.346   5.627  0.6424 -0.2986  0.1608
 3886TIP3    H133073   3.023   6.370   5.718 -1.3965 -1.8581  1.0585
 3886TIP3    H233074   3.058   6.268   5.612 -0.1809 -0.9638  0.5830
 3887TIP3   OH233075   1.485   2.135   0.159  0.3823  0.1457 -0.0272
 3887TIP3    H133076   1.482   2.194   0.083 -1.8514 -0.2898 -0.3413
 3887TIP3    H233077   1.412   2.163   0.214  0.4472 -1.1116  0.7355
 3888TIP3   OH233078   5.946   0.207   1.038  0.3944  0.1446  0.1632
 3888TIP3    H133079   5.951   0.188   0.944  1.2794  1.1221 -0.0147
 3888TIP3    H233080   5.990   0.134   1.080 -0.8237 -0.7692 -0.1009
 3889TIP3   OH233081   2.151   0.658   1.129  0.1456 -0.0385 -0.5838
 3889TIP3    H133082   2.175   0.621   1.044 -1.0652  1.7800 -1.8019
 3889TIP3    H233083   2.061   0.690   1.116 -0.6337 -0.9957  1.8512
 3890TIP3   OH233084   2.428   6.357  14.216 -0.1877  0.2489  0.0533
 3890TIP3    H133085   2.493   6.428  14.218  0.8584 -0.4939 -2.7228
 3890TIP3    H233086   2.400   6.353  14.125 -1.4106 -1.8840  0.4597
 3891TIP3   OH233087   3.266   2.544  15.693  0.2056  0.0928 -0.2235
 3891TIP3    H133088   3.240   2.559  15.784 -0.3491  2.4033 -0.6923
 3891TIP3    H233089   3.357   2.572  15.689  0.0012  0.7362 -0.5235
 3892TIP3   OH233090   0.813   0.071  13.620  0.5361  0.5614 -0.6651
 3892TIP3    H133091   0.842   0.006  13.683 -2.1989 -1.2989 -1.1518
 3892TIP3    H233092   0.884   0.077  13.556  1.7179 -0.3524  0.5227
 3893TIP3   OH233093   6.480   4.306   3.919 -0.5512  0.1058 -0.5611
 3893TIP3    H133094   6.447   4.252   3.990 -0.7153 -0.6547 -1.1974
 3893TIP3    H233095   6.574   4.313   3.934 -0.4553 -0.7757 -0.7430
 3894TIP3   OH233096   5.275   6.010   5.191  0.1597  0.4614  0.3416
 3894TIP3    H133097   5.346   5.954   5.161 -0.2088 -0.9978  2.0242
 3894TIP3    H233098   5.255   5.978   5.279 -1.7667  1.6106  0.3747
 3895TIP3   OH233099   4.698   1.022  16.164  0.6837 -0.7112  0.3779
 3895TIP3    H133100   4.696   1.014  16.069 -0.2442 -2.4876  0.5203
 3895TIP3    H233101   4.714   0.933  16.196 -1.3446 -0.5763  1.9250
 3896TIP3   OH233102   0.405   4.836  16.056  0.0977  0.1002 -0.2383
 3896TIP3    H133103   0.450   4.847  15.972 -0.8026 -1.6105 -0.9840
 3896TIP3    H233104   0.350   4.914  16.063 -0.9692 -0.4344 -2.0074
 3897TIP3   OH233105   6.484   2.114   1.415 -0.6426 -0.3285  0.3782
 3897TIP3    H133106   6.506   2.021   1.412  0.9359 -0.0177  1.0644
 3897TIP3    H233107   6.449   2.134   1.329 -1.1313 -1.5894  0.2727
 3898TIP3   OH233108   1.888   2.551   4.422 -0.2847  0.0508  0.2214
 3898TIP3    H133109   1.803   2.564   4.464 -0.3273 -0.2595  0.2340
 3898TIP3    H233110   1.948   2.607   4.471 -0.1747 -0.9148  1.2176
 3899TIP3   OH233111   3.172   3.799   1.015 -0.2348  0.4174 -0.1671
 3899TIP3    H133112   3.150   3.882   0.974 -0.6255  0.0128 -0.7904
 3899TIP3    H233113   3.253   3.772   0.971 -1.5381 -0.8314 -1.9116
 3900TIP3   OH233114   6.405   4.259  14.873 -0.0024  0.1935  0.4211
 3900TIP3    H133115   6.376   4.192  14.812 -0.2395  0.3535  0.3607
 3900TIP3    H233116   6.335   4.266  14.937 -0.1934  0.7219  0.1603
 3901TIP3   OH233117   6.373   0.841   4.117 -0.3471 -0.3271  0.5346
 3901TIP3    H133118   6.391   0.935   4.112  0.4292 -0.5191 -0.5944
 3901TIP3    H233119   6.443   0.805   4.171  1.7225 -0.7798 -2.2242
 3902TIP3   OH233120   2.156   4.922   5.683 -0.2780  0.7848 -0.1045
 3902TIP3    H133121   2.206   4.843   5.663 -0.6104  0.0280  1.8584
 3902TIP3    H233122   2.199   4.991   5.633  0.2498 -0.5442 -1.5783
 3903TIP3   OH233123   3.793   4.260   5.007  0.2696 -0.0722  0.2112
 3903TIP3    H133124   3.860   4.211   4.960  1.2736  1.5878 -0.1336
 3903TIP3    H233125   3.833   4.283   5.091 -0.4870 -0.4965  0.7100
 3904TIP3   OH233126   4.369   3.649   0.624 -0.4827 -0.0314 -0.2334
 3904TIP3    H133127   4.453   3.618   0.659  0.1334 -1.8347 -2.9886
 3904TIP3    H233128   4.346   3.723   0.680  2.9308  0.5343  0.6674
 3905TIP3   OH233129   0.063   2.647  16.684  0.5374  0.3704  0.0543
 3905TIP3    H133130   0.151   2.627  16.652 -0.3309 -3.8601 -0.2852
 3905TIP3    H233131   0.019   2.685  16.608  1.8125  2.0107  0.0630
 3906TIP3   OH233132   3.277   4.570   4.295  0.0387  0.0726 -0.2952
 3906TIP3    H133133   3.265   4.475   4.300  0.9925 -0.0518 -0.1603
 3906TIP3    H233134   3.191   4.604   4.270 -0.5280 -0.7561  0.4771
 3907TIP3   OH233135   2.919   6.111   0.788 -0.0164  0.3332  0.3923
 3907TIP3    H133136   2.825   6.125   0.793  0.0092  0.9218 -0.6372
 3907TIP3    H233137   2.957   6.198   0.783  0.4621  0.0829 -0.8966
 3908TIP3   OH233138   5.468   5.435  13.819 -0.3872  0.0956  0.2020
 3908TIP3    H133139   5.411   5.512  13.824 -1.1354 -0.4062 -0.4552
 3908TIP3    H233140   5.408   5.360  13.819  0.0369 -0.4073 -3.1216
 3909TIP3   OH233141   5.068   3.927   0.005 -0.2821 -0.2702 -0.3684
 3909TIP3    H133142   5.052   3.870   0.080  0.6657 -1.1468 -0.8099
 3909TIP3    H233143   5.026   4.009   0.028  1.0853 -0.0839  1.6875
 3910TIP3   OH233144   5.566   0.106  11.619  0.0173  0.9299 -0.0523
 3910TIP3    H133145   5.659   0.087  11.609 -0.3027 -0.8885  0.1420
 3910TIP3    H233146   5.562   0.167  11.693  0.9009 -0.9365  1.6267
 3911TIP3   OH233147   4.922   2.916  11.578  0.0227  0.0920 -0.8133
 3911TIP3    H133148   4.911   2.827  11.543  0.6382  0.3548 -1.6950
 3911TIP3    H233149   4.869   2.917  11.657  0.0475 -1.0822 -0.7680
 3912TIP3   OH233150   4.323   1.185   3.599 -0.2984  0.0555 -0.2066
 3912TIP3    H133151   4.343   1.092   3.612 -0.7407  0.0231  0.2814
 3912TIP3    H233152   4.382   1.213   3.529 -1.5289 -1.0639 -1.7297
 3913TIP3   OH233153   3.181   2.539  11.469  0.3638  0.7067  0.0957
 3913TIP3    H133154   3.134   2.462  11.437  1.1439 -0.1801  1.0282
 3913TIP3    H233155   3.162   2.607  11.404  0.6438 -0.5957 -1.4187
 3914TIP3   OH233156   6.602   3.874  16.802 -0.0467 -0.2129  0.3192
 3914TIP3    H133157   6.539   3.860  16.731  1.2334 -1.7580 -0.5837
 3914TIP3    H233158   6.554   3.849  16.881 -0.7937 -0.6366 -0.2476
 3915TIP3   OH233159   5.365   1.154  15.785 -0.1616 -0.0015  0.1963
 3915TIP3    H133160   5.421   1.164  15.863  1.1698  2.6990 -0.9596
 3915TIP3    H233161   5.422   1.114  15.720 -0.7726 -0.7484  0.1124
 3916TIP3   OH233162   4.875   3.093  13.004 -0.0025  0.3659  0.5584
 3916TIP3    H133163   4.841   3.122  12.920 -1.0553 -0.9992  0.4750
 3916TIP3    H233164   4.954   3.042  12.982 -0.8816 -0.9116  0.2762
 3917TIP3   OH233165   2.728   3.441  11.136 -0.2262 -0.0407 -0.4036
 3917TIP3    H133166   2.784   3.401  11.071  2.3626 -0.1936  1.7531
 3917TIP3    H233167   2.715   3.373  11.202 -0.6449  0.8684  0.4795
 3918TIP3   OH233168   0.505   5.760   5.189 -0.4568  0.1301  0.2545
 3918TIP3    H133169   0.570   5.692   5.206  0.1474  0.4245 -0.8012
 3918TIP3    H233170   0.424   5.726   5.226 -0.9498 -2.6264 -2.8521
 3919TIP3   OH233171   0.899   3.334   4.158  0.0347 -0.1565 -0.1255
 3919TIP3    H133172   0.846   3.254   4.146 -0.5915  0.2333 -0.0155
 3919TIP3    H233173   0.874   3.391   4.085  0.5398 -0.0851 -0.2480
 3920TIP3   OH233174   0.780   1.647   0.347  0.1631  0.3872 -0.5816
 3920TIP3    H133175   0.728   1.622   0.423 -0.6087 -0.6240 -1.4042
 3920TIP3    H233176   0.855   1.587   0.349 -0.4483 -0.4391 -1.2157
 3921TIP3   OH233177   3.827   1.073  11.596  0.5310 -0.3132 -0.5343
 3921TIP3    H133178   3.753   1.060  11.655  1.5049 -1.7534  0.4610
 3921TIP3    H233179   3.851   0.984  11.568  2.3116  0.0263 -0.2349
 3922TIP3   OH233180   4.441   2.897   5.394  0.4811 -0.2465 -0.3673
 3922TIP3    H133181   4.395   2.921   5.475 -0.7277 -3.2549 -0.0286
 3922TIP3    H233182   4.377   2.915   5.325 -0.1659 -1.6717 -0.1782
 3923TIP3   OH233183   5.318   3.072  12.949 -0.5036  0.1480 -0.1218
 3923TIP3    H133184   5.366   3.006  12.999 -1.8701 -0.9978 -0.2594
 3923TIP3    H233185   5.348   3.155  12.986  2.0213 -0.4514 -0.6372
 3924TIP3   OH233186   6.612   2.095   2.513  0.0515 -0.3618 -0.1845
 3924TIP3    H133187   6.544   2.137   2.460  0.8393  0.7887 -0.3289
 3924TIP3    H233188   6.565   2.059   2.588 -0.7015  0.6616 -0.1323
 3925TIP3   OH233189   1.480   0.941  16.343 -0.3320 -0.2065  0.0934
 3925TIP3    H133190   1.519   0.856  16.361 -1.0004 -0.6074 -0.3339
 3925TIP3    H233191   1.443   0.969  16.426 -1.3595 -0.9909 -0.0787
 3926TIP3   OH233192   4.251   3.818  13.509 -0.1247  0.1315 -0.0247
 3926TIP3    H133193   4.230   3.744  13.453  0.6121  0.3790 -0.6519
 3926TIP3    H233194   4.223   3.895  13.459  3.2095  0.5886 -1.5144
 3927TIP3   OH233195   5.323   1.367  13.782  0.3014 -0.4930 -0.0361
 3927TIP3    H133196   5.261   1.434  13.810  0.8157 -0.5332  1.2232
 3927TIP3    H233197   5.270   1.287  13.776  0.2043 -0.5080  0.9384
 3928TIP3   OH233198   2.286   4.625  13.052 -0.8807  0.5127 -0.0165
 3928TIP3    H133199   2.327   4.600  13.135 -1.6348 -0.1968  0.1541
 3928TIP3    H233200   2.231   4.551  13.029 -0.8268  0.7836 -1.0677
 3929TIP3   OH233201   3.572   4.321   2.664  0.2156 -0.3939 -0.9085
 3929TIP3    H133202   3.585   4.396   2.721  2.1326 -0.4173 -1.2491
 3929TIP3    H233203   3.478   4.301   2.671  0.3169 -0.1972  1.9210
 3930TIP3   OH233204   0.344   2.736  15.968 -0.0857  0.1297 -0.2512
 3930TIP3    H133205   0.357   2.825  15.999 -0.0172 -0.0243  0.1819
 3930TIP3    H233206   0.365   2.681  16.044 -0.0374 -0.2569 -0.5388
 3931TIP3   OH233207   4.685   6.067   0.583 -0.3029 -0.0777  0.0726
 3931TIP3    H133208   4.778   6.051   0.570 -0.4686  0.1235 -1.4938
 3931TIP3    H233209   4.681   6.147   0.635  0.3945 -0.1543  0.2502
 3932TIP3   OH233210   5.390   4.851  13.074  0.1294  0.0437 -0.5685
 3932TIP3    H133211   5.371   4.944  13.083  2.1334  0.8372 -3.2467
 3932TIP3    H233212   5.477   4.841  13.112 -0.1865 -0.8383 -0.0442
 3933TIP3   OH233213   0.497   0.084   4.147 -0.3182 -0.3177 -0.0352
 3933TIP3    H133214   0.569   0.025   4.169  0.4078 -0.1164 -1.7119
 3933TIP3    H233215   0.515   0.163   4.198 -0.7264 -1.1181  1.4180
 3934TIP3   OH233216   6.344   4.985   5.399 -0.6379  0.1293 -0.1276
 3934TIP3    H133217   6.392   4.980   5.317  0.2412  1.0715  0.2981
 3934TIP3    H233218   6.269   5.041   5.380  1.2726  3.1264  0.4032
 3935TIP3   OH233219   3.165   0.004  13.730 -0.3810 -0.3745  0.3018
 3935TIP3    H133220   3.236  -0.017  13.790  1.1324  0.1804 -1.2159
 3935TIP3    H233221   3.135  -0.081  13.697  3.1121 -0.6701 -2.8777
 3936TIP3   OH233222   1.661   1.380   1.822 -0.1737 -0.9018  0.2817
 3936TIP3    H133223   1.645   1.471   1.799  0.9109 -0.8856 -0.4937
 3936TIP3    H233224   1.605   1.330   1.764  1.5344 -0.8095 -1.5798
 3937TIP3   OH233225   1.193   4.348  15.402  0.7475 -0.1509 -0.0574
 3937TIP3    H133226   1.189   4.253  15.404 -0.5199 -0.1027  0.8888
 3937TIP3    H233227   1.172   4.371  15.312 -0.2760 -0.7468  0.0075
 3938TIP3   OH233228   1.448   3.818   1.759  0.0140 -0.9055 -0.4470
 3938TIP3    H133229   1.515   3.848   1.698 -0.2984  0.3454 -0.2037
 3938TIP3    H233230   1.438   3.724   1.740  0.6314 -0.7529 -1.6109
 3939TIP3   OH233231   5.502   1.602   1.575  0.0903  0.6256  0.6742
 3939TIP3    H133232   5.454   1.665   1.628 -0.3461  0.4941  0.4456
 3939TIP3    H233233   5.526   1.650   1.496 -2.4843 -0.1267 -0.6931
 3940TIP3   OH233234   4.396   0.918  13.496 -0.0523  0.1634 -0.4655
 3940TIP3    H133235   4.342   0.847  13.531  0.2280  0.7229  1.1766
 3940TIP3    H233236   4.482   0.904  13.536  0.1149  1.1885 -0.4571
 3941TIP3   OH233237   3.662   5.283  16.712 -0.7969  0.0874  0.0547
 3941TIP3    H133238   3.674   5.288  16.617  0.3778  0.3327  0.2002
 3941TIP3    H233239   3.573   5.247  16.724 -0.3597 -1.4816 -1.1372
 3942TIP3   OH233240   4.551   2.129  13.060 -0.3678  0.0622 -0.4696
 3942TIP3    H133241   4.570   2.114  13.153 -1.6709 -0.7536 -0.3070
 3942TIP3    H233242   4.616   2.077  13.013  0.3635  0.5569 -0.0261
 3943TIP3   OH233243   6.641   3.805   3.913  1.1729  0.8048 -0.2296
 3943TIP3    H133244   6.716   3.767   3.867  0.6333  1.3152 -1.6067
 3943TIP3    H233245   6.672   3.891   3.942  1.1487  0.9867 -0.7344
 3944TIP3   OH233246   4.438   3.646   5.370 -0.4236 -0.8936 -0.2527
 3944TIP3    H133247   4.395   3.657   5.455 -2.1669  2.4586 -1.3855
 3944TIP3    H233248   4.386   3.580   5.325 -0.3933 -1.6036  0.7238
 3945TIP3   OH233249   4.811   3.293   2.032  0.2853 -0.4442  0.4249
 3945TIP3    H133250   4.808   3.218   2.091 -1.1638  1.0556  2.3799
 3945TIP3    H233251   4.893   3.338   2.053  0.1122 -0.3055  0.8116
 3946TIP3   OH233252   5.497   6.466   3.653  0.0241  0.3691 -0.1328
 3946TIP3    H133253   5.429   6.492   3.592  0.4647 -0.7571 -1.1405
 3946TIP3    H233254   5.466   6.384   3.691 -0.1370  0.9347  0.9983
 3947TIP3   OH233255   2.833   6.173  12.160  0.3760 -0.2837  0.2953
 3947TIP3    H133256   2.869   6.255  12.192  1.5448 -0.4762 -0.4634
 3947TIP3    H233257   2.840   6.113  12.235  0.0167  0.1514  0.6829
 3948TIP3   OH233258   1.442   0.982   4.412  0.5771 -0.0927  0.3690
 3948TIP3    H133259   1.394   1.039   4.352 -1.0177 -0.9800  0.7714
 3948TIP3    H233260   1.403   0.896   4.402  0.5010 -0.3517  2.4066
 3949TIP3   OH233261   3.931   2.477  12.661 -0.0511  0.5018  0.3259
 3949TIP3    H133262   3.915   2.541  12.730  1.6460  1.2035  0.1324
 3949TIP3    H233263   3.904   2.521  12.580  1.4074  1.1358  0.1575
 3950TIP3   OH233264   2.588   3.575   0.949  0.0947  0.2592 -0.1733
 3950TIP3    H133265   2.494   3.558   0.947  0.4018 -1.6790  0.2634
 3950TIP3    H233266   2.597   3.664   0.913 -1.6215 -0.7196 -3.3519
 3951TIP3   OH233267   0.312   3.031  13.321 -0.2316 -0.2831  0.2143
 3951TIP3    H133268   0.353   2.997  13.242 -1.8749  0.4320 -0.9855
 3951TIP3    H233269   0.341   3.122  13.327  0.3897 -0.5055  0.8191
 3952TIP3   OH233270   0.832   2.033  13.569 -0.6040 -0.2046 -0.4453
 3952TIP3    H133271   0.848   2.075  13.485 -2.0500  0.3582 -0.4578
 3952TIP3    H233272   0.740   2.007  13.566 -1.5203  2.2625  1.9832
 3953TIP3   OH233273   4.547   4.339  11.032 -0.0917  0.5545 -0.1511
 3953TIP3    H133274   4.586   4.284  10.964  0.2407  0.9623 -0.3021
 3953TIP3    H233275   4.455   4.314  11.035  0.1844 -0.4364  0.2151
 3954TIP3   OH233276   0.541   2.194   4.122 -0.5440  0.1394 -0.0097
 3954TIP3    H133277   0.617   2.221   4.070 -0.4275 -0.1018  0.0331
 3954TIP3    H233278   0.559   2.228   4.210  0.5335 -1.6950  0.5367
 3955TIP3   OH233279   3.675   3.572   5.274 -0.1082 -0.2623 -0.1203
 3955TIP3    H133280   3.640   3.617   5.351  0.7596  1.0282 -0.4410
 3955TIP3    H233281   3.730   3.638   5.231  1.1323 -1.6126 -0.6860
 3956TIP3   OH233282   4.316   4.506   1.510 -0.3189  0.5972 -0.1664
 3956TIP3    H133283   4.259   4.563   1.562 -0.1031 -0.3591  1.1895
 3956TIP3    H233284   4.265   4.426   1.497 -0.6138  1.0587 -2.0395
 3957TIP3   OH233285   5.181   0.758  12.916  0.2183  0.0085  0.7336
 3957TIP3    H133286   5.178   0.824  12.985 -1.2923  1.1945 -0.3762
 3957TIP3    H233287   5.096   0.714  12.921  0.6948 -0.9671  0.6028
 3958TIP3   OH233288   5.606   1.874   4.046 -0.2236  0.7283 -0.0163
 3958TIP3    H133289   5.577   1.902   3.959 -2.5501  2.8067  1.3085
 3958TIP3    H233290   5.696   1.844   4.033 -0.6690  0.4774 -3.2007
 3959TIP3   OH233291   4.403   5.805  11.446  0.3710 -0.0627  0.7079
 3959TIP3    H133292   4.376   5.737  11.509  0.8524 -0.8154  0.1150
 3959TIP3    H233293   4.364   5.778  11.363  2.1758 -0.7280  0.0118
 3960TIP3   OH233294   5.740   1.139  13.636  0.0381 -0.0504  0.0002
 3960TIP3    H133295   5.717   1.232  13.637 -0.1111 -0.0726 -0.8409
 3960TIP3    H233296   5.656   1.093  13.631  0.1067 -0.2354  0.5228
 3961TIP3   OH233297   2.220   4.707   1.701  0.1365 -0.1034 -0.3799
 3961TIP3    H133298   2.218   4.733   1.793 -0.0733 -0.9500 -0.1381
 3961TIP3    H233299   2.296   4.650   1.694  0.8030  0.8293 -0.9856
 3962TIP3   OH233300   1.354   1.821  13.651  0.1896 -0.1733 -0.5950
 3962TIP3    H133301   1.311   1.809  13.566 -0.2362  1.1169 -0.5831
 3962TIP3    H233302   1.299   1.884  13.697  1.9618  1.3914 -0.5025
 3963TIP3   OH233303   3.085   4.103   4.836  0.0382  0.3879 -0.2251
 3963TIP3    H133304   3.046   4.138   4.756  0.8631  1.3071 -0.2348
 3963TIP3    H233305   3.139   4.174   4.870  1.4380 -0.7211 -0.0283
 3964TIP3   OH233306   3.791   1.056  10.747 -0.1914 -0.1965  0.0841
 3964TIP3    H133307   3.711   1.107  10.747  0.6027  1.0917 -0.1303
 3964TIP3    H233308   3.762   0.966  10.761 -1.8452 -0.0653 -1.9977
 3965TIP3   OH233309   4.355   0.885   5.204  0.5136  0.3242 -0.1547
 3965TIP3    H133310   4.375   0.808   5.151 -0.1620 -0.1705  0.2956
 3965TIP3    H233311   4.404   0.871   5.285 -1.0849 -0.5907  0.7027
 3966TIP3   OH233312   6.671   5.929   1.089  0.4661 -0.0484  0.1495
 3966TIP3    H133313   6.625   5.977   1.020  1.9046  0.2229 -0.6571
 3966TIP3    H233314   6.619   5.944   1.168 -0.2839  1.0512 -0.5306
 3967TIP3   OH233315   5.999   6.235  16.303 -0.2359 -0.7141  0.5361
 3967TIP3    H133316   6.080   6.279  16.277 -0.7011  1.5154  2.5689
 3967TIP3    H233317   6.027   6.168  16.366  0.0486 -0.0952  1.0729
 3968TIP3   OH233318   5.849   0.371  14.764 -0.0222  0.0688  0.1307
 3968TIP3    H133319   5.943   0.358  14.776  0.0254 -0.9215 -1.0965
 3968TIP3    H233320   5.812   0.283  14.771 -0.8855  0.4620  0.7034
 3969TIP3   OH233321   1.763   6.237  12.212 -0.0302  0.2465 -0.5042
 3969TIP3    H133322   1.758   6.330  12.190 -0.8547  0.0224 -1.3275
 3969TIP3    H233323   1.718   6.229  12.296 -2.3452  0.2160 -1.6815
 3970TIP3   OH233324   6.712   5.835   3.414  0.0340 -0.7356 -0.0639
 3970TIP3    H133325   6.788   5.776   3.420  0.7629  0.1207 -0.7433
 3970TIP3    H233326   6.693   5.857   3.505  1.1102 -0.3242  0.0735
 3971TIP3   OH233327   3.035   1.418   4.566  0.0059 -0.2621 -0.2005
 3971TIP3    H133328   3.003   1.463   4.644  1.9372 -0.1899  0.6197
 3971TIP3    H233329   3.005   1.328   4.576  0.6030 -0.3562  0.8744
 3972TIP3   OH233330   3.143   5.829  10.802  0.1699 -0.0026  0.4520
 3972TIP3    H133331   3.129   5.788  10.717 -1.4725 -1.1830  1.2132
 3972TIP3    H233332   3.131   5.922  10.786  1.2660 -0.0641 -0.8442
 3973TIP3   OH233333   4.309   0.085   5.906  0.0488  0.3093 -0.1044
 3973TIP3    H133334   4.225   0.073   5.862 -0.3072  0.1819  0.5971
 3973TIP3    H233335   4.286   0.100   5.998  0.6363  2.7658 -0.2859
 3974TIP3   OH233336   0.238   5.606  15.202  0.2947  0.5500 -0.7206
 3974TIP3    H133337   0.143   5.615  15.201  0.1171 -1.1211 -1.2947
 3974TIP3    H233338   0.266   5.628  15.113  0.3108 -0.0682 -0.8750
 3975TIP3   OH233339   5.617   4.955   3.396  0.1288  0.1916 -0.1593
 3975TIP3    H133340   5.555   4.892   3.435  1.6237 -1.4334 -0.2829
 3975TIP3    H233341   5.688   4.901   3.363  3.2021  2.0701  2.7130
 3976TIP3   OH233342   1.765   3.584   0.221  0.1651 -0.6671 -1.1072
 3976TIP3    H133343   1.839   3.525   0.207  1.8904  0.8296  0.9825
 3976TIP3    H233344   1.771   3.646   0.148  2.2974  0.6164  0.0572
 3977TIP3   OH233345   6.134   3.768   3.560 -0.2231 -0.2027 -0.0239
 3977TIP3    H133346   6.052   3.722   3.544 -0.1072 -1.4804  2.5084
 3977TIP3    H233347   6.108   3.852   3.597 -0.3990 -0.2712  0.0085
 3978TIP3   OH233348   1.979   1.395  13.690 -0.3734 -0.1076 -0.0990
 3978TIP3    H133349   1.895   1.399  13.736  0.3682 -1.3684  1.4577
 3978TIP3    H233350   2.024   1.475  13.715  0.3652 -1.1563  2.1817
 3979TIP3   OH233351   4.192   5.146   2.329  0.3274  0.0758 -0.0587
 3979TIP3    H133352   4.275   5.185   2.301  0.8139 -0.4102  0.6674
 3979TIP3    H233353   4.199   5.141   2.425 -0.7195  0.4166  0.0549
 3980TIP3   OH233354   4.628   1.144  12.527  0.1540  0.2577  0.0199
 3980TIP3    H133355   4.662   1.105  12.446 -1.1438 -1.3031  0.1831
 3980TIP3    H233356   4.695   1.208  12.552  1.3389 -0.3386 -1.4258
 3981TIP3   OH233357   0.933   3.242   5.804  0.0331  0.3253  0.2486
 3981TIP3    H133358   0.949   3.149   5.823 -0.4867  0.2920  0.5185
 3981TIP3    H233359   0.878   3.273   5.876 -0.1961  0.7247 -0.0929
 3982TIP3   OH233360   2.156   4.754  15.711  0.6176 -0.4469 -0.1039
 3982TIP3    H133361   2.199   4.789  15.633 -1.5860  1.6238 -0.5057
 3982TIP3    H233362   2.188   4.808  15.783  1.6641 -1.5235  0.2788
 3983TIP3   OH233363   0.332   2.661  16.645  0.1198 -0.1236  0.2711
 3983TIP3    H133364   0.384   2.742  16.643  2.5595 -1.5947 -0.2464
 3983TIP3    H233365   0.389   2.597  16.689 -1.3008 -1.8567 -0.2812
 3984TIP3   OH233366   1.509   6.311   0.109  0.2771 -0.3113 -0.4090
 3984TIP3    H133367   1.588   6.265   0.081  0.3652 -0.3762 -0.0593
 3984TIP3    H233368   1.498   6.286   0.201  0.2940  0.3187 -0.2302
 3985TIP3   OH233369   4.306   5.315  13.022  0.2367 -0.2930  0.1579
 3985TIP3    H133370   4.298   5.223  13.046 -0.8325 -0.8019 -1.9068
 3985TIP3    H233371   4.384   5.318  12.966  0.1893  0.0119  0.1073
 3986TIP3   OH233372   2.405   1.038  11.196 -0.4663 -0.5233  0.3849
 3986TIP3    H133373   2.372   1.108  11.252 -0.5179  0.1477 -0.4572
 3986TIP3    H233374   2.415   1.079  11.110  0.8651 -1.1656  0.2022
 3987TIP3   OH233375   5.053   4.020   5.313  0.4735 -0.5236 -0.2497
 3987TIP3    H133376   4.984   4.010   5.378  0.2274 -0.4852 -0.4998
 3987TIP3    H233377   5.006   4.043   5.232  0.5103 -3.3859 -1.1745
 3988TIP3   OH233378   0.832   3.231  13.077 -0.5532 -0.0263  0.5785
 3988TIP3    H133379   0.923   3.255  13.057 -0.4842 -0.5303  0.2665
 3988TIP3    H233380   0.841   3.160  13.141 -0.6613 -1.4783 -0.9436
 3989TIP3   OH233381   4.395   6.216   0.723 -0.7435  0.7489 -0.0171
 3989TIP3    H133382   4.379   6.143   0.783 -0.6763  0.3823 -0.4467
 3989TIP3    H233383   4.321   6.213   0.662 -0.9416  1.2733  0.1901
 3990TIP3   OH233384   0.478   3.758   0.091  0.3088 -0.2727  0.2572
 3990TIP3    H133385   0.428   3.729   0.167 -1.0919 -1.9989 -1.2504
 3990TIP3    H233386   0.558   3.705   0.094 -1.0177 -2.5173 -0.9569
 3991TIP3   OH233387   0.335   0.973   3.355 -0.0376  0.9845 -0.1418
 3991TIP3    H133388   0.348   1.037   3.425  1.1652  0.6692 -0.0504
 3991TIP3    H233389   0.275   1.016   3.294  0.1677  1.9056  0.2847
 3992TIP3   OH233390   6.287   0.034  17.078 -0.1957  0.1909  0.5996
 3992TIP3    H133391   6.380   0.031  17.099  0.1254 -1.5265 -0.8790
 3992TIP3    H233392   6.244  -0.003  17.156  0.5661 -1.1800  0.4080
 3993TIP3   OH233393   3.854   1.649   2.740 -0.1116 -0.1459 -0.4321
 3993TIP3    H133394   3.847   1.687   2.827 -1.1155 -1.3635  0.0392
 3993TIP3    H233395   3.769   1.666   2.699  0.5709  1.0136 -1.4523
 3994TIP3   OH233396   2.822   0.153   5.148  0.1608  0.0306 -0.2927
 3994TIP3    H133397   2.774   0.111   5.220 -0.2782  1.9723  0.5947
 3994TIP3    H233398   2.836   0.082   5.085 -1.0386 -1.3219  0.8789
 3995TIP3   OH233399   4.649   3.420  11.358  0.1249  0.0458  0.4860
 3995TIP3    H133400   4.700   3.398  11.436  0.1499  0.7356  0.6687
 3995TIP3    H233401   4.654   3.341  11.303  1.9994  0.3404  0.1632
 3996TIP3   OH233402   1.836   2.082  14.631 -0.2723 -0.0487  0.3544
 3996TIP3    H133403   1.911   2.142  14.629  0.0473 -0.4252  0.9259
 3996TIP3    H233404   1.772   2.127  14.686 -1.4787  1.4150 -2.0383
 3997TIP3   OH233405   5.576   6.332   2.349 -0.1821  0.0511  0.2444
 3997TIP3    H133406   5.588   6.423   2.376  2.2777 -0.6014  1.6726
 3997TIP3    H233407   5.555   6.336   2.256 -2.7210  2.1456  0.7956
 3998TIP3   OH233408   6.268   2.750  11.446  0.0029  0.2731 -0.0024
 3998TIP3    H133409   6.265   2.727  11.353  2.2676  0.3883 -0.1821
 3998TIP3    H233410   6.218   2.682  11.490  0.1653 -0.6556 -1.1982
 3999TIP3   OH233411   1.707   5.006   0.985 -0.6945 -0.2084  0.1378
 3999TIP3    H133412   1.627   5.039   1.027 -0.5196  0.8257 -0.2982
 3999TIP3    H233413   1.713   4.915   1.013 -1.7539 -0.1584  0.5853
 4000TIP3   OH233414   3.321   5.467   0.001  0.4602  0.0190  0.4023
 4000TIP3    H133415   3.279   5.385   0.026  2.3812 -1.1215  0.1042
 4000TIP3    H233416   3.268   5.501  -0.071 -0.9586 -0.3961  1.2247
 4001TIP3   OH233417   1.343   2.563   1.959 -0.1256 -0.6537 -0.1382
 4001TIP3    H133418   1.381   2.485   1.999 -0.7895 -0.7238  0.3764
 4001TIP3    H233419   1.279   2.529   1.896  0.6299 -0.5370 -0.9916
 4002TIP3   OH233420   2.335   2.155  11.795  0.2428 -0.0772  0.1988
 4002TIP3    H133421   2.387   2.140  11.873  0.1970  0.4644  0.3376
 4002TIP3    H233422   2.336   2.071  11.748  1.7351  0.0798 -0.1030
 4003TIP3   OH233423   2.000   4.173  11.112  0.2296  0.4646 -0.2801
 4003TIP3    H133424   2.076   4.114  11.106 -1.4214 -1.6577 -1.8647
 4003TIP3    H233425   1.964   4.174  11.024 -0.7158  2.7282  0.0681
 4004TIP3   OH233426   1.440   1.320  16.043 -0.1796  0.4741 -0.0004
 4004TIP3    H133427   1.456   1.414  16.048  1.9760  0.1291  0.6011
 4004TIP3    H233428   1.373   1.304  16.109  0.9148  1.3367  1.3938
 4005TIP3   OH233429   0.899   0.977  15.047 -0.3431 -0.6529  0.0540
 4005TIP3    H133430   0.885   1.069  15.070  0.1968 -0.9651  1.7432
 4005TIP3    H233431   0.947   0.980  14.964 -0.9566  0.5621 -0.2777
 4006TIP3   OH233432   2.302   5.896  15.747  0.3571  0.0346  0.4224
 4006TIP3    H133433   2.310   5.838  15.672 -0.5356 -0.6898  0.8733
 4006TIP3    H233434   2.223   5.867  15.792 -0.3317  1.8309  0.4561
 4007TIP3   OH233435   2.163   6.538   2.923 -0.1344  0.2865 -0.1377
 4007TIP3    H133436   2.203   6.451   2.913  0.2466  0.2674  1.2951
 4007TIP3    H233437   2.233   6.599   2.898 -0.1645  0.2016 -0.4362
 4008TIP3   OH233438   2.424   3.780   4.263  0.3137  0.2847 -0.2026
 4008TIP3    H133439   2.457   3.762   4.175 -0.2587 -1.4397 -0.1024
 4008TIP3    H233440   2.355   3.845   4.249 -0.3364 -0.5598 -1.1688
 4009TIP3   OH233441   3.826   5.398   2.600  0.2056  0.2091  0.5687
 4009TIP3    H133442   3.918   5.408   2.626  0.7693 -0.1561 -1.1692
 4009TIP3    H233443   3.823   5.315   2.553 -0.9837  0.3140  0.4233
 4010TIP3   OH233444   6.490   4.940   3.044 -0.3070 -0.4097  0.4694
 4010TIP3    H133445   6.493   4.847   3.024 -0.4114 -0.0032 -1.6668
 4010TIP3    H233446   6.524   4.947   3.133 -1.6327 -2.6203  1.2190
 4011TIP3   OH233447   4.645   5.833  15.007  0.3581 -0.2627 -0.5509
 4011TIP3    H133448   4.721   5.815  14.953  0.0236  0.3459 -1.2432
 4011TIP3    H233449   4.673   5.809  15.096  1.7902  1.0759 -0.5858
 4012TIP3   OH233450   5.092   5.735   6.343 -0.0102  0.8350  0.6850
 4012TIP3    H133451   5.096   5.650   6.385  1.8878 -0.4631 -1.8133
 4012TIP3    H233452   5.004   5.739   6.304  0.6621 -1.1931 -1.2688
 4013TIP3   OH233453   3.956   3.578   5.385 -0.7210  0.3221  0.6425
 4013TIP3    H133454   3.911   3.521   5.322  1.1040 -0.4993 -0.0075
 4013TIP3    H233455   3.991   3.649   5.331 -1.3825  1.0632  1.1692
 4014TIP3   OH233456   2.193   0.483   4.951 -0.4229 -0.6295 -0.4726
 4014TIP3    H133457   2.237   0.398   4.956 -0.0856 -0.3908  1.0859
 4014TIP3    H233458   2.117   0.475   5.008  1.3809  1.0757  2.3761
 4015TIP3   OH233459   3.568   2.994  16.704  0.1814 -0.3282 -0.5721
 4015TIP3    H133460   3.548   3.088  16.697  1.6124 -0.0322 -0.9049
 4015TIP3    H233461   3.633   2.988  16.773  0.2292 -1.0626 -0.6699
 4016TIP3   OH233462   1.680   4.900   0.586 -0.1432 -0.2069 -0.0648
 4016TIP3    H133463   1.711   4.837   0.521 -0.9893  1.2710 -2.0017
 4016TIP3    H233464   1.590   4.918   0.561 -0.0549  1.4611  0.6664
 4017TIP3   OH233465   4.208   4.321   4.868  0.3082  0.1597 -0.2706
 4017TIP3    H133466   4.299   4.303   4.844  0.4179 -1.6891  1.2706
 4017TIP3    H233467   4.210   4.332   4.963 -1.1136 -0.3477 -0.1515
 4018TIP3   OH233468   0.956   2.084  11.661  0.3940 -0.1828 -0.3593
 4018TIP3    H133469   1.003   2.159  11.625 -1.3460  1.1971  0.1172
 4018TIP3    H233470   0.888   2.122  11.716 -1.7438 -2.0314 -1.5600
 4019TIP3   OH233471   1.788   4.498   4.353 -0.3543 -0.3145 -0.5895
 4019TIP3    H133472   1.876   4.504   4.389 -0.2216 -2.2731 -0.5175
 4019TIP3    H233473   1.772   4.584   4.314  1.1949  0.3850  0.2492
 4020TIP3   OH233474   3.133   6.420   0.478  0.1231 -0.1908  0.0572
 4020TIP3    H133475   3.162   6.479   0.409  0.5725  1.6223  1.7028
 4020TIP3    H233476   3.211   6.367   0.498  0.0058 -0.6862 -0.7575
 4021TIP3   OH233477   2.403   5.336  13.802 -0.2864 -0.0285  0.1069
 4021TIP3    H133478   2.445   5.333  13.888  0.3158 -1.1421 -0.2067
 4021TIP3    H233479   2.388   5.430  13.786  1.6264  0.3965  0.4573
 4022TIP3   OH233480   6.648   1.605   4.376 -0.3516 -0.3253 -0.5071
 4022TIP3    H133481   6.656   1.672   4.308 -0.4549  1.4688  1.1656
 4022TIP3    H233482   6.565   1.624   4.418  0.0044 -1.0045  0.5284
 4023TIP3   OH233483   2.753   6.063  14.121  0.1715  0.4533 -0.2892
 4023TIP3    H133484   2.832   6.024  14.157  0.4808  0.8984 -0.4655
 4023TIP3    H233485   2.745   6.147  14.166 -0.1840  0.4213 -0.2920
 4024TIP3   OH233486   3.028   2.717   2.489  0.3261 -0.2147 -0.2628
 4024TIP3    H133487   3.051   2.784   2.425  0.4025 -0.4080 -0.4363
 4024TIP3    H233488   2.950   2.675   2.453  1.9385 -2.2029 -1.6192
 4025TIP3   OH233489   4.555   2.560  16.549  0.0304  0.0117 -0.2321
 4025TIP3    H133490   4.502   2.480  16.542 -0.6905  0.4902 -0.3191
 4025TIP3    H233491   4.528   2.614  16.474  2.1336 -0.5836 -1.5309
 4026TIP3   OH233492   4.121   4.090   4.550  0.1695  0.2698 -0.0076
 4026TIP3    H133493   4.081   4.082   4.463 -0.8138  1.8850  0.2642
 4026TIP3    H233494   4.120   4.000   4.584 -0.2209 -0.2530 -1.3238
 4027TIP3   OH233495   3.794   0.578   3.526 -0.5735 -0.1705 -0.2058
 4027TIP3    H133496   3.822   0.597   3.437 -1.9709  2.3591 -0.1786
 4027TIP3    H233497   3.699   0.577   3.523 -0.6556  0.0974  1.2638
 4028TIP3   OH233498   1.100   2.957  13.982  0.9124  0.7670  0.8365
 4028TIP3    H133499   1.117   3.045  13.948  2.0759  0.4472  0.5401
 4028TIP3    H233500   1.014   2.934  13.946  1.8455  0.6423 -1.5109
 4029TIP3   OH233501   5.419   5.143  16.109  0.0722 -0.3860 -0.0565
 4029TIP3    H133502   5.475   5.067  16.092  0.1956 -0.5109  0.8322
 4029TIP3    H233503   5.432   5.200  16.033 -0.3461 -1.4304 -0.9447
 4030TIP3   OH233504   4.119   6.072  16.784  0.3287  0.1375  0.1130
 4030TIP3    H133505   4.058   5.999  16.782  1.3440 -0.7343 -1.6145
 4030TIP3    H233506   4.111   6.108  16.872 -1.9409 -0.5275  0.2373
 4031TIP3   OH233507   0.593   1.571   3.013  0.2725  0.0719 -0.1428
 4031TIP3    H133508   0.515   1.567   2.959  0.3580 -1.2657 -0.2112
 4031TIP3    H233509   0.594   1.660   3.048  0.0913  0.8953 -2.1234
 4032TIP3   OH233510   6.257   1.398  16.829  0.5130  0.6052  0.0719
 4032TIP3    H133511   6.207   1.451  16.767 -2.2599 -2.8770 -0.9636
 4032TIP3    H233512   6.225   1.424  16.915 -0.2337  1.1545 -0.3629
 4033TIP3   OH233513   5.116   0.960   4.041  0.1479  0.2445  0.4277
 4033TIP3    H133514   5.022   0.945   4.052  0.4593 -2.3351  0.1382
 4033TIP3    H233515   5.146   0.990   4.127 -0.9614  1.4314  0.4279
 4034TIP3   OH233516   5.151   1.856  11.415  0.6866  0.1811 -0.1605
 4034TIP3    H133517   5.193   1.939  11.432 -2.4407  2.2906 -1.6936
 4034TIP3    H233518   5.082   1.876  11.352 -0.0866 -3.6402 -0.8188
 4035TIP3   OH233519   6.428   4.676   3.314 -0.0394 -0.5595 -0.0002
 4035TIP3    H133520   6.492   4.747   3.308 -1.3951  0.6529 -0.7960
 4035TIP3    H233521   6.443   4.624   3.235 -0.6106  0.2427 -0.6492
 4036TIP3   OH233522   0.837   2.095   4.077  0.4244 -0.2519  0.1061
 4036TIP3    H133523   0.799   2.158   4.016 -2.9658 -1.2084  0.9635
 4036TIP3    H233524   0.887   2.147   4.139  0.2358  1.2211 -0.9445
 4037TIP3   OH233525   0.814   3.446   0.327  0.5257  0.7623 -0.3889
 4037TIP3    H133526   0.782   3.357   0.312  1.3832  0.3546  0.0875
 4037TIP3    H233527   0.850   3.444   0.415  1.1673  1.3944 -0.6228
 4038TIP3   OH233528   1.144   5.194   1.033 -0.2672  0.1829 -0.2294
 4038TIP3    H133529   1.067   5.186   0.976  0.6584 -0.1859 -1.4623
 4038TIP3    H233530   1.190   5.111   1.024  0.2637  0.3801  0.5457
 4039TIP3   OH233531   3.925   5.845  16.803  0.1607  0.6680  0.4565
 4039TIP3    H133532   3.849   5.887  16.764 -0.7892  0.1749  1.7188
 4039TIP3    H233533   3.909   5.849  16.898  1.6796  0.5165  0.7453
 4040TIP3   OH233534   4.007   0.376  11.392 -0.1925  0.3022 -0.2767
 4040TIP3    H133535   4.084   0.340  11.435  0.1575 -0.8075 -1.7586
 4040TIP3    H233536   4.026   0.370  11.298 -1.1459  2.1357 -0.6499
 4041TIP3   OH233537   4.161   0.405  15.804  0.5222  0.5474  0.3721
 4041TIP3    H133538   4.225   0.435  15.869 -0.4220  0.1538  1.5288
 4041TIP3    H233539   4.133   0.319  15.837 -2.0576  1.5514  1.0311
 4042TIP3   OH233540   2.490   0.184   0.682 -0.0389 -0.1691  0.2315
 4042TIP3    H133541   2.502   0.260   0.739 -0.7340 -0.2870  0.5474
 4042TIP3    H233542   2.491   0.109   0.741  0.0777 -0.3568 -0.0087
 4043TIP3   OH233543   3.755   5.222   0.383 -0.1543  0.0003 -0.4758
 4043TIP3    H133544   3.815   5.261   0.446  0.8571  0.1829 -1.5060
 4043TIP3    H233545   3.733   5.294   0.323  0.2041 -0.5368 -1.2738
 4044TIP3   OH233546   3.557   5.822  11.773 -0.5460 -0.2891  0.0209
 4044TIP3    H133547   3.624   5.818  11.705 -0.4126 -0.0858  0.1375
 4044TIP3    H233548   3.475   5.831  11.726 -0.4752 -0.3776 -0.1191
 4045TIP3   OH233549   2.600   6.026  15.046 -0.1212  0.5948  0.3706
 4045TIP3    H133550   2.665   6.012  15.115  0.5377 -0.6571 -0.4739
 4045TIP3    H233551   2.584   6.121  15.048  0.1442  0.6312  1.9886
 4046TIP3   OH233552   0.864   4.026   3.167  0.1133 -0.4932 -0.1698
 4046TIP3    H133553   0.790   4.085   3.176 -0.9043 -1.8270  0.6754
 4046TIP3    H233554   0.847   3.977   3.087  0.2292 -0.6057 -0.1263
 4047TIP3   OH233555   2.742   2.507   4.401  0.2049  0.0008  0.1595
 4047TIP3    H133556   2.744   2.419   4.439  2.2657  0.7017  1.8556
 4047TIP3    H233557   2.773   2.564   4.471  3.1986  1.5389 -2.1891
 4048TIP3   OH233558   2.782   1.799   3.538 -0.0140 -0.3462  0.2379
 4048TIP3    H133559   2.706   1.790   3.595 -0.0467 -0.6040  0.1568
 4048TIP3    H233560   2.857   1.804   3.597 -0.1997  1.1903  0.3639
 4049TIP3   OH233561   5.349   6.322  10.983  0.5563 -0.5358 -0.5397
 4049TIP3    H133562   5.376   6.325  10.891  0.0794  1.0604 -0.6643
 4049TIP3    H233563   5.279   6.257  10.985 -0.1309  0.1375 -1.5305
 4050TIP3   OH233564   3.848   0.136   0.840 -0.4434 -0.2113  0.5228
 4050TIP3    H133565   3.836   0.197   0.766 -0.9933 -0.8072  0.1090
 4050TIP3    H233566   3.894   0.188   0.906  0.6376  0.1545 -0.4761
 4051TIP3   OH233567   6.471   5.674  14.491  0.0637 -0.2908  0.0413
 4051TIP3    H133568   6.458   5.724  14.571 -1.4465 -0.2270 -0.2182
 4051TIP3    H233569   6.514   5.735  14.430  0.5210 -0.1097  0.5423
 4052TIP3   OH233570   1.924   2.467  11.712  0.2086  0.2015  0.2147
 4052TIP3    H133571   1.835   2.465  11.747  0.4168  0.8598  0.8053
 4052TIP3    H233572   1.961   2.549  11.745  1.5320 -0.7615  1.2427
 4053TIP3   OH233573   0.512   2.915  16.271 -0.3050  0.3315 -0.6452
 4053TIP3    H133574   0.564   2.845  16.233  1.0885  2.0294 -2.0308
 4053TIP3    H233575   0.448   2.937  16.204  0.2690  1.3906 -0.8675
 4054TIP3   OH233576   0.856   2.579  15.855  0.1014  0.2397 -0.2424
 4054TIP3    H133577   0.893   2.577  15.766 -0.7823 -1.9835 -0.6244
 4054TIP3    H233578   0.762   2.590  15.841  0.0458  0.7749  0.4904
 4055TIP3   OH233579   1.965   5.660   3.797  0.0058 -0.2054  0.4218
 4055TIP3    H133580   1.928   5.622   3.718  0.0881  0.2768  0.1467
 4055TIP3    H233581   2.024   5.729   3.765 -0.3437  0.3294  0.9130
 4056TIP3   OH233582   1.569   6.416  14.408  0.3312  0.5627  0.3422
 4056TIP3    H133583   1.478   6.405  14.438 -0.3683 -0.6836 -2.0111
 4056TIP3    H233584   1.615   6.448  14.485 -1.9598  0.5854  1.8152
 4057TIP3   OH233585   0.282   3.556   4.157 -0.2050  0.0722 -0.2271
 4057TIP3    H133586   0.209   3.495   4.145 -0.0825  0.1081 -1.2810
 4057TIP3    H233587   0.334   3.547   4.077 -0.3896  1.8301 -0.5835
 4058TIP3   OH233588   0.108   5.809  14.236 -0.4630 -0.0971 -0.1639
 4058TIP3    H133589   0.040   5.782  14.298 -0.3602  0.1530  0.0559
 4058TIP3    H233590   0.094   5.902  14.224 -0.0519 -0.0097  0.0143
 4059TIP3   OH233591   3.199   0.043  14.937  0.2645  0.4632  0.4071
 4059TIP3    H133592   3.134  -0.021  14.907  1.0281 -0.0966 -0.0780
 4059TIP3    H233593   3.172   0.125  14.897  0.6020 -0.0379 -0.8994
 4060TIP3   OH233594   2.883   0.945  13.958 -0.6345  0.0711 -0.4146
 4060TIP3    H133595   2.819   0.886  13.997 -1.1767 -0.0430 -1.4647
 4060TIP3    H233596   2.834   1.026  13.941 -1.7332 -1.2837 -4.9964
 4061TIP3   OH233597   2.731   2.931  14.183 -0.2258 -0.2481  0.1470
 4061TIP3    H133598   2.672   2.902  14.113  1.8917  0.8785 -2.2770
 4061TIP3    H233599   2.718   3.025  14.188  1.1292 -0.0244 -0.2338
 4062TIP3   OH233600   3.840   4.896  11.949 -0.1538 -0.5741  0.2574
 4062TIP3    H133601   3.924   4.854  11.930 -0.0112  0.3278 -1.2841
 4062TIP3    H233602   3.847   4.983  11.910 -2.0059 -0.6883 -0.4615
 4063TIP3   OH233603   4.729   0.646   5.166  0.1652 -0.0358 -0.2534
 4063TIP3    H133604   4.810   0.598   5.149 -0.5882 -0.9347 -1.5290
 4063TIP3    H233605   4.708   0.688   5.083 -2.8368 -3.2736 -1.3837
 4064TIP3   OH233606   5.102   5.716   4.523  0.5123  0.1746  0.2185
 4064TIP3    H133607   5.182   5.684   4.480 -0.7431 -3.0436  0.0163
 4064TIP3    H233608   5.097   5.666   4.604 -1.7149 -0.4156 -0.2046
 4065TIP3   OH233609   4.601   3.121  14.046 -0.3762 -0.4512 -0.1345
 4065TIP3    H133610   4.577   3.030  14.033  2.2966 -1.0189 -2.0584
 4065TIP3    H233611   4.684   3.117  14.095 -0.5837  0.9826  0.3939
 4066TIP3   OH233612   1.427   5.327  15.599  0.4861 -0.2491  0.3556
 4066TIP3    H133613   1.381   5.279  15.530  0.9748 -0.0864 -0.0929
 4066TIP3    H233614   1.520   5.322  15.575  0.5441  1.0668  0.1848
 4067TIP3   OH233615   1.209   4.034  12.448  0.4903  0.0420 -0.0500
 4067TIP3    H133616   1.175   4.099  12.510  0.2769  0.4410 -0.5801
 4067TIP3    H233617   1.181   4.065  12.362  1.2523 -0.2154 -0.4020
 4068TIP3   OH233618   2.491   2.442   0.372 -0.6186 -0.5364  0.0753
 4068TIP3    H133619   2.508   2.417   0.462  2.4700 -0.3586 -0.3388
 4068TIP3    H233620   2.458   2.363   0.330  0.2553 -1.3158  0.8276
 4069TIP3   OH233621   0.395   1.276   4.483 -1.3068 -0.0351  0.1953
 4069TIP3    H133622   0.380   1.297   4.391 -0.1907  1.1779  0.2594
 4069TIP3    H233623   0.490   1.285   4.494 -1.5798  1.3718  1.7987
 4070TIP3   OH233624   2.777   2.223   6.708  0.3325 -0.5815  0.1913
 4070TIP3    H133625   2.703   2.171   6.676  0.2284 -1.1735  1.3463
 4070TIP3    H233626   2.742   2.268   6.786  0.4167  1.2419 -0.7802
 4071TIP3   OH233627   5.414   1.791  14.580 -0.3162 -0.0774  0.1457
 4071TIP3    H133628   5.432   1.885  14.589  0.6466 -0.3399  1.3033
 4071TIP3    H233629   5.501   1.751  14.578 -0.6438 -0.8130 -2.5734
 4072TIP3   OH233630   2.977   6.751  14.819  0.3282  0.3745  0.0300
 4072TIP3    H133631   2.945   6.669  14.782  0.2881  1.1884 -1.8475
 4072TIP3    H233632   2.900   6.808  14.822  0.6634  0.8373 -0.1042
 4073TIP3   OH233633   3.831   2.297   5.275 -0.1720 -0.0116 -0.2864
 4073TIP3    H133634   3.775   2.221   5.289  0.6909 -0.4866  0.8059
 4073TIP3    H233635   3.827   2.313   5.181  0.2164 -1.8933 -0.6709
 4074TIP3   OH233636   5.147   4.586  13.784 -0.1019 -0.1793 -0.1684
 4074TIP3    H133637   5.089   4.607  13.711 -0.1233 -0.4965 -0.2463
 4074TIP3    H233638   5.203   4.663  13.793  1.4173 -0.9771 -1.9831
 4075TIP3   OH233639   2.071   0.087   0.583  0.5162 -0.1224  0.5548
 4075TIP3    H133640   2.133   0.036   0.636  1.6625 -0.2668 -0.8566
 4075TIP3    H233641   2.127   0.148   0.534 -0.6940  1.4727  1.0838
 4076TIP3   OH233642   2.503   6.348   3.266 -0.4244 -0.0700 -0.3750
 4076TIP3    H133643   2.433   6.399   3.307  0.1323 -0.7398  1.4957
 4076TIP3    H233644   2.583   6.394   3.290 -0.0201 -1.0255  0.1494
 4077TIP3   OH233645   5.131   3.947  16.802 -0.0755  0.1351  0.1135
 4077TIP3    H133646   5.086   3.865  16.780 -0.1121  0.5413 -1.3627
 4077TIP3    H233647   5.196   3.921  16.868  0.3171 -1.2022 -0.7686
 4078TIP3   OH233648   4.724   3.534   1.492  0.1204  0.6332 -0.0858
 4078TIP3    H133649   4.755   3.500   1.576  0.7870  1.0476 -0.1564
 4078TIP3    H233650   4.701   3.456   1.441  1.6317  0.2568 -0.2466
 4079TIP3   OH233651   3.122   5.410  16.787  0.3087  0.0922  0.0028
 4079TIP3    H133652   3.216   5.399  16.768  0.3635  0.2034  0.2126
 4079TIP3    H233653   3.115   5.396  16.881  0.0151 -0.5695 -0.1180
 4080TIP3   OH233654   1.870   6.217  12.856  0.3702  0.1309 -0.1402
 4080TIP3    H133655   1.860   6.249  12.946  1.6377 -0.9959  0.4506
 4080TIP3    H233656   1.783   6.184  12.833 -0.1656  1.1192  0.3718
 4081TIP3   OH233657   5.618   2.051   2.088 -0.0469 -0.3390 -0.1922
 4081TIP3    H133658   5.534   2.095   2.098 -0.1709  0.2273 -2.8638
 4081TIP3    H233659   5.599   1.958   2.099 -0.5609 -0.0667  1.4240
 4082TIP3   OH233660   1.073   4.116   2.570 -0.3576  0.7182 -0.1889
 4082TIP3    H133661   1.013   4.189   2.551 -0.1463  0.9251 -0.0657
 4082TIP3    H233662   1.126   4.108   2.491  0.9675  2.0105  0.5212
 4083TIP3   OH233663   5.808   3.934  11.644  0.2351 -0.0585 -0.2588
 4083TIP3    H133664   5.877   3.934  11.710  0.1757 -0.4459 -0.1971
 4083TIP3    H233665   5.831   3.863  11.585 -0.3943 -0.5449  0.0645
 4084TIP3   OH233666   3.422   3.517   1.094 -0.4821  0.1687  0.0892
 4084TIP3    H133667   3.485   3.588   1.085 -2.8071  2.3624  0.0279
 4084TIP3    H233668   3.403   3.490   1.004  1.2143 -1.3602  0.1524
 4085TIP3   OH233669   4.518   2.768  11.125 -0.0205 -0.0487  0.4052
 4085TIP3    H133670   4.555   2.683  11.149  0.4885  0.0970  0.1577
 4085TIP3    H233671   4.588   2.810  11.075 -0.7987 -0.0551 -0.6993
 4086TIP3   OH233672   5.145   4.647  13.354  0.6893  0.1658  0.2558
 4086TIP3    H133673   5.172   4.643  13.262 -0.7304  1.6262 -0.2781
 4086TIP3    H233674   5.158   4.558  13.387 -0.4403 -0.8656 -1.8704
 4087TIP3   OH233675   5.050   0.894   2.178 -0.3928 -0.6415  0.4810
 4087TIP3    H133676   5.056   0.833   2.105 -0.7462  0.5565 -0.6070
 4087TIP3    H233677   5.004   0.970   2.141  1.9971  1.2431  1.0666
 4088TIP3   OH233678   1.805   3.885  17.047  0.2174  0.5386 -0.2180
 4088TIP3    H133679   1.780   3.845  16.964  1.1582 -1.1123  0.2567
 4088TIP3    H233680   1.742   3.957  17.059 -0.7320 -0.0015 -1.7082
 4089TIP3   OH233681   5.378   2.620   3.478  0.3938 -0.7968 -0.4839
 4089TIP3    H133682   5.388   2.622   3.573  1.7088  0.1145 -0.6089
 4089TIP3    H233683   5.394   2.529   3.454 -0.3159 -1.1094  0.1905
 4090TIP3   OH233684   5.382   4.300   0.119 -0.2875 -0.3587  0.2131
 4090TIP3    H133685   5.472   4.331   0.119  0.2394 -1.8031 -0.1906
 4090TIP3    H233686   5.383   4.222   0.064 -2.2205  0.7525 -1.5244
 4091TIP3   OH233687   6.667   0.489   1.620 -0.0645  0.2436 -0.0531
 4091TIP3    H133688   6.688   0.506   1.711 -0.2965  0.5044 -0.0486
 4091TIP3    H233689   6.605   0.416   1.623  0.0937  0.1095 -0.0160
 4092TIP3   OH233690   4.810   4.129  14.659 -0.3089  0.1640 -0.1455
 4092TIP3    H133691   4.841   4.166  14.576  0.6390 -0.6384 -0.1767
 4092TIP3    H233692   4.860   4.047  14.668 -0.9683 -0.1469  0.8357
 4093TIP3   OH233693   5.742   1.740  14.141  0.0409 -0.4119 -0.1756
 4093TIP3    H133694   5.830   1.778  14.145  0.5297 -1.5887  1.6669
 4093TIP3    H233695   5.690   1.795  14.200 -0.3901  0.0681 -0.9878
 4094TIP3   OH233696   3.487   5.137  16.022 -0.0506  0.2993  0.2438
 4094TIP3    H133697   3.548   5.071  15.988 -1.7465 -1.0311 -0.3790
 4094TIP3    H233698   3.429   5.156  15.948 -1.0485  0.7210  1.1129
 4095TIP3   OH233699   0.865   4.469   6.432  0.0299  0.1276  0.1558
 4095TIP3    H133700   0.914   4.515   6.364  0.1307 -3.1398 -2.2097
 4095TIP3    H233701   0.773   4.481   6.407  0.0750 -1.2577 -0.7741
 4096TIP3   OH233702   3.631   3.930  11.887  0.2515  0.3216  0.0605
 4096TIP3    H133703   3.705   3.907  11.944  0.9776  1.1849 -0.5007
 4096TIP3    H233704   3.656   3.898  11.801 -1.4138 -2.1564  0.3876
 4097TIP3   OH233705   4.503   4.942   6.650 -0.7810  0.3724 -0.1208
 4097TIP3    H133706   4.584   4.949   6.700 -1.2656  1.7766  0.4999
 4097TIP3    H233707   4.478   4.849   6.658 -1.1965  0.6359  2.8394
 4098TIP3   OH233708   5.848   6.494  15.494  0.8441  0.1054 -0.5070
 4098TIP3    H133709   5.862   6.473  15.401  1.5911 -0.7163 -0.2168
 4098TIP3    H233710   5.934   6.486  15.534  0.4551  0.0509  0.3414
 4099TIP3   OH233711   3.831   2.407   1.630  0.2797  0.0947 -0.2782
 4099TIP3    H133712   3.777   2.471   1.584  1.9182  0.9408 -1.1075
 4099TIP3    H233713   3.802   2.322   1.596  0.5643  0.6281 -1.9132
 4100TIP3   OH233714   6.677   6.380   6.312  0.1227 -0.6123 -0.4664
 4100TIP3    H133715   6.690   6.289   6.284  1.4000 -0.3106 -0.9062
 4100TIP3    H233716   6.739   6.431   6.259 -1.1424  0.6347 -0.8211
 4101TIP3   OH233717   0.322   5.830   2.218  0.4355  0.6449 -0.0669
 4101TIP3    H133718   0.377   5.805   2.144  0.4238  0.5964 -0.0591
 4101TIP3    H233719   0.372   5.805   2.295  0.7228  1.2675 -0.0454
 4102TIP3   OH233720   4.743   0.769   4.131  0.1794  0.5405 -0.4439
 4102TIP3    H133721   4.654   0.803   4.120 -0.0635  0.0125 -0.1608
 4102TIP3    H233722   4.795   0.845   4.156 -0.3049  0.7474 -0.0608
 4103TIP3   OH233723   5.907   2.150  11.564 -0.3136  0.8190 -0.1716
 4103TIP3    H133724   5.996   2.116  11.555  0.2397  2.0733  0.3122
 4103TIP3    H233725   5.883   2.130  11.654  0.8196  3.4267  0.8015
 4104TIP3   OH233726   3.275   1.438   0.198  0.1202 -0.2289  0.1184
 4104TIP3    H133727   3.184   1.462   0.215  0.0330 -0.6627  0.2769
 4104TIP3    H233728   3.325   1.519   0.215 -0.1155 -0.2727  1.0928
 4105TIP3   OH233729   6.156   5.197  12.190 -0.6443 -0.1591 -0.4235
 4105TIP3    H133730   6.152   5.267  12.254 -1.1466  1.0786 -1.7628
 4105TIP3    H233731   6.075   5.148  12.203 -0.4585 -0.2981  0.2733
 4106TIP3   OH233732   4.833   6.042  12.598  0.3492  0.1021 -0.0665
 4106TIP3    H133733   4.900   6.091  12.644  0.3349 -0.2754  0.3659
 4106TIP3    H233734   4.754   6.095  12.607 -0.2381 -1.0470  2.4173
 4107TIP3   OH233735   6.701   1.249  16.204  0.5125  0.1197 -0.9082
 4107TIP3    H133736   6.626   1.302  16.178 -0.0360  0.6742  1.5149
 4107TIP3    H233737   6.770   1.312  16.222 -0.6950  0.4823  3.8406
 4108TIP3   OH233738   3.090   1.206   0.056  0.0472  0.0241  0.1140
 4108TIP3    H133739   3.100   1.217  -0.039 -0.1147 -0.0753  0.0854
 4108TIP3    H233740   3.162   1.256   0.093  0.6617 -0.6904 -0.0890
 4109TIP3   OH233741   6.453   6.506   6.404  0.1303 -0.3026  0.1443
 4109TIP3    H133742   6.526   6.444   6.400 -0.2995 -0.7853 -0.5867
 4109TIP3    H233743   6.377   6.451   6.425 -0.2433 -0.0206 -0.4406
 4110TIP3   OH233744   4.513   6.610   4.664 -0.3322 -0.0386  0.1452
 4110TIP3    H133745   4.492   6.602   4.757 -1.0563  2.4779  0.2776
 4110TIP3    H233746   4.605   6.635   4.662  0.3479 -2.3294  0.0063
 4111TIP3   OH233747   2.974   1.174  13.699 -0.0415 -0.3891  0.2319
 4111TIP3    H133748   3.060   1.138  13.721  0.0900 -0.0334  0.3068
 4111TIP3    H233749   2.950   1.227  13.775  0.4577  0.9336 -0.5081
 4112TIP3   OH233750   5.931   0.108  17.258 -0.7015 -0.1819  0.3113
 4112TIP3    H133751   5.949   0.060  17.338 -2.2979 -0.6802  0.4237
 4112TIP3    H233752   5.858   0.166  17.280 -0.5377  0.3662 -0.5233
 4113TIP3   OH233753   0.105   1.243   3.803  0.1793 -0.2791 -0.6115
 4113TIP3    H133754   0.014   1.261   3.824  0.6646 -0.7868  2.3887
 4113TIP3    H233755   0.103   1.157   3.760 -0.7056 -0.6870  0.2056
 4114TIP3   OH233756   6.347   4.572  14.014 -0.3435 -0.0062 -0.7312
 4114TIP3    H133757   6.422   4.626  14.041 -0.6598  0.2848 -0.4251
 4114TIP3    H233758   6.284   4.581  14.085  0.4145 -2.4451  0.3894
 4115TIP3   OH233759   2.446   5.785  12.386 -0.0587 -0.1176  0.4124
 4115TIP3    H133760   2.485   5.734  12.456 -1.2575 -1.4650  0.1467
 4115TIP3    H233761   2.351   5.773  12.398 -0.2908 -0.4140 -1.4511
 4116TIP3   OH233762   6.782   5.298  13.296  0.4497 -0.4465  0.5181
 4116TIP3    H133763   6.729   5.353  13.354  1.1785 -0.3368  1.0839
 4116TIP3    H233764   6.717   5.249  13.244 -0.2015  0.2826  0.6282
 4117TIP3   OH233765   1.309   2.683  16.797 -0.1619  0.1715  0.2537
 4117TIP3    H133766   1.369   2.669  16.724  0.7246  1.1782  0.7534
 4117TIP3    H233767   1.352   2.749  16.851 -0.7167 -0.6791  1.7978
 4118TIP3   OH233768   2.098   4.627  14.436 -0.2566  0.4033 -0.5345
 4118TIP3    H133769   2.093   4.575  14.515 -0.2526 -0.0452 -0.8268
 4118TIP3    H233770   2.028   4.594  14.380  1.1532 -0.8679 -1.6367
 4119TIP3   OH233771   2.326   2.980  12.768 -0.1928 -0.4794 -0.4111
 4119TIP3    H133772   2.318   3.051  12.705 -0.1107  0.3033  0.4513
 4119TIP3    H233773   2.387   2.918  12.726  2.7710  1.6912  0.3512
 4120TIP3   OH233774   3.271   1.519  15.933 -0.0988 -0.1443 -0.0905
 4120TIP3    H133775   3.260   1.458  16.006  0.4521  1.2853  1.2316
 4120TIP3    H233776   3.362   1.548  15.939 -0.1918  0.4013 -1.0322
 4121TIP3   OH233777   1.944   5.232   4.455 -0.4355  0.2415 -0.2405
 4121TIP3    H133778   2.025   5.246   4.504 -0.0952  0.1382 -0.7668
 4121TIP3    H233779   1.875   5.262   4.514  0.0913  1.6995 -0.3343
 4122TIP3   OH233780   4.229   1.816  13.776  0.0809  0.2269  0.2887
 4122TIP3    H133781   4.168   1.797  13.847  0.2673 -2.8226 -0.2338
 4122TIP3    H233782   4.181   1.875  13.717 -0.6219  1.5530  2.0857
 4123TIP3   OH233783   0.811   0.007   1.917 -0.0558 -1.1145 -0.3330
 4123TIP3    H133784   0.759  -0.013   1.995  3.2720 -0.4609  2.3160
 4123TIP3    H233785   0.788  -0.061   1.854 -1.5885 -2.8173  1.9069
 4124TIP3   OH233786   3.857   1.483   4.660  0.4012 -0.3373 -0.1895
 4124TIP3    H133787   3.882   1.465   4.751  0.9510  0.2671 -0.2135
 4124TIP3    H233788   3.916   1.427   4.609 -0.8279 -1.7167 -0.1538
 4125TIP3   OH233789   3.610   2.306  12.149 -0.3952 -0.2161  0.0944
 4125TIP3    H133790   3.692   2.278  12.107  0.6108  0.7934  1.3233
 4125TIP3    H233791   3.547   2.312  12.077  0.7054 -0.6440 -0.9283
 4126TIP3   OH233792   2.635   6.129  11.799 -0.0895 -0.0555 -0.4092
 4126TIP3    H133793   2.719   6.091  11.825  0.7440  0.3831 -2.3047
 4126TIP3    H233794   2.574   6.102  11.868  1.5712 -0.4778  0.9519
 4127TIP3   OH233795   2.180   3.989  15.986 -0.4044  0.0698  0.0916
 4127TIP3    H133796   2.171   4.020  15.896  0.2897  1.0462  0.3462
 4127TIP3    H233797   2.099   3.941  16.003 -1.2848  1.3216 -0.4843
 4128TIP3   OH233798   2.448   0.851   3.749 -0.4199  0.5528 -0.1170
 4128TIP3    H133799   2.401   0.832   3.668 -1.1192 -0.0337  0.4154
 4128TIP3    H233800   2.495   0.771   3.770 -0.4053  0.6308  0.1600
 4129TIP3   OH233801   0.490   1.987  13.075  0.3252  0.4759 -0.7406
 4129TIP3    H133802   0.438   1.910  13.054  1.0494 -0.2520  0.0425
 4129TIP3    H233803   0.460   2.055  13.014 -1.6390  0.1450 -0.1954
 4130TIP3   OH233804   2.429   3.639  11.749 -0.0314 -0.0015 -0.6338
 4130TIP3    H133805   2.500   3.617  11.689 -1.5008 -1.1036 -2.0639
 4130TIP3    H233806   2.374   3.561  11.750 -0.3502  0.1848  1.7862
 4131TIP3   OH233807   3.846   2.891  12.539  0.2197  0.2792 -0.5611
 4131TIP3    H133808   3.883   2.813  12.497 -0.2740  0.3024 -1.0541
 4131TIP3    H233809   3.770   2.859  12.586 -0.9874  0.6908 -2.1444
 4132TIP3   OH233810   6.733   3.330   4.925  0.0448 -0.3593 -0.0411
 4132TIP3    H133811   6.681   3.330   5.006  0.5149 -1.0853  0.2679
 4132TIP3    H233812   6.769   3.418   4.920 -1.2680  0.1850 -0.2988
 4133TIP3   OH233813   1.519   2.549  11.562  0.4289 -0.2485  0.0972
 4133TIP3    H133814   1.613   2.564  11.569  0.9390 -2.1695 -1.9108
 4133TIP3    H233815   1.484   2.633  11.531  1.3726  0.6062  1.2398
 4134TIP3   OH233816   1.436   6.677  11.470  0.9102 -0.9699  0.6191
 4134TIP3    H133817   1.494   6.601  11.475  1.5126 -0.5694 -0.0636
 4134TIP3    H233818   1.348   6.641  11.484  1.0260 -2.0383 -1.0951
 4135TIP3   OH233819   6.573   1.039   2.413  0.2397  0.5085 -0.0350
 4135TIP3    H133820   6.495   0.986   2.428  0.4264  0.3469  0.4119
 4135TIP3    H233821   6.646   0.979   2.431  0.5255  0.1226 -2.1578
 4136TIP3   OH233822   3.646   0.502   4.881 -0.4202  0.1237 -0.4660
 4136TIP3    H133823   3.648   0.406   4.885 -0.5158  0.1552  1.0113
 4136TIP3    H233824   3.568   0.523   4.830 -0.1574 -0.5766 -1.1765
 4137TIP3   OH233825   5.106   1.035   0.649 -0.0616 -0.1676  0.2714
 4137TIP3    H133826   5.062   1.098   0.592  1.1726 -0.8197 -1.4843
 4137TIP3    H233827   5.151   0.976   0.589 -0.1019 -1.9438  1.9060
 4138TIP3   OH233828   5.188   1.101   4.544  0.2962 -0.7499  0.3260
 4138TIP3    H133829   5.107   1.053   4.531  1.0036 -1.5851 -1.3543
 4138TIP3    H233830   5.254   1.034   4.562  1.2324 -0.4813 -1.7320
 4139TIP3   OH233831   2.337   5.874   5.810 -0.4120 -0.3830 -0.0130
 4139TIP3    H133832   2.290   5.827   5.880 -0.7513  0.1726  0.1333
 4139TIP3    H233833   2.357   5.806   5.746  0.2742 -0.9834  0.8156
 4140TIP3   OH233834   4.584   5.239   2.656 -0.5452 -0.1236 -0.2919
 4140TIP3    H133835   4.607   5.327   2.683  1.8841 -0.2112 -1.7663
 4140TIP3    H233836   4.589   5.187   2.736 -0.6757  0.8278  0.3492
 4141TIP3   OH233837   4.405   4.855   3.962  1.1470 -0.1586  0.4428
 4141TIP3    H133838   4.379   4.934   4.008 -2.4325  0.1511 -1.7092
 4141TIP3    H233839   4.459   4.886   3.889  0.7941  0.1816  0.3233
 4142TIP3   OH233840   1.060   1.104  16.502 -0.6198  0.3326 -0.3056
 4142TIP3    H133841   1.008   1.147  16.434  0.6390  0.1821 -1.4045
 4142TIP3    H233842   1.145   1.149  16.500  0.1852 -1.1370 -0.3726
 4143TIP3   OH233843   3.877   2.117   0.868  0.0806  0.9318 -0.3818
 4143TIP3    H133844   3.931   2.072   0.804 -0.9958 -1.1594  0.1058
 4143TIP3    H233845   3.919   2.098   0.952 -0.2953  1.0001 -0.1790
 4144TIP3   OH233846   0.552   1.409  14.221  0.5617  0.2107  0.2740
 4144TIP3    H133847   0.518   1.498  14.231  0.9158  0.2127  1.6537
 4144TIP3    H233848   0.502   1.373  14.148 -0.1248  1.2831  0.1852
 4145TIP3   OH233849   5.466   1.952   4.406 -0.2057  0.5815 -0.6940
 4145TIP3    H133850   5.479   1.858   4.396  0.4585  0.8444 -3.1050
 4145TIP3    H233851   5.534   1.979   4.468  0.3966 -0.3540 -0.9221
 4146TIP3   OH233852   2.858   4.169  13.505  0.0749  0.3790  0.6843
 4146TIP3    H133853   2.915   4.230  13.552 -0.9850  1.2607  0.8728
 4146TIP3    H233854   2.846   4.210  13.419 -1.0065  0.6907  0.9664
 4147TIP3   OH233855   4.085   3.878  13.062 -0.1605  0.4872 -0.5985
 4147TIP3    H133856   4.029   3.939  13.110  1.1302  4.0511 -3.1424
 4147TIP3    H233857   4.173   3.896  13.095  0.1496 -0.9015 -0.6158
 4148TIP3   OH233858   6.613   0.607  17.145  0.4165 -0.0836 -0.0058
 4148TIP3    H133859   6.562   0.620  17.224  0.7913 -0.2304  0.2668
 4148TIP3    H233860   6.696   0.570  17.176  0.4546 -0.4177 -0.4896
 4149TIP3   OH233861   3.129   5.576   2.515 -0.1986 -0.3778  0.6866
 4149TIP3    H133862   3.189   5.504   2.497 -0.6524 -0.7133  0.4844
 4149TIP3    H233863   3.078   5.547   2.591  0.1624  0.0773  1.1159
 4150TIP3   OH233864   4.238   5.171  16.036  0.1042 -0.1096 -0.7379
 4150TIP3    H133865   4.244   5.115  16.113 -0.0123  0.0105 -0.6424
 4150TIP3    H233866   4.300   5.132  15.974 -0.9688 -1.1721 -1.1874
 4151TIP3   OH233867   0.193   4.506   3.640  0.2699 -0.1743 -0.0543
 4151TIP3    H133868   0.233   4.419   3.641  0.6253 -0.0176  1.4770
 4151TIP3    H233869   0.232   4.552   3.714 -2.3058  0.1843  1.1721
 4152TIP3   OH233870   5.224   3.942  15.246  0.3427  0.4490 -0.1663
 4152TIP3    H133871   5.244   3.973  15.334 -0.6467  0.4568  0.0663
 4152TIP3    H233872   5.250   4.014  15.188 -2.4798  2.0913  0.3931
 4153TIP3   OH233873   4.361   3.243  15.043 -0.0806  0.1348 -0.1730
 4153TIP3    H133874   4.397   3.331  15.035 -1.8493  1.2462  2.6424
 4153TIP3    H233875   4.432   3.191  15.081  0.2494  0.9184  0.3011
 4154TIP3   OH233876   6.601   3.694   4.964 -0.0171  0.2211 -0.9951
 4154TIP3    H133877   6.566   3.673   4.878  1.4144  1.3886 -1.9177
 4154TIP3    H233878   6.693   3.668   4.959 -0.0499 -0.2759  0.4225
 4155TIP3   OH233879   4.122   3.405   5.900  0.5784 -0.0394  0.4420
 4155TIP3    H133880   4.038   3.395   5.857 -0.0282  0.3353  1.5025
 4155TIP3    H233881   4.146   3.316   5.926  0.0848 -0.0394  0.9079
 4156TIP3   OH233882   0.713   1.982  11.505 -0.1184 -0.6141 -0.2537
 4156TIP3    H133883   0.653   2.056  11.498  1.1870  0.5443  0.5055
 4156TIP3    H233884   0.784   2.013  11.561  1.3805 -1.8145 -1.4007
 4157TIP3   OH233885   2.626   1.179   4.896  0.4774  0.2786 -0.2310
 4157TIP3    H133886   2.586   1.264   4.881 -0.2195 -0.3247 -2.2430
 4157TIP3    H233887   2.559   1.129   4.943  1.2970  1.1132  1.9285
 4158TIP3   OH233888   4.477   3.188  15.533 -0.5176 -0.3261 -0.0580
 4158TIP3    H133889   4.416   3.142  15.475 -0.9837 -1.5240  1.2850
 4158TIP3    H233890   4.467   3.142  15.617  0.3043  1.1703  0.8883
 4159TIP3   OH233891   2.783   0.634  13.047 -0.4044 -0.1701 -0.1687
 4159TIP3    H133892   2.692   0.630  13.019 -0.6095  0.3072  0.3918
 4159TIP3    H233893   2.834   0.619  12.968 -0.9752 -0.7452 -0.4274
 4160TIP3   OH233894   2.678   4.624  15.690  0.8567  0.2526 -0.2065
 4160TIP3    H133895   2.664   4.529  15.689  2.0919  0.0466  0.2730
 4160TIP3    H233896   2.679   4.649  15.597 -0.2316 -0.0625 -0.3202
 4161TIP3   OH233897   3.542   6.674   2.583 -0.0919 -0.7930 -0.2699
 4161TIP3    H133898   3.479   6.604   2.570  0.2799 -1.0322 -0.7990
 4161TIP3    H233899   3.489   6.752   2.599 -0.5191 -1.3817  1.4267
 4162TIP3   OH233900   1.007   0.694  11.271  0.4569  0.1839 -0.1287
 4162TIP3    H133901   1.065   0.769  11.270 -0.9911  1.3572 -0.5043
 4162TIP3    H233902   1.035   0.640  11.197  1.3409  0.4873 -0.0151
 4163TIP3   OH233903   6.772   4.901  14.788 -0.2818  0.4699  0.0193
 4163TIP3    H133904   6.801   4.992  14.783  0.7514  0.1579  0.0355
 4163TIP3    H233905   6.814   4.867  14.867 -0.8192  0.0244  0.1233
 4164TIP3   OH233906   6.651   6.496   0.519 -0.6344  0.4249  0.0270
 4164TIP3    H133907   6.743   6.468   0.524 -0.6310  0.5909  0.9094
 4164TIP3    H233908   6.649   6.582   0.560 -1.0459  0.7942 -0.7346
 4165TIP3   OH233909   1.953   6.135  11.532  0.0469  0.6716 -0.1098
 4165TIP3    H133910   1.967   6.164  11.442  0.6944  0.3064 -0.1319
 4165TIP3    H233911   1.886   6.068  11.525  0.0147  0.7235 -0.3052
 4166TIP3   OH233912   2.171   6.509  12.939 -0.3452  0.0196 -0.5252
 4166TIP3    H133913   2.267   6.503  12.941 -0.4089 -1.4331 -0.8126
 4166TIP3    H233914   2.144   6.434  12.886 -1.6483  0.4714 -0.5242
 4167TIP3   OH233915   6.443   2.331   4.937  0.8695  0.2569 -0.4418
 4167TIP3    H133916   6.357   2.363   4.964  0.3674 -0.8832 -0.6201
 4167TIP3    H233917   6.497   2.339   5.015 -0.0632 -1.2612  0.4202
 4168TIP3   OH233918   5.075   2.949  15.247 -0.1264 -0.7041 -0.3986
 4168TIP3    H133919   5.048   3.003  15.322  1.9422 -2.5993  1.8814
 4168TIP3    H233920   5.036   2.863  15.265  1.5745 -1.5692 -0.6923
 4169TIP3   OH233921   1.138   0.045  11.854  0.1576 -0.2806  0.0017
 4169TIP3    H133922   1.154   0.068  11.946 -1.6941  1.4909 -0.0353
 4169TIP3    H233923   1.148   0.127  11.806 -0.8296 -0.7446 -1.0739
 4170TIP3   OH233924   6.473   6.506  16.285  0.0601 -0.3939 -0.2182
 4170TIP3    H133925   6.550   6.507  16.342  1.1257 -1.3488 -1.5741
 4170TIP3    H233926   6.446   6.597  16.279  1.0450 -0.0516  0.3270
 4171TIP3   OH233927   3.636   4.042   4.136 -0.2366  0.8586 -0.2540
 4171TIP3    H133928   3.681   4.058   4.053  0.3550 -1.9813 -0.5842
 4171TIP3    H233929   3.706   4.042   4.202 -0.4949  1.5806  0.0272
 4172TIP3   OH233930   4.970   5.860  13.128 -0.5590  0.2096  0.5708
 4172TIP3    H133931   4.908   5.930  13.146 -1.4530 -0.2750 -0.4293
 4172TIP3    H233932   4.914   5.785  13.106  0.2685  0.4996 -3.2639
 4173TIP3   OH233933   5.847   4.994  14.077  0.3690  0.5359 -0.4984
 4173TIP3    H133934   5.789   5.066  14.053  2.2334  2.0640 -0.7302
 4173TIP3    H233935   5.871   5.012  14.168  2.3356  1.3893 -1.1144
 4174TIP3   OH233936   2.564   0.588   5.714  0.2816  0.1117 -0.1323
 4174TIP3    H133937   2.490   0.553   5.664  0.0747 -1.9717  1.4655
 4174TIP3    H233938   2.532   0.671   5.750 -0.5084  0.2782 -1.1955
 4175TIP3   OH233939   3.180   6.078  13.530  0.5722  0.3657  0.7318
 4175TIP3    H133940   3.116   6.020  13.571 -0.2785  0.6520 -0.1589
 4175TIP3    H233941   3.255   6.077  13.590 -1.5076  2.7424  3.6885
 4176TIP3   OH233942   1.066   2.534   6.093  0.0582 -0.0525  0.2653
 4176TIP3    H133943   1.052   2.616   6.045 -0.6871  0.3985  1.2147
 4176TIP3    H233944   0.980   2.512   6.128  0.5002 -0.6019  1.0256
 4177TIP3   OH233945   5.210   0.264   0.465 -0.5684  0.6729  0.6464
 4177TIP3    H133946   5.220   0.279   0.559  0.8040  1.7140  0.3693
 4177TIP3    H233947   5.133   0.314   0.440 -1.0792  0.2048  1.2387
 4178TIP3   OH233948   3.760   0.264   1.819  0.4619  0.2702  0.1522
 4178TIP3    H133949   3.680   0.258   1.870 -0.6825  0.4634 -1.5260
 4178TIP3    H233950   3.812   0.331   1.864  0.4037 -0.9325  2.1309
 4179TIP3   OH233951   6.524   0.740  15.917  0.2949  0.0178 -0.0399
 4179TIP3    H133952   6.505   0.652  15.885  1.2711 -0.1545 -0.1809
 4179TIP3    H233953   6.585   0.727  15.990  2.3141  0.6443 -1.5046
 4180TIP3   OH233954   1.915   1.261  15.357 -0.0383 -0.0882 -0.7711
 4180TIP3    H133955   1.862   1.186  15.328 -0.5113 -0.2016  0.3643
 4180TIP3    H233956   1.956   1.231  15.438  2.1095 -0.1480 -1.7997
 4181TIP3   OH233957   3.226   0.363  14.585  0.5432 -0.4787 -0.0908
 4181TIP3    H133958   3.214   0.453  14.554  0.0908 -0.6317 -0.3608
 4181TIP3    H233959   3.138   0.333  14.606  0.6096 -1.1198 -0.7184
 4182TIP3   OH233960   4.711   3.503   2.762 -0.0030 -0.3078  0.0754
 4182TIP3    H133961   4.657   3.463   2.830 -0.8586  2.3169  1.0619
 4182TIP3    H233962   4.794   3.524   2.805 -0.2569  0.6497  0.1202
 4183TIP3   OH233963   3.277   0.500  15.703  0.4873  0.1835 -0.3330
 4183TIP3    H133964   3.189   0.476  15.733  0.5548  1.2310  0.8030
 4183TIP3    H233965   3.279   0.475  15.611 -0.9433  0.0017 -0.3358
 4184TIP3   OH233966   4.235   4.311   3.410 -0.3900  0.4465  0.8587
 4184TIP3    H133967   4.286   4.391   3.402 -0.7455  0.6987  1.0895
 4184TIP3    H233968   4.164   4.322   3.346 -1.5727  1.1893  2.2341
 4185TIP3   OH233969   0.748   1.884   5.180  0.2817  0.5087 -0.0600
 4185TIP3    H133970   0.805   1.961   5.171  1.7595 -0.1964  2.2309
 4185TIP3    H233971   0.694   1.903   5.256  0.9021 -0.7991  0.7528
 4186TIP3   OH233972   1.647   2.044   3.159 -0.4205 -0.5618  0.4600
 4186TIP3    H133973   1.625   1.958   3.195  1.6528 -0.9973  0.8124
 4186TIP3    H233974   1.709   2.081   3.221 -0.1586  0.5690 -0.4387
 4187TIP3   OH233975   5.950   6.715  15.020  0.1660  0.0182  0.0711
 4187TIP3    H133976   5.942   6.697  14.927 -2.5632 -0.6678  0.3608
 4187TIP3    H233977   6.013   6.787  15.025 -0.2786  0.6730 -2.3737
 4188TIP3   OH233978   5.369   6.459  15.949 -0.2713 -0.5327 -0.4880
 4188TIP3    H133979   5.459   6.448  15.981 -0.7772 -2.0061  0.5234
 4188TIP3    H233980   5.357   6.554  15.945  1.7613 -0.2696 -1.9739
 4189TIP3   OH233981   0.820   1.513  17.067 -0.3582 -0.2749 -0.1506
 4189TIP3    H133982   0.748   1.472  17.019  0.5725  0.0436 -1.9017
 4189TIP3    H233983   0.886   1.445  17.075 -0.1733 -0.0873 -0.0488
 4190TIP3   OH233984   1.016   5.736   5.634  0.6187 -0.4347  0.4848
 4190TIP3    H133985   1.102   5.699   5.616  1.2423  0.7195  1.0297
 4190TIP3    H233986   0.962   5.710   5.559  1.5987 -0.6473 -0.1546
 4191TIP3   OH233987   1.739   0.698   2.528  0.7491 -0.0132  0.2045
 4191TIP3    H133988   1.813   0.732   2.477  1.4633 -0.3539  0.9973
 4191TIP3    H233989   1.734   0.605   2.504  0.0902  0.1709 -0.4127
 4192TIP3   OH233990   3.897   2.075  12.748 -1.2322  0.5139 -0.0347
 4192TIP3    H133991   3.851   2.040  12.824  0.1641  1.1350  1.1434
 4192TIP3    H233992   3.871   2.167  12.745  0.6457  1.1425  1.2753
 4193TIP3   OH233993   5.971   1.843  15.559  0.1549  0.1333 -0.1889
 4193TIP3    H133994   6.036   1.835  15.489  1.6148  0.6514  1.0453
 4193TIP3    H233995   5.932   1.756  15.565 -1.6439  0.5997 -3.0767
 4194TIP3   OH233996   2.485   4.791   4.329 -0.1002  0.2234 -0.5371
 4194TIP3    H133997   2.421   4.849   4.369 -1.2854 -0.6578 -1.0991
 4194TIP3    H233998   2.436   4.712   4.307  1.1529 -0.4353 -1.1018
 4195TIP3   OH233999   3.116   2.998   0.208  0.5861  0.3648  0.2786
 4195TIP3    H134000   3.073   2.984   0.124 -0.6994 -2.6800  1.2967
 4195TIP3    H234001   3.183   2.929   0.213  0.4747  0.3170  1.7874
 4196TIP3   OH234002   5.936   1.791   5.126  0.2097 -0.1766  0.3570
 4196TIP3    H134003   5.949   1.840   5.207  1.0775  0.2463 -0.0151
 4196TIP3    H234004   5.849   1.817   5.095  0.1634  0.2005  0.7920
 4197TIP3   OH234005   1.690   0.683   0.537  0.3155  0.8087 -0.2793
 4197TIP3    H134006   1.722   0.766   0.572 -0.3522  1.7622 -1.8338
 4197TIP3    H234007   1.699   0.621   0.610  0.3703  2.3409  1.0614
 4198TIP3   OH234008   2.665   3.887  15.870 -0.0124 -0.7412 -0.4304
 4198TIP3    H134009   2.605   3.819  15.898 -2.2829  1.4200  0.2946
 4198TIP3    H234010   2.630   3.919  15.787  0.2031  0.4474 -0.0897
 4199TIP3   OH234011   1.785   1.479  16.880  0.3253  0.1440 -0.0053
 4199TIP3    H134012   1.767   1.512  16.792  1.3081 -0.9308 -0.6511
 4199TIP3    H234013   1.769   1.384  16.873  1.0731 -0.0507  0.7792
 4200TIP3   OH234014   2.164   6.705  13.731  0.5182 -0.3217 -0.4284
 4200TIP3    H134015   2.181   6.624  13.682  0.1255  0.2897 -1.6272
 4200TIP3    H234016   2.088   6.744  13.686 -1.7318 -1.1084  2.4145
 4201TIP3   OH234017   5.792   6.697   0.887 -0.4288  0.1954 -0.1408
 4201TIP3    H134018   5.871   6.644   0.902 -0.9440 -0.4852  0.2020
 4201TIP3    H234019   5.772   6.735   0.973 -0.3055  0.6221 -0.2953
 4202TIP3   OH234020   2.662   4.155   5.367  0.3253  0.3536 -0.3047
 4202TIP3    H134021   2.665   4.075   5.420 -0.7360  0.0131 -0.7388
 4202TIP3    H234022   2.751   4.189   5.371  0.5952 -0.4080  0.5643
 4203TIP3   OH234023   0.442   4.871  12.078  0.1445  0.3195 -0.1704
 4203TIP3    H134024   0.485   4.817  12.011  0.6236  0.6865 -0.1646
 4203TIP3    H234025   0.463   4.961  12.053 -0.7365  0.5122 -0.2392
 4204TIP3   OH234026   3.846   2.968   0.774 -0.4126  0.1122 -0.1228
 4204TIP3    H134027   3.921   2.948   0.830 -0.0508 -0.3442 -0.7560
 4204TIP3    H234028   3.774   2.916   0.810 -0.2091 -0.0953 -0.0189
 4205TIP3   OH234029   4.813   0.844   5.514 -0.0488  0.0831 -0.1531
 4205TIP3    H134030   4.807   0.782   5.587  1.7764  1.6032  1.4071
 4205TIP3    H234031   4.902   0.834   5.481  0.4878  2.1411  0.4848
 4206TIP3   OH234032   6.768   4.927  16.832 -0.2639 -0.2250  0.0993
 4206TIP3    H134033   6.745   4.962  16.746 -2.2524 -0.2262  0.5695
 4206TIP3    H234034   6.765   4.832  16.821  1.2890 -0.2504 -0.2448
 4207TIP3   OH234035   3.709   3.088  17.094  0.3942 -0.4432 -0.4588
 4207TIP3    H134036   3.682   3.019  17.153 -2.4705  0.4875 -0.5174
 4207TIP3    H234037   3.655   3.163  17.118  2.0863  1.2333 -1.5834
 4208TIP3   OH234038   2.324   6.186  14.409  0.0058  0.3159 -0.0768
 4208TIP3    H134039   2.379   6.253  14.368  1.9618  0.0202  1.8349
 4208TIP3    H234040   2.368   6.103  14.387 -0.8189 -0.1213 -0.1267
 4209TIP3   OH234041   0.866   6.289   2.323 -0.1842 -0.0828 -0.1086
 4209TIP3    H134042   0.896   6.309   2.412  0.6035  1.5091 -0.6971
 4209TIP3    H234043   0.942   6.304   2.267 -0.4832 -1.6873 -1.0152
 4210TIP3   OH234044   6.385   5.670   5.188  0.3298 -0.8390  0.3596
 4210TIP3    H134045   6.462   5.718   5.218 -0.6695  0.2492  1.2815
 4210TIP3    H234046   6.311   5.714   5.230 -0.9568 -0.7795 -1.8094
 4211TIP3   OH234047   5.610   0.113  16.341  0.2141 -0.3171  0.0517
 4211TIP3    H134048   5.696   0.124  16.382 -0.0533  2.8781  0.0017
 4211TIP3    H234049   5.564   0.196  16.358 -1.9223 -0.9516 -2.0783
 4212TIP3   OH234050   6.700   5.822  12.557  0.0970 -0.7772 -0.4148
 4212TIP3    H134051   6.613   5.844  12.522 -0.1738 -0.1142  0.6613
 4212TIP3    H234052   6.758   5.887  12.519 -0.3460  0.5074  1.0487
 4213TIP3   OH234053   1.744   3.187  16.862 -0.0043 -0.3278  0.3058
 4213TIP3    H134054   1.759   3.187  16.957 -0.5307  1.5278  0.4137
 4213TIP3    H234055   1.692   3.108  16.847  1.3674 -1.4986  1.3043
 4214TIP3   OH234056   2.738   6.780  15.081 -0.4507  0.6281  0.0456
 4214TIP3    H134057   2.808   6.715  15.071 -0.7393  0.2724  0.3284
 4214TIP3    H234058   2.703   6.790  14.993 -1.1251 -0.4163  0.1708
 4215TIP3   OH234059   1.728   0.419   0.666  0.3754 -0.2197 -0.4772
 4215TIP3    H134060   1.715   0.364   0.589 -0.1959 -0.8907  0.0775
 4215TIP3    H234061   1.643   0.420   0.709  1.0940 -1.2981  1.0619
 4216TIP3   OH234062   0.335   0.678  12.460  0.3667 -0.3669  0.1341
 4216TIP3    H134063   0.417   0.664  12.411 -1.1703 -3.0073 -1.9828
 4216TIP3    H234064   0.298   0.757  12.421  1.5982  0.5175  0.7029
 4217TIP3   OH234065   2.541   6.321  14.988 -0.2974  0.3865 -0.0565
 4217TIP3    H134066   2.617   6.374  15.011  0.1824 -0.3548  0.0910
 4217TIP3    H234067   2.471   6.353  15.046 -0.6683  2.3675 -1.4585
 4218TIP3   OH234068   0.474   5.785  11.830 -0.1691 -0.5425 -0.7897
 4218TIP3    H134069   0.556   5.752  11.793  1.3993  1.9453  0.2516
 4218TIP3    H234070   0.444   5.715  11.888  1.7115 -1.1414 -0.4894
 4219TIP3   OH234071   4.282   2.823  11.276 -0.1582 -0.3140 -0.1359
 4219TIP3    H134072   4.225   2.866  11.212  1.7649  0.6255 -1.3453
 4219TIP3    H234073   4.363   2.805  11.227  1.2225  0.0182  1.8995
 4220TIP3   OH234074   1.633   5.728   0.331 -0.0553  0.2505 -0.6533
 4220TIP3    H134075   1.643   5.683   0.247 -1.1679  1.6449 -1.5999
 4220TIP3    H234076   1.666   5.817   0.314 -0.4503  0.5990  0.3305
 4221TIP3   OH234077   3.562   0.302   5.600 -0.7856 -0.0384  0.8308
 4221TIP3    H134078   3.612   0.221   5.589  0.6074  0.9972 -0.9349
 4221TIP3    H234079   3.504   0.305   5.525  0.4870  1.4566 -0.1491
 4222TIP3   OH234080   0.733   5.809   1.493 -0.3389 -0.0915 -0.2914
 4222TIP3    H134081   0.670   5.763   1.437 -0.4863  1.0254 -1.0732
 4222TIP3    H234082   0.803   5.835   1.434 -0.4735  1.0616  0.0437
 4223TIP3   OH234083   5.106   5.038   3.353  0.4201  0.4251  0.1730
 4223TIP3    H134084   5.055   5.116   3.377 -0.7601 -0.2192 -0.1820
 4223TIP3    H234085   5.084   5.023   3.261  1.5053  0.3137 -0.0743
 4224TIP3   OH234086   4.459   4.239  14.487 -0.2062 -0.2368  0.1378
 4224TIP3    H134087   4.516   4.165  14.463 -0.7073  0.0694 -2.2412
 4224TIP3    H234088   4.519   4.313  14.495  0.0182 -0.4158  0.1342
 4225TIP3   OH234089   4.033   4.347   4.278 -0.4222 -0.1375  0.0930
 4225TIP3    H134090   4.120   4.310   4.288  0.2770  1.2708 -0.6147
 4225TIP3    H234091   4.021   4.358   4.184 -1.8599 -1.3818  0.0774
 4226TIP3   OH234092   4.675   0.550   5.438 -0.5688 -0.7083 -0.2812
 4226TIP3    H134093   4.756   0.567   5.487  0.0048 -0.5743 -1.2391
 4226TIP3    H234094   4.686   0.601   5.357 -0.5598 -2.5114 -1.4793
 4227TIP3   OH234095   4.917   1.173   3.918  0.3347 -0.3268 -0.0746
 4227TIP3    H134096   4.850   1.238   3.893 -0.7709 -0.9757  1.0887
 4227TIP3    H234097   4.997   1.205   3.877 -0.6733  0.4717 -1.5479
 4228TIP3   OH234098   5.582   2.200   4.935 -0.4330  0.2958 -0.2356
 4228TIP3    H134099   5.507   2.236   4.983 -0.9998  1.0237 -1.6285
 4228TIP3    H234100   5.561   2.108   4.923 -0.7860  0.3471 -0.0323
 4229TIP3   OH234101   1.056   4.277   4.562 -0.4060 -0.3099 -0.2378
 4229TIP3    H134102   1.123   4.232   4.614  0.2518  0.6671 -0.2261
 4229TIP3    H234103   1.089   4.366   4.552 -1.4594  0.0405 -0.6860
 4230TIP3   OH234104   3.539   1.005  17.245 -0.0008 -0.3592 -0.3529
 4230TIP3    H134105   3.479   1.044  17.307 -0.3519 -1.4226  0.0034
 4230TIP3    H234106   3.599   1.076  17.220 -0.2027  0.2128  0.7638
 4231TIP3   OH234107   6.726   5.554   6.300  0.3162 -0.0577 -0.5769
 4231TIP3    H134108   6.806   5.507   6.276  0.5614  0.2569 -0.3992
 4231TIP3    H234109   6.675   5.492   6.351  1.7199  0.5753  1.7702
 4232TIP3   OH234110   4.152   1.281   5.315  0.2834 -0.1237  0.1595
 4232TIP3    H134111   4.117   1.294   5.403 -0.8380 -0.8006 -0.1753
 4232TIP3    H234112   4.148   1.368   5.275  2.0287  0.4836  1.1745
 4233TIP3   OH234113   6.326   6.774  14.794  0.7105  0.1865  0.1784
 4233TIP3    H134114   6.403   6.746  14.745  0.0541  2.2492 -2.2226
 4233TIP3    H234115   6.342   6.866  14.815 -1.7673  1.2665 -2.0585
 4234TIP3   OH234116   1.359   1.881  13.062 -0.8165 -0.2493 -0.1094
 4234TIP3    H134117   1.405   1.865  13.144 -1.0925 -2.0299 -0.2658
 4234TIP3    H234118   1.382   1.807  13.006 -1.0054  0.6898 -1.4917
 4235TIP3   OH234119   0.577   1.064   1.196  0.0602  0.5712 -0.0049
 4235TIP3    H134120   0.614   1.142   1.238  0.2926  0.5888 -0.2399
 4235TIP3    H234121   0.582   1.083   1.102 -1.9145  1.1993 -0.0161
 4236TIP3   OH234122   5.350   4.760  12.567 -0.2460 -0.0128 -0.0941
 4236TIP3    H134123   5.284   4.701  12.531 -0.7303  0.6462 -0.3044
 4236TIP3    H234124   5.405   4.783  12.492 -2.2644  2.7151 -0.8983
 4237TIP3   OH234125   0.982   1.772  10.322 -0.0095  0.4601 -0.0949
 4237TIP3    H134126   0.894   1.765  10.358  0.7071  0.8856  1.8540
 4237TIP3    H234127   1.022   1.845  10.369  1.8201 -0.5587  0.0543
 4238TIP3   OH234128   6.400   6.004   4.417 -0.1672  0.5108  0.3683
 4238TIP3    H134129   6.341   5.949   4.365 -0.4153  0.6188  0.5325
 4238TIP3    H234130   6.475   6.019   4.360 -0.5204  0.7797 -0.0327
 4239TIP3   OH234131   2.952   6.496   3.125 -0.6600  0.3109 -0.1204
 4239TIP3    H134132   3.005   6.443   3.185  0.6775  1.1053 -0.5562
 4239TIP3    H234133   2.973   6.587   3.148 -1.1769  0.6386 -0.8944
 4240TIP3   OH234134   0.282   2.356  11.987 -0.3551  0.5608  0.3008
 4240TIP3    H134135   0.230   2.288  11.944 -0.3338  0.5558  0.2837
 4240TIP3    H234136   0.318   2.313  12.064  2.1549 -0.3656 -1.2670
 4241TIP3   OH234137   4.505   1.999   4.990  0.0791  0.6071  0.5617
 4241TIP3    H134138   4.415   1.968   4.975  0.0927  0.9010 -0.1719
 4241TIP3    H234139   4.514   2.002   5.085 -0.0404 -1.2872  0.6673
 4242TIP3   OH234140   3.486   3.730   0.055 -0.3623  0.2952  0.7183
 4242TIP3    H134141   3.563   3.779   0.085  1.5153 -1.5812 -0.7209
 4242TIP3    H234142   3.424   3.736   0.128 -0.1367  4.3403  0.8059
 4243TIP3   OH234143   3.266   1.091  14.508 -0.1522 -0.7844 -0.6861
 4243TIP3    H134144   3.328   1.048  14.567  2.1499 -0.3555 -2.5889
 4243TIP3    H234145   3.192   1.115  14.563  2.3255  0.6896  2.3262
 4244TIP3   OH234146   4.922   1.399   1.216 -0.1282  0.1743 -0.4361
 4244TIP3    H134147   4.890   1.320   1.260 -0.0056 -1.0231 -2.3227
 4244TIP3    H234148   4.879   1.471   1.261 -1.1317 -1.0368  0.6548
 4245TIP3   OH234149   5.653   6.124  13.126 -0.6519  1.0736  0.4391
 4245TIP3    H134150   5.723   6.185  13.106 -0.6345  0.2396 -2.5508
 4245TIP3    H234151   5.696   6.039  13.133 -1.3320  0.4622 -1.9894
 4246TIP3   OH234152   5.359   0.999  13.061 -0.1474  0.1789  0.4972
 4246TIP3    H134153   5.420   0.926  13.057  1.5977  1.5591  0.8600
 4246TIP3    H234154   5.349   1.028  12.971  0.1592  0.2798  0.4952
 4247TIP3   OH234155   1.431   1.906   4.524 -0.1080 -0.3771 -0.0015
 4247TIP3    H134156   1.379   1.971   4.571  0.4505 -0.7341  1.1432
 4247TIP3    H234157   1.374   1.875   4.454 -0.8590  0.3752  0.2665
 4248TIP3   OH234158   4.881   4.461  12.270 -0.9347  0.0766  0.6213
 4248TIP3    H134159   4.962   4.448  12.318 -2.2268  1.0644  3.2777
 4248TIP3    H234160   4.901   4.528  12.205  0.5114 -0.1732  0.7861
 4249TIP3   OH234161   6.197   0.054  14.090 -0.0220  0.3675  0.3231
 4249TIP3    H134162   6.209  -0.004  14.016 -0.7302  0.2643  0.2760
 4249TIP3    H234163   6.204   0.142  14.054 -2.1597  0.3638 -0.2478
 4250TIP3   OH234164   2.338   4.798   2.557  0.0785 -0.1264  0.5015
 4250TIP3    H134165   2.292   4.767   2.635  0.6807  0.4566  1.1019
 4250TIP3    H234166   2.424   4.824   2.590  0.8026 -1.0674 -0.5706
 4251TIP3   OH234167   5.075   5.131  16.700  0.2554 -0.2469  0.1241
 4251TIP3    H134168   4.998   5.124  16.644  0.6345  0.1422 -0.4571
 4251TIP3    H234169   5.046   5.183  16.775 -0.3314 -1.0115  0.4382
 4252TIP3   OH234170   6.050   1.135   2.429 -0.5122  0.4231  0.4190
 4252TIP3    H134171   6.110   1.152   2.501 -1.0513  0.8116  0.7898
 4252TIP3    H234172   6.041   1.219   2.384  1.3752 -0.2391 -1.3637
 4253TIP3   OH234173   5.948   1.949   4.809  0.0890  0.0424  0.0578
 4253TIP3    H134174   5.909   2.030   4.839  0.5425  0.9837 -1.7416
 4253TIP3    H234175   5.879   1.883   4.820 -0.6747  0.9012  0.4679
 4254TIP3   OH234176   6.557   2.962  11.655  0.8045  0.4534  0.5431
 4254TIP3    H134177   6.564   3.020  11.579  0.0910  0.4764  0.4842
 4254TIP3    H234178   6.469   2.925  11.648  0.9122  0.0853  1.0963
 4255TIP3   OH234179   1.349   0.476   1.813 -0.2800 -0.1211 -0.4670
 4255TIP3    H134180   1.306   0.467   1.898  0.4374 -0.5205 -0.1406
 4255TIP3    H234181   1.280   0.508   1.755 -1.1778 -1.3158 -0.0944
 4256TIP3   OH234182   0.345   4.707  16.941  0.1104  0.5480  0.5962
 4256TIP3    H134183   0.377   4.714  16.851 -0.1047  0.4044  0.5096
 4256TIP3    H234184   0.422   4.680  16.992  0.2108  0.5445  0.4441
 4257TIP3   OH234185   3.513   0.755   0.372 -0.5205 -0.0510  0.0973
 4257TIP3    H134186   3.591   0.723   0.327  0.9292  2.6345  0.4464
 4257TIP3    H234187   3.490   0.835   0.324  0.0388  1.9666  2.9287
 4258TIP3   OH234188   3.315   4.634  13.160  0.1639 -0.2950  0.8014
 4258TIP3    H134189   3.372   4.661  13.232 -0.6336  1.6531  0.7452
 4258TIP3    H234190   3.234   4.607  13.203 -0.8506  2.2440  0.6505
 4259TIP3   OH234191   1.658   1.268  14.745 -0.4949  0.0369 -0.5478
 4259TIP3    H134192   1.643   1.178  14.715 -1.0056  0.1852 -0.7508
 4259TIP3    H234193   1.574   1.312  14.731 -0.2574  0.5384 -0.4155
 4260TIP3   OH234194   3.156   4.090   1.281 -0.6749 -0.0546 -0.3774
 4260TIP3    H134195   3.105   4.147   1.224 -1.8451  0.5893  1.2305
 4260TIP3    H234196   3.176   4.144   1.357  0.9900 -0.8254 -0.2241
 4261TIP3   OH234197   2.408   2.744   0.351  0.1483  0.0408  0.3388
 4261TIP3    H134198   2.353   2.719   0.276  0.1966 -0.5918  0.5136
 4261TIP3    H234199   2.367   2.701   0.426  1.6883 -1.6433  0.2641
 4262TIP3   OH234200   3.033   6.376   0.752 -0.1017  0.5925 -1.4009
 4262TIP3    H134201   3.109   6.372   0.811  0.3271  0.3043 -1.9591
 4262TIP3    H234202   3.071   6.373   0.664 -0.5756  3.1408 -1.7656
 4263TIP3   OH234203   3.383   6.625   4.201 -0.3788 -0.3942  0.2155
 4263TIP3    H134204   3.329   6.679   4.259 -2.9275 -2.7619  0.2570
 4263TIP3    H234205   3.453   6.591   4.257  1.8823  3.3091  0.0038
 4264TIP3   OH234206   6.339   1.289   4.950  0.4746  0.0490  0.1533
 4264TIP3    H134207   6.249   1.305   4.978  0.4929 -0.4114  0.4822
 4264TIP3    H234208   6.362   1.367   4.899  0.0849  0.4244  0.5412
 4265TIP3   OH234209   6.588   1.207  16.452 -0.6653  0.6120 -0.5079
 4265TIP3    H134210   6.628   1.230  16.369  0.1836  0.4714 -0.1407
 4265TIP3    H234211   6.654   1.228  16.518 -0.2415 -1.8160 -0.0608
 4266TIP3   OH234212   4.570   4.168  13.194  0.4964 -0.6099 -0.0693
 4266TIP3    H134213   4.557   4.073  13.190 -0.4005 -0.4668 -1.3742
 4266TIP3    H234214   4.611   4.190  13.111 -2.5905  0.5391 -1.4550
 4267TIP3   OH234215   3.743   0.556  13.338  0.2942 -0.1331  0.2486
 4267TIP3    H134216   3.813   0.610  13.373  0.6873 -0.6310  0.2474
 4267TIP3    H234217   3.699   0.520  13.415  0.0524  0.1586  0.2497
 4268TIP3   OH234218   5.846   0.032  14.410  0.6289 -0.3441  0.2355
 4268TIP3    H134219   5.781   0.026  14.339  0.3741 -0.5758  0.4879
 4268TIP3    H234220   5.807   0.094  14.472  1.2309  0.5182 -0.2256
 4269TIP3   OH234221   3.971   4.167   3.741  0.1800  0.0702  0.5144
 4269TIP3    H134222   4.011   4.099   3.687  0.6179  0.5568  0.2205
 4269TIP3    H234223   3.881   4.138   3.753  0.3780 -0.5927  0.4426
 4270TIP3   OH234224   3.194   5.725  14.855 -0.8550 -0.0412 -0.1735
 4270TIP3    H134225   3.119   5.710  14.913  0.1446  0.7831  1.4214
 4270TIP3    H234226   3.269   5.687  14.902  0.0359  0.9065 -0.7816
 4271TIP3   OH234227   1.045   6.654  12.226  0.3174 -0.1019 -0.1204
 4271TIP3    H134228   1.104   6.721  12.190  1.0806 -0.8112 -0.2048
 4271TIP3    H234229   1.079   6.636  12.313 -0.3858  0.2170  0.2253
 4272TIP3   OH234230   0.902   2.092   0.353  0.1312 -0.0528  0.3620
 4272TIP3    H134231   0.909   2.161   0.419 -2.6797  0.9284 -0.2420
 4272TIP3    H234232   0.874   2.138   0.273  2.3594 -1.3568 -1.2905
 4273TIP3   OH234233   4.341   3.021  16.757  0.2073  0.6174 -0.3404
 4273TIP3    H134234   4.381   3.103  16.789  1.5833  0.6587 -2.0062
 4273TIP3    H234235   4.416   2.966  16.735 -0.5858 -2.2049  3.0968
 4274TIP3   OH234236   5.341   1.193   4.154 -0.3253  0.0900 -0.1523
 4274TIP3    H134237   5.365   1.105   4.182 -0.0811  0.4609  0.8436
 4274TIP3    H234238   5.393   1.251   4.210  0.8474  0.8792 -1.9552
 4275TIP3   OH234239   0.693   5.482   5.652  0.2526 -0.0567 -0.0801
 4275TIP3    H134240   0.765   5.419   5.648  0.4003  0.0400  0.8331
 4275TIP3    H234241   0.619   5.432   5.686 -0.5287 -0.4983 -2.2560
 4276TIP3   OH234242   2.503   6.554   2.820  0.2005  0.1209 -0.1426
 4276TIP3    H134243   2.536   6.557   2.730 -0.3297  1.5609 -0.3063
 4276TIP3    H234244   2.491   6.645   2.844 -3.0950 -0.2887  0.1171
 4277TIP3   OH234245   5.917   5.989  14.194  0.1410  0.1530  0.1727
 4277TIP3    H134246   5.942   5.897  14.193 -0.7372 -0.0970  0.2062
 4277TIP3    H234247   5.909   6.011  14.287  4.8779  1.5951  0.4923
 4278TIP3   OH234248   3.416   1.132  13.373  0.0920  0.4332 -0.0711
 4278TIP3    H134249   3.466   1.172  13.444 -2.1517  2.2433  0.6005
 4278TIP3    H234250   3.336   1.184  13.368 -1.4471 -1.8965 -1.5144
 4279TIP3   OH234251   4.189   2.570   5.438  0.2535  0.1797  0.3757
 4279TIP3    H134252   4.283   2.579   5.451  0.8467 -3.3582 -0.6193
 4279TIP3    H234253   4.157   2.531   5.519  0.1948 -1.2941 -0.3227
 4280TIP3   OH234254   1.133   1.354  12.640 -0.4702 -0.2350  0.2358
 4280TIP3    H134255   1.180   1.402  12.708 -0.2165  0.0623 -0.1469
 4280TIP3    H234256   1.200   1.302  12.596 -0.6101 -0.3187  0.1189
 4281TIP3   OH234257   1.409   0.121  15.239 -0.0774  0.1352  0.1254
 4281TIP3    H134258   1.429   0.215  15.233 -2.1914  0.7057  1.2586
 4281TIP3    H234259   1.482   0.084  15.289 -0.4472  1.6465  1.8564
 4282TIP3   OH234260   5.961   3.087   0.826  0.4123  0.6484 -0.1987
 4282TIP3    H134261   5.930   3.018   0.767  0.8284  1.8526 -1.9103
 4282TIP3    H234262   6.013   3.041   0.892  0.1209 -0.7392 -0.9042
 4283TIP3   OH234263   2.905   4.919   0.512  0.8593 -0.9688 -0.1527
 4283TIP3    H134264   2.893   4.959   0.426  2.7246  0.0865  0.0295
 4283TIP3    H234265   2.925   4.992   0.570  1.7251 -1.8876  0.7471
 4284TIP3   OH234266   2.726   0.142   2.244  0.9707 -0.1033 -0.3498
 4284TIP3    H134267   2.806   0.096   2.269 -0.0998 -2.6236 -1.2600
 4284TIP3    H234268   2.703   0.106   2.159 -0.1007  2.0081 -1.0140
 4285TIP3   OH234269   1.431   3.394   1.337  0.2056  0.4047  0.4678
 4285TIP3    H134270   1.342   3.360   1.325  0.7763 -1.0654  0.1259
 4285TIP3    H234271   1.439   3.409   1.431  0.6267 -2.6466  1.0203
 4286TIP3   OH234272   6.475   0.815  11.534 -0.0317 -0.3645  0.5663
 4286TIP3    H134273   6.482   0.762  11.454 -1.1635 -0.8859  0.7916
 4286TIP3    H234274   6.564   0.848  11.548  0.3698 -0.9449 -0.4401
 4287TIP3   OH234275   3.342   4.851   2.789 -0.2299 -0.0709 -0.1393
 4287TIP3    H134276   3.318   4.783   2.852  0.5572 -1.2776 -1.0843
 4287TIP3    H234277   3.375   4.923   2.843 -0.9988 -0.4580  0.8868
 4288TIP3   OH234278   2.587   6.252   3.662  0.2518 -0.3693 -0.4466
 4288TIP3    H134279   2.539   6.170   3.650 -0.6578  0.0397  0.3326
 4288TIP3    H234280   2.606   6.256   3.755  0.6707  0.1161 -0.5425
 4289TIP3   OH234281   3.125   5.302   1.088 -0.3151 -0.7028 -0.5947
 4289TIP3    H134282   3.166   5.311   1.002  1.3350 -0.8817  0.1338
 4289TIP3    H234283   3.148   5.214   1.116  0.7975  0.0041  0.8243
 4290TIP3   OH234284   3.575   5.546  15.284 -0.2300 -0.1501  0.4398
 4290TIP3    H134285   3.597   5.485  15.214 -1.1311 -0.7890  0.7053
 4290TIP3    H234286   3.655   5.553  15.336 -0.7603 -3.0378  1.8481
 4291TIP3   OH234287   4.864   1.337  12.620  0.6905  0.3419 -0.1882
 4291TIP3    H134288   4.943   1.287  12.597  0.3143 -0.5723  0.4490
 4291TIP3    H234289   4.897   1.412  12.669  1.2330  0.4873 -0.7658
 4292TIP3   OH234290   2.449   5.363   3.446  0.3133 -0.3740 -0.2597
 4292TIP3    H134291   2.432   5.269   3.441  0.8510 -0.4071 -2.0582
 4292TIP3    H234292   2.396   5.401   3.375  0.7541  0.5820 -0.0971
 4293TIP3   OH234293   1.196   6.278   0.633  0.5572 -0.0135  0.5563
 4293TIP3    H134294   1.264   6.343   0.651 -2.2963  3.0499  1.3469
 4293TIP3    H234295   1.189   6.278   0.537 -0.0455  1.6797  0.5688
 4294TIP3   OH234296   2.460   0.185   5.813  0.5765  0.2108 -0.2468
 4294TIP3    H134297   2.520   0.124   5.855  0.2494 -0.4195 -0.6937
 4294TIP3    H234298   2.374   0.146   5.823  0.0565  1.6276  1.3561
 4295TIP3   OH234299   1.658   0.752   0.169  0.3637 -0.1046  0.7795
 4295TIP3    H134300   1.602   0.706   0.232 -0.8103 -0.0089 -0.1571
 4295TIP3    H234301   1.701   0.682   0.121 -0.7521 -0.2418 -0.0544
 4296TIP3   OH234302   4.330   2.136   1.334  0.2114  0.0535  0.5108
 4296TIP3    H134303   4.423   2.119   1.350  0.0102 -2.5044 -0.5461
 4296TIP3    H234304   4.326   2.166   1.243 -0.0442 -0.1571  0.4523
 4297TIP3   OH234305   3.484   2.421  12.769  0.1152  0.4260  0.2454
 4297TIP3    H134306   3.548   2.473  12.720  0.2534  0.6017  0.6091
 4297TIP3    H234307   3.441   2.484  12.826  0.3216  0.1359  0.7307
 4298TIP3   OH234308   3.571   1.461   3.188  0.3561 -0.2581  0.5898
 4298TIP3    H134309   3.525   1.386   3.151  1.4944 -1.2538  1.1066
 4298TIP3    H234310   3.571   1.526   3.118 -0.5973 -0.7611  0.1097
 4299TIP3   OH234311   5.358   5.683   5.165 -0.0255 -0.4173 -0.4304
 4299TIP3    H134312   5.410   5.761   5.147 -0.1794 -0.5384 -1.4595
 4299TIP3    H234313   5.394   5.616   5.107 -0.7142 -0.7571 -0.4762
 4300TIP3   OH234314   1.540   1.697   2.386  0.5979 -0.6568 -0.0191
 4300TIP3    H134315   1.538   1.764   2.317 -0.8091 -2.0898 -1.4713
 4300TIP3    H234316   1.470   1.723   2.447  1.0825  0.0034  0.2659
 4301TIP3   OH234317   4.883   4.533  14.504  0.0730 -0.4476  0.0204
 4301TIP3    H134318   4.904   4.442  14.485  0.8007 -0.0557 -1.1454
 4301TIP3    H234319   4.931   4.583  14.438 -2.5841  0.6393 -1.2312
 4302TIP3   OH234320   2.463   4.408   6.018 -0.4978  0.4270  0.2286
 4302TIP3    H134321   2.439   4.449   6.101 -1.8785 -0.8387  0.4941
 4302TIP3    H234322   2.388   4.422   5.961 -0.2450 -0.1714 -0.2637
 4303TIP3   OH234323   2.813   6.662   5.872 -0.0779 -0.1160  0.3822
 4303TIP3    H134324   2.866   6.632   5.946 -0.2337 -0.4243  0.3703
 4303TIP3    H234325   2.828   6.595   5.804 -1.9881 -1.2742  1.0254
 4304TIP3   OH234326   0.656   2.162  13.188 -0.2457 -0.0557  0.1706
 4304TIP3    H134327   0.729   2.125  13.237  1.4160  0.5340 -1.7108
 4304TIP3    H234328   0.607   2.085  13.157 -0.5341 -0.4541  1.5592
 4305TIP3   OH234329   5.004   3.780  16.394 -0.1460  0.1636  0.1470
 4305TIP3    H134330   4.940   3.746  16.457 -0.3310  0.4666  0.1262
 4305TIP3    H234331   4.986   3.874  16.390  0.0719  0.1957 -0.1221
 4306TIP3   OH234332   2.902   4.844  13.066 -0.2364 -0.2136  0.2391
 4306TIP3    H134333   2.945   4.760  13.082 -1.5284 -0.8071  0.7013
 4306TIP3    H234334   2.971   4.900  13.031  0.5744 -1.5660 -0.4030
 4307TIP3   OH234335   1.977   5.211  11.379  0.2431 -0.0264  0.3368
 4307TIP3    H134336   1.977   5.205  11.474 -0.4351  1.5813  0.4727
 4307TIP3    H234337   1.934   5.295  11.360 -0.5245 -0.7531 -1.4098
 4308TIP3   OH234338   1.429   2.096  11.642 -0.4296 -0.3977  0.3988
 4308TIP3    H134339   1.421   2.156  11.567 -0.5823  0.0960  0.8047
 4308TIP3    H234340   1.523   2.090  11.657 -0.3840 -0.6842  0.0234
 4309TIP3   OH234341   0.024   2.826   2.315  0.0034  0.1720 -0.4796
 4309TIP3    H134342   0.007   2.733   2.298 -1.7110  0.1589  0.9923
 4309TIP3    H234343  -0.035   2.848   2.387 -0.5604  2.7369 -1.6312
 4310TIP3   OH234344   0.100   3.001  11.555  0.0684  0.0119  0.4159
 4310TIP3    H134345   0.010   3.022  11.532 -0.3969 -0.3348  1.8281
 4310TIP3    H234346   0.142   3.087  11.565 -0.8903  0.2930  2.6031
 4311TIP3   OH234347   1.265   1.385  16.585 -0.3795 -0.0962 -0.3339
 4311TIP3    H134348   1.297   1.472  16.562  2.5145 -0.5811  1.4584
 4311TIP3    H234349   1.212   1.398  16.664  0.1948  0.0112  0.0318
 4312TIP3   OH234350   3.136   0.267   5.162  0.3654 -0.3181  0.7071
 4312TIP3    H134351   3.050   0.264   5.120  0.8546  1.3665 -0.5204
 4312TIP3    H234352   3.121   0.229   5.249 -1.4571 -0.6881  0.2825
 4313TIP3   OH234353   1.145   4.556   0.094 -0.7852  0.0670 -0.2117
 4313TIP3    H134354   1.214   4.576   0.031 -1.1868  1.1223 -0.3384
 4313TIP3    H234355   1.190   4.533   0.174 -0.2490 -1.6102 -0.9503
 4314TIP3   OH234356   3.181   0.821   4.164 -0.5430 -0.6928  0.1759
 4314TIP3    H134357   3.132   0.864   4.234  0.0365  2.6262 -1.2657
 4314TIP3    H234358   3.118   0.811   4.093 -0.1875 -0.3690 -0.1899
 4315TIP3   OH234359   2.755   2.519   1.817  0.2852  0.3642 -0.3973
 4315TIP3    H134360   2.791   2.561   1.739  1.2874  1.2940  0.5172
 4315TIP3    H234361   2.762   2.426   1.799  0.8777  0.5600 -1.2614
 4316TIP3   OH234362   5.413   4.782   3.799  0.3826  0.3888  0.3321
 4316TIP3    H134363   5.372   4.710   3.751 -0.5810  1.4042 -0.4253
 4316TIP3    H234364   5.440   4.844   3.731  1.4540  0.6278  0.9513
 4317TIP3   OH234365   5.342   5.749   4.831  0.4055 -0.5558  0.8635
 4317TIP3    H134366   5.338   5.812   4.902  1.8811 -0.3757  0.8111
 4317TIP3    H234367   5.359   5.801   4.752 -1.5658 -0.7112  0.2633
 4318TIP3   OH234368   2.519   1.019  15.048 -0.4866  0.4406 -0.1680
 4318TIP3    H134369   2.502   1.094  14.991 -1.2117  0.5643  0.2053
 4318TIP3    H234370   2.535   1.057  15.134  1.3896  0.3160 -0.4015
 4319TIP3   OH234371   0.781   0.613   5.572 -0.7849  0.2146 -0.3476
 4319TIP3    H134372   0.780   0.620   5.667  1.8144 -0.1400 -0.2125
 4319TIP3    H234373   0.781   0.519   5.554  1.7991  0.1620 -0.4829
 4320TIP3   OH234374   3.278   0.647   5.750  0.1188  0.3997 -0.0931
 4320TIP3    H134375   3.359   0.622   5.707 -1.0067  0.7294 -2.5442
 4320TIP3    H234376   3.250   0.726   5.704 -0.9385  1.0829  1.6090
 4321TIP3   OH234377   6.121   3.441   0.816 -0.5537  0.0276 -0.1186
 4321TIP3    H134378   6.172   3.522   0.808  1.6833 -1.0845  1.5479
 4321TIP3    H234379   6.105   3.413   0.726  2.1472  0.2993 -0.7723
 4322TIP3   OH234380   2.356   3.132  12.509 -0.0338 -0.4375 -0.4119
 4322TIP3    H134381   2.406   3.059  12.472  0.1808  0.0613 -1.1225
 4322TIP3    H234382   2.387   3.209  12.461 -1.0685 -0.0324 -0.4426
 4323TIP3   OH234383   0.515   0.796  14.544  0.0519 -0.5448 -0.1295
 4323TIP3    H134384   0.572   0.873  14.547  0.1901 -0.6557  0.2729
 4323TIP3    H234385   0.564   0.729  14.590  0.7449 -1.4436 -2.0919
 4324TIP3   OH234386   2.361   2.074   3.342  0.7941  0.3930 -0.2633
 4324TIP3    H134387   2.301   2.002   3.327  0.2792  0.8390 -0.3597
 4324TIP3    H234388   2.448   2.036   3.329  0.5266 -0.1897 -0.3687
 4325TIP3   OH234389   0.068   1.898   4.302  0.1285  0.7599 -1.1769
 4325TIP3    H134390   0.086   1.866   4.391  0.6152  2.8209 -0.4985
 4325TIP3    H234391  -0.027   1.909   4.300  0.1033  0.6081 -0.9610
 4326TIP3   OH234392   1.702   5.341  12.812  0.0274 -0.1597  0.3269
 4326TIP3    H134393   1.630   5.331  12.750  0.2717  0.7730 -0.1364
 4326TIP3    H234394   1.667   5.398  12.881 -0.0557 -0.7084  0.7446
 4327TIP3   OH234395   0.296   6.039  16.261 -0.1113  0.0024  0.2453
 4327TIP3    H134396   0.298   6.134  16.249  0.3938 -0.1418 -0.9760
 4327TIP3    H234397   0.388   6.015  16.274 -0.2923 -0.2759  1.1373
 4328TIP3   OH234398   5.546   5.281  11.617  0.2332 -0.1385 -0.3706
 4328TIP3    H134399   5.599   5.322  11.685  0.4013 -2.7765  1.2397
 4328TIP3    H234400   5.457   5.311  11.634  0.7451  2.0674 -1.3152
 4329TIP3   OH234401   3.366   5.959   2.855 -0.5738 -0.8432 -0.0973
 4329TIP3    H134402   3.300   6.016   2.894  1.4055  2.4884 -1.2739
 4329TIP3    H234403   3.318   5.911   2.787 -1.8187  1.7907 -1.2180
 4330TIP3   OH234404   4.362   3.978  14.574 -0.3351  0.3405 -0.1003
 4330TIP3    H134405   4.341   4.072  14.577  0.3217  0.5325 -0.9630
 4330TIP3    H234406   4.452   3.975  14.543 -0.0580 -0.5646  0.7558
 4331TIP3   OH234407   1.026   6.784   1.211 -1.1027 -0.1223  0.1022
 4331TIP3    H134408   1.020   6.845   1.284 -1.1626 -0.7560  0.6251
 4331TIP3    H234409   0.942   6.793   1.166 -0.8808  0.6294 -0.1942
 4332TIP3   OH234410   4.330   1.148   5.486  0.2966 -0.3087  0.5603
 4332TIP3    H134411   4.415   1.166   5.445  0.0250  1.9916  0.8769
 4332TIP3    H234412   4.266   1.183   5.425 -0.3579 -0.7809  0.9666
 4333TIP3   OH234413   1.884   2.238   0.404  0.3157  0.6294  0.2919
 4333TIP3    H134414   1.789   2.229   0.411  0.2963 -0.8840 -1.2060
 4333TIP3    H234415   1.902   2.238   0.310  1.7996  0.8402  0.5445
 4334TIP3   OH234416   3.162   3.062  15.893 -0.3556  0.0066  0.1092
 4334TIP3    H134417   3.091   3.081  15.832 -1.4430 -0.1110  1.3007
 4334TIP3    H234418   3.149   3.124  15.965  0.9044  0.1484  0.2365
 4335TIP3   OH234419   5.239   4.074   4.923 -0.0207 -0.0350 -0.0579
 4335TIP3    H134420   5.162   4.020   4.941 -0.8042  0.7348 -1.0141
 4335TIP3    H234421   5.278   4.034   4.846 -0.4936  0.6252 -0.6530
 4336TIP3   OH234422   5.625   5.201   2.169  0.2687 -0.5741  0.2204
 4336TIP3    H134423   5.543   5.231   2.207 -0.0999 -1.6139  0.2752
 4336TIP3    H234424   5.623   5.235   2.079  0.5156  0.7186  0.6760
 4337TIP3   OH234425   6.221   1.766   6.173 -0.2969 -0.1342 -0.2408
 4337TIP3    H134426   6.186   1.697   6.231  0.3428  0.5013  0.9437
 4337TIP3    H234427   6.225   1.843   6.229  0.5262  0.4589 -1.1075
 4338TIP3   OH234428   2.836   2.938  11.581 -0.6490 -0.6791  0.4218
 4338TIP3    H134429   2.783   2.887  11.642  0.2169 -0.1560  1.6454
 4338TIP3    H234430   2.917   2.887  11.572 -0.6406 -0.5876 -0.0386
 4339TIP3   OH234431   1.552   5.127   1.909  0.0880  0.1534 -0.0124
 4339TIP3    H134432   1.620   5.172   1.959  0.9112  0.3190 -1.2369
 4339TIP3    H234433   1.574   5.034   1.917 -0.1669  0.1318  0.4663
 4340TIP3   OH234434   2.507   0.188  15.678  0.4625 -0.3951 -0.2752
 4340TIP3    H134435   2.412   0.188  15.683  0.4570 -2.9954  0.9624
 4340TIP3    H234436   2.527   0.248  15.606 -2.1416 -0.8294 -1.4734
 4341TIP3   OH234437   5.467   1.069  14.980 -0.1656  0.4279  0.5304
 4341TIP3    H134438   5.436   0.979  14.992 -0.8526  0.7054  0.9089
 4341TIP3    H234439   5.449   1.089  14.888 -0.5257  0.3655  0.5874
 4342TIP3   OH234440   6.295   4.597   4.587 -0.0386  0.1232  0.3625
 4342TIP3    H134441   6.346   4.543   4.647 -1.7306 -0.2517  1.5392
 4342TIP3    H234442   6.237   4.647   4.644 -0.5246  1.0246 -0.8849
 4343TIP3   OH234443   2.952   4.276  16.438 -0.1507 -0.8678  0.2146
 4343TIP3    H134444   2.893   4.222  16.491 -3.0322  1.7106 -0.0417
 4343TIP3    H234445   2.968   4.224  16.360 -3.3422 -1.2509 -0.3347
 4344TIP3   OH234446   3.929   5.445   4.439  0.0358  0.8472  0.1159
 4344TIP3    H134447   4.009   5.424   4.487 -0.1653  1.1055  0.5735
 4344TIP3    H234448   3.898   5.527   4.478 -1.0756  0.1459  0.7377
 4345TIP3   OH234449   4.525   4.708  13.608  0.3039 -0.3064  0.7081
 4345TIP3    H134450   4.496   4.798  13.597 -1.4280 -0.8594  0.4282
 4345TIP3    H234451   4.485   4.679  13.690  2.8768 -0.1109  2.1428
 4346TIP3   OH234452   0.405   3.683   4.471 -0.4063  0.4928  0.3659
 4346TIP3    H134453   0.454   3.615   4.425 -0.3146  0.0484  1.1012
 4346TIP3    H234454   0.404   3.654   4.562  0.3916  1.9175  0.8582
 4347TIP3   OH234455   2.882   2.686  12.027 -0.5084 -0.1612  0.0837
 4347TIP3    H134456   2.816   2.616  12.024  0.9951 -1.6169 -0.4548
 4347TIP3    H234457   2.854   2.749  11.961 -1.5591 -0.5393  0.1460
 4348TIP3   OH234458   4.240   1.982  11.399 -0.4474 -0.3222  0.3801
 4348TIP3    H134459   4.154   2.001  11.435 -1.1429 -1.8208 -0.3934
 4348TIP3    H234460   4.260   2.056  11.342 -1.2452  0.0100  0.5277
 4349TIP3   OH234461   6.634   2.547  15.247 -0.1959  0.1468  0.5125
 4349TIP3    H134462   6.635   2.639  15.223 -2.1333  0.0397 -0.1271
 4349TIP3    H234463   6.543   2.528  15.269  0.0836 -1.7018  0.2850
 4350TIP3   OH234464   3.692   5.665  10.500  0.1501 -0.0410  0.6366
 4350TIP3    H134465   3.668   5.757  10.491 -0.4299 -0.1621  0.9210
 4350TIP3    H234466   3.646   5.636  10.579  0.4680 -0.5307  0.6456
 4351TIP3   OH234467   0.701   6.591   5.850  0.0985 -0.0474  0.1575
 4351TIP3    H134468   0.783   6.542   5.844  0.2179 -0.0619  1.4768
 4351TIP3    H234469   0.695   6.639   5.768  1.7385  0.4452  0.2975
 4352TIP3   OH234470   6.312   6.026   3.713 -0.0072 -0.1948  0.2635
 4352TIP3    H134471   6.324   6.116   3.744 -1.5295 -0.4018  1.6010
 4352TIP3    H234472   6.367   5.973   3.771  0.4697 -0.1859 -0.1761
 4353TIP3   OH234473   4.970   1.835   1.249 -0.0753 -0.1048 -0.0750
 4353TIP3    H134474   4.898   1.888   1.216  1.4333  0.8838 -2.0083
 4353TIP3    H234475   5.025   1.819   1.172  0.8938 -2.2731  0.9899
 4354TIP3   OH234476   1.650   4.854   6.207  0.4330 -0.4827 -0.2621
 4354TIP3    H134477   1.624   4.945   6.194 -0.9389 -0.7087  0.6720
 4354TIP3    H234478   1.568   4.805   6.202  1.1058 -1.6333 -0.3787
 4355TIP3   OH234479   5.170   2.582   0.983  0.2492 -0.7661 -0.5096
 4355TIP3    H134480   5.199   2.650   1.044 -0.4840  0.3677 -1.3831
 4355TIP3    H234481   5.076   2.600   0.970  0.4821 -0.6770 -2.3380
 4356TIP3   OH234482   5.982   1.058  16.385  0.3865 -0.0680  0.5285
 4356TIP3    H134483   5.956   1.143  16.421 -0.6350 -0.3365  0.4560
 4356TIP3    H234484   5.901   1.020  16.353  1.2062  0.0225 -1.8125
 4357TIP3   OH234485   3.357   3.379   5.965 -0.5345 -0.3124  0.0902
 4357TIP3    H134486   3.375   3.287   5.984 -1.0245 -0.4509 -0.1118
 4357TIP3    H234487   3.341   3.381   5.870  1.4122  0.2893 -0.2769
 4358TIP3   OH234488   6.728   3.646  14.413 -0.0111 -0.3161 -0.4111
 4358TIP3    H134489   6.686   3.587  14.476 -0.5288  0.0659 -0.3899
 4358TIP3    H234490   6.668   3.721  14.408  1.0817  0.6254  0.2634
 4359TIP3   OH234491   0.242   4.222   5.006  0.3442  0.2180 -0.0944
 4359TIP3    H134492   0.328   4.197   4.972  1.0730  1.3509  0.8208
 4359TIP3    H234493   0.206   4.280   4.940  0.4850  0.1068 -0.2709
 4360TIP3   OH234494   2.448   1.968   0.209 -0.2218  0.3074 -0.2888
 4360TIP3    H134495   2.377   1.958   0.273 -0.7862 -0.9410 -1.0779
 4360TIP3    H234496   2.405   1.957   0.124  1.1270 -1.9837 -0.7411
 4361TIP3   OH234497   2.938   0.669  10.864  0.1961  0.6393 -0.0970
 4361TIP3    H134498   2.958   0.579  10.887  2.1980  0.7536 -1.1221
 4361TIP3    H234499   2.907   0.665  10.774 -0.4377  0.9024  0.1067
 4362TIP3   OH234500   3.349   1.554  13.472  0.1255  0.9532 -0.2471
 4362TIP3    H134501   3.396   1.547  13.389 -2.8604 -0.3280 -1.9944
 4362TIP3    H234502   3.274   1.495  13.462 -1.0870  1.7667  2.8788
 4363TIP3   OH234503   3.159   5.529  14.429 -0.0901  0.2540 -1.0759
 4363TIP3    H134504   3.221   5.591  14.467  1.4642 -1.1391 -1.2439
 4363TIP3    H234505   3.120   5.486  14.505 -1.2258  1.4143 -0.9561
 4364TIP3   OH234506   3.321   3.460  15.770 -0.2625 -0.0139 -0.0102
 4364TIP3    H134507   3.284   3.413  15.695  0.1949  0.9113 -0.8492
 4364TIP3    H234508   3.380   3.524  15.730 -2.3482  2.6643  0.8963
 4365TIP3   OH234509   0.731   3.122   2.489 -0.4504  0.3895 -0.2088
 4365TIP3    H134510   0.815   3.168   2.492 -0.8319  1.2327 -1.6906
 4365TIP3    H234511   0.670   3.182   2.531 -0.8493  1.0530 -1.6869
 4366TIP3   OH234512   5.146   3.574   3.997 -0.4190 -0.2489  0.2428
 4366TIP3    H134513   5.198   3.546   3.922 -0.4565  1.6237 -0.5417
 4366TIP3    H234514   5.096   3.649   3.964 -1.6545 -0.4046  1.7019
 4367TIP3   OH234515   0.143   2.132  11.891 -0.3901 -0.1253 -0.6365
 4367TIP3    H134516   0.198   2.073  11.838  1.4356  0.6955  0.2522
 4367TIP3    H234517   0.081   2.073  11.935  0.2518 -1.1954 -1.1052
 4368TIP3   OH234518   4.698   1.032   1.912  0.5033  0.4813  0.4737
 4368TIP3    H134519   4.703   1.119   1.874 -3.1639  1.1408  1.1364
 4368TIP3    H234520   4.778   1.024   1.965  2.6504  1.9552 -2.3040
 4369TIP3   OH234521   1.131   6.540   5.469 -0.0361 -0.1824  0.5376
 4369TIP3    H134522   1.136   6.501   5.381  0.9614  0.1708  0.4164
 4369TIP3    H234523   1.115   6.633   5.452  1.5236  0.1431  0.6433
 4370TIP3   OH234524   4.938   5.874   5.609  0.5407 -0.2294  0.1593
 4370TIP3    H134525   4.859   5.823   5.595  1.3069 -1.1648 -0.8664
 4370TIP3    H234526   4.915   5.933   5.681 -2.3125  2.1164 -2.3734
 4371TIP3   OH234527   2.278   5.969  12.007  0.2332 -0.3966 -0.1125
 4371TIP3    H134528   2.197   5.994  11.963  0.4978 -1.0077 -0.9637
 4371TIP3    H234529   2.250   5.912  12.079 -0.0522 -1.1557 -0.8154
 4372TIP3   OH234530   3.847   2.357   0.716 -0.6428 -0.5669 -0.3023
 4372TIP3    H134531   3.871   2.420   0.784  2.4001 -1.1429 -0.6727
 4372TIP3    H234532   3.849   2.272   0.760  1.5190 -0.9636 -1.0112
 4373TIP3   OH234533   3.916   1.971   2.753 -0.1136  0.4728 -0.1221
 4373TIP3    H134534   3.945   1.880   2.746 -0.2005  0.4503 -0.1844
 4373TIP3    H234535   3.996   2.022   2.742  0.3592  0.3548  2.2466
 4374TIP3   OH234536   4.649   1.786   2.478 -0.0420  0.0524  0.4489
 4374TIP3    H134537   4.562   1.769   2.515 -0.3712 -0.3216 -0.4607
 4374TIP3    H234538   4.661   1.881   2.488 -0.2654  0.0108  1.1845
 4375TIP3   OH234539   6.420   1.871  15.187  0.2929  0.5944 -0.3549
 4375TIP3    H134540   6.443   1.847  15.277 -0.6679 -1.8982 -0.6932
 4375TIP3    H234541   6.327   1.851  15.180 -0.0558  2.3384 -1.4720
 4376TIP3   OH234542   1.379   3.728  12.620  1.2416 -0.4336  0.1206
 4376TIP3    H134543   1.347   3.688  12.539  2.9180  0.0927 -0.8471
 4376TIP3    H234544   1.326   3.807  12.631 -0.0425 -1.2971  0.4153
 4377TIP3   OH234545   2.405   5.111  15.159 -0.8315 -0.8773  0.4504
 4377TIP3    H134546   2.436   5.139  15.245 -0.6149  0.2869 -0.0014
 4377TIP3    H234547   2.400   5.015  15.166  2.7358 -1.1773  0.6120
 4378TIP3   OH234548   0.944   3.396   0.593  0.0371  0.0601 -0.2525
 4378TIP3    H134549   1.028   3.354   0.576 -0.3327 -1.7526  1.9130
 4378TIP3    H234550   0.967   3.484   0.624  0.8979  0.9585 -3.1710
 4379TIP3   OH234551   0.470   0.608   4.034 -0.1985 -0.3808  0.4518
 4379TIP3    H134552   0.416   0.531   4.052 -1.3300  0.4906  0.8823
 4379TIP3    H234553   0.554   0.588   4.076 -0.3044 -1.5817  0.1296
 4380TIP3   OH234554   3.544   2.486  15.334  0.1635  0.0960 -0.2122
 4380TIP3    H134555   3.634   2.496  15.305  1.0008  2.2937  2.6830
 4380TIP3    H234556   3.548   2.491  15.429 -2.9672 -0.3609  0.0635
 4381TIP3   OH234557   2.443   0.943   5.549  0.7447 -0.3580  0.8762
 4381TIP3    H134558   2.444   0.910   5.459  0.2724  0.1475  0.6767
 4381TIP3    H234559   2.374   0.893   5.592 -0.3616  0.7063  0.4213
 4382TIP3   OH234560   6.440   4.753  12.221  0.1649  0.2293  0.0446
 4382TIP3    H134561   6.390   4.703  12.285 -0.4971  0.9071  0.0797
 4382TIP3    H234562   6.398   4.735  12.137  0.0662  0.5368  0.0249
 4383TIP3   OH234563   1.836   0.659   0.806 -0.5756  0.4160  0.6002
 4383TIP3    H134564   1.853   0.565   0.803 -1.3746  0.2018  1.9796
 4383TIP3    H234565   1.744   0.666   0.831 -0.9427  1.5711 -0.9814
 4384TIP3   OH234566   0.466   5.267  14.596  0.3186  0.5651 -0.4201
 4384TIP3    H134567   0.432   5.251  14.508 -2.1659 -3.2270  0.9988
 4384TIP3    H234568   0.416   5.342  14.628 -3.1993 -1.5954 -0.3475
 4385TIP3   OH234569   5.320   5.590  15.455  0.0145  0.0708  0.5235
 4385TIP3    H134570   5.329   5.535  15.534  0.4523  1.3274  1.3818
 4385TIP3    H234571   5.333   5.679  15.487  1.2349  0.5409 -1.1655
 4386TIP3   OH234572   0.893   4.253   1.779  0.6063 -0.2667 -0.0300
 4386TIP3    H134573   0.805   4.229   1.808  0.1687  0.7068 -0.4916
 4386TIP3    H234574   0.951   4.189   1.820 -0.4041 -1.5135 -0.4980
 4387TIP3   OH234575   0.579   3.279  12.309  0.5016  0.3049  0.1820
 4387TIP3    H134576   0.549   3.329  12.385  0.5458  1.6549 -0.6558
 4387TIP3    H234577   0.567   3.188  12.335  1.3364  0.6848  2.1483
 4388TIP3   OH234578   1.946   5.852   0.709 -0.7903 -0.2899 -0.0421
 4388TIP3    H134579   1.933   5.943   0.735 -0.5986 -0.4523  0.6302
 4388TIP3    H234580   1.861   5.824   0.675 -0.8307  0.1590 -0.3152
 4389TIP3   OH234581   5.327   2.904  14.230  0.0505  0.0945  0.2202
 4389TIP3    H134582   5.363   2.887  14.143 -1.8897  1.3616 -0.8970
 4389TIP3    H234583   5.403   2.922  14.284  1.2209  1.4209 -1.7347
 4390TIP3   OH234584   5.103   2.883   1.932 -0.4796 -0.1513  0.1923
 4390TIP3    H134585   5.192   2.858   1.908 -0.2081 -1.7085  2.5035
 4390TIP3    H234586   5.100   2.873   2.027 -3.5369 -1.5935  0.0700
 4391TIP3   OH234587   5.352   1.505  16.175 -0.0831  0.1616 -0.3011
 4391TIP3    H134588   5.366   1.414  16.202 -0.2452  0.7004  1.8438
 4391TIP3    H234589   5.440   1.539  16.160  0.1114  0.0710  0.5453
 4392TIP3   OH234590   0.489   6.589  12.025 -0.1019  0.0311  0.3688
 4392TIP3    H134591   0.443   6.590  11.941  0.3494 -1.3024  0.0928
 4392TIP3    H234592   0.423   6.561  12.088  0.2148 -1.5915  0.0178
 4393TIP3   OH234593   6.047   3.710  14.317  0.2746 -0.7186  0.1437
 4393TIP3    H134594   5.983   3.666  14.372 -0.3326  0.9780  0.8790
 4393TIP3    H234595   6.084   3.779  14.373  2.0379 -1.0092 -0.5659
 4394TIP3   OH234596   3.413   4.638  17.113  0.3874  0.1574 -0.0154
 4394TIP3    H134597   3.452   4.724  17.133 -0.3637  0.9600 -1.7834
 4394TIP3    H234598   3.321   4.657  17.098 -0.5589 -1.5161  2.8532
 4395TIP3   OH234599   4.999   3.562  17.035 -0.5419  0.2952 -0.7330
 4395TIP3    H134600   4.939   3.614  17.087 -0.4114  0.8815 -1.1586
 4395TIP3    H234601   4.972   3.471  17.050 -0.1644  0.4065  0.7714
 4396TIP3   OH234602   3.242   0.837  16.363  0.1608  0.1020  0.3984
 4396TIP3    H134603   3.244   0.845  16.458  0.2290  0.7833  0.3417
 4396TIP3    H234604   3.332   0.812  16.339  1.1150  3.2750  0.2438
 4397TIP3   OH234605   0.915   6.524   5.639  0.3122  0.6948  0.0653
 4397TIP3    H134606   0.981   6.535   5.571 -0.7881  0.0546 -1.1566
 4397TIP3    H234607   0.965   6.503   5.718  1.5188 -1.0158 -1.0931
 4398TIP3   OH234608   0.664   2.389  14.693 -0.1860  0.6538 -0.7823
 4398TIP3    H134609   0.672   2.383  14.788  1.2293  0.1279 -0.9119
 4398TIP3    H234610   0.570   2.393  14.677 -0.4782 -0.0790  0.5892
 4399TIP3   OH234611   5.491   2.262  14.474 -0.0655 -0.3741  0.5596
 4399TIP3    H134612   5.424   2.250  14.540 -0.2011 -0.8458  0.3343
 4399TIP3    H234613   5.480   2.189  14.413 -0.2379  0.2998 -0.2396
 4400TIP3   OH234614   1.556   1.171  11.805  0.1584 -0.5674  0.4178
 4400TIP3    H134615   1.495   1.103  11.834 -0.1241 -0.4801  0.0410
 4400TIP3    H234616   1.503   1.229  11.750  0.4968 -0.2832  0.3871
 4401TIP3   OH234617   2.312   2.436   1.205  0.3885  0.1044  0.1700
 4401TIP3    H134618   2.352   2.434   1.118 -2.9660  2.2809 -1.6646
 4401TIP3    H234619   2.358   2.506   1.251  1.9779 -0.8432  0.1094
 4402TIP3   OH234620   0.016   5.245   2.375  0.6448 -0.1851 -0.1358
 4402TIP3    H134621  -0.057   5.279   2.322 -0.1825 -0.7575  0.6121
 4402TIP3    H234622   0.011   5.150   2.365  2.0131 -0.2005 -0.9891
 4403TIP3   OH234623   6.092   3.385   1.858 -0.3652  0.3675  0.1629
 4403TIP3    H134624   6.092   3.406   1.951 -1.1141  1.6176 -0.1021
 4403TIP3    H234625   6.184   3.389   1.832 -0.1544 -0.0215  0.8540
 4404TIP3   OH234626   5.643   2.507  12.201  0.0051 -0.0410  0.1096
 4404TIP3    H134627   5.554   2.477  12.217  0.4592 -1.2821  0.4093
 4404TIP3    H234628   5.637   2.602  12.200 -0.9794 -0.0335  2.1825
 4405TIP3   OH234629   4.455   4.776  15.548  0.2193 -0.6045 -0.6066
 4405TIP3    H134630   4.487   4.708  15.608 -0.3533 -0.0918  0.2971
 4405TIP3    H234631   4.529   4.836  15.537 -0.2961  0.4081  1.2227
 4406TIP3   OH234632   3.160   0.235   0.920  0.2442 -0.0465  0.4222
 4406TIP3    H134633   3.080   0.249   0.971  0.0916  2.8149 -0.4337
 4406TIP3    H234634   3.230   0.269   0.976  0.5047  0.0292  0.0534
 4407TIP3   OH234635   6.041   0.315   4.668 -0.0781 -0.2373  0.0753
 4407TIP3    H134636   5.998   0.246   4.617  1.5765 -0.1869 -1.4796
 4407TIP3    H234637   6.107   0.269   4.719 -0.6269 -0.0781  0.9480
 4408TIP3   OH234638   2.585   2.183  14.654  0.0614  0.0498  0.0697
 4408TIP3    H134639   2.674   2.171  14.620  0.1230 -0.0004  0.2510
 4408TIP3    H234640   2.556   2.096  14.679  0.3241  0.1954  0.9128
 4409TIP3   OH234641   4.738   3.431  13.435 -0.0469  0.0767 -0.0046
 4409TIP3    H134642   4.790   3.351  13.439 -0.6257 -0.2749  0.6408
 4409TIP3    H234643   4.653   3.404  13.401  0.2952  0.7152 -1.4379
 4410TIP3   OH234644   4.839   5.341   1.407 -0.1848 -0.0389 -0.0774
 4410TIP3    H134645   4.760   5.377   1.447 -0.4874 -0.6081 -0.1613
 4410TIP3    H234646   4.882   5.417   1.367 -0.5253  0.3233  0.2358
 4411TIP3   OH234647   4.014   2.193   3.643  0.4407  0.2410  0.1575
 4411TIP3    H134648   3.988   2.122   3.702 -0.9375 -0.0320 -0.7167
 4411TIP3    H234649   3.969   2.270   3.676 -0.9533 -0.0634 -0.8882
 4412TIP3   OH234650   4.077   5.847  11.482  0.6573  0.3921  0.7831
 4412TIP3    H134651   4.071   5.754  11.460 -3.4357  0.7020 -0.3095
 4412TIP3    H234652   4.107   5.889  11.401  1.1364  0.1573  0.8364
 4413TIP3   OH234653   5.085   1.763  17.016  0.8195  0.6865  0.1819
 4413TIP3    H134654   5.146   1.771  17.089  0.9663  1.1827  0.0116
 4413TIP3    H234655   4.998   1.757  17.056  1.0887 -1.8192  0.5061
 4414TIP3   OH234656   1.366   1.649   1.441  0.0971  0.0879  0.1404
 4414TIP3    H134657   1.450   1.691   1.425 -0.7796  1.4579 -1.1866
 4414TIP3    H234658   1.331   1.695   1.518 -0.3619  1.0875 -0.6314
 4415TIP3   OH234659   1.816   3.115   2.093 -0.2548  0.0108  0.0509
 4415TIP3    H134660   1.906   3.108   2.062 -0.3730 -1.6198 -0.0506
 4415TIP3    H234661   1.771   3.167   2.026 -0.0285 -1.6923 -1.4969
 4416TIP3   OH234662   2.567   3.658  11.121  0.2681  0.6256  0.2112
 4416TIP3    H134663   2.607   3.573  11.106 -0.5832  0.1175  0.7357
 4416TIP3    H234664   2.617   3.695  11.194  1.1009  0.9004 -0.4797
 4417TIP3   OH234665   6.172   4.426  16.038 -0.1283  0.2136  0.4572
 4417TIP3    H134666   6.082   4.393  16.033 -0.2491  0.5082  0.6084
 4417TIP3    H234667   6.190   4.462  15.951  0.8044 -2.2300 -0.4231
 4418TIP3   OH234668   1.717   3.860   0.578 -0.1082  0.1892 -0.0883
 4418TIP3    H134669   1.789   3.808   0.613 -0.9111 -0.9613 -0.0855
 4418TIP3    H234670   1.753   3.948   0.569  1.3835 -0.4148 -0.3735
 4419TIP3   OH234671   2.234   2.272  17.131  0.0745  0.3888  0.3015
 4419TIP3    H134672   2.141   2.257  17.117  0.5776 -4.7262  0.7542
 4419TIP3    H234673   2.275   2.251  17.048  0.9597  2.9434 -0.0060
 4420TIP3   OH234674   4.928   0.440   3.387  0.3034 -0.5951  0.1987
 4420TIP3    H134675   4.955   0.457   3.297  0.1431 -0.6186  0.1473
 4420TIP3    H234676   4.877   0.516   3.412 -0.1879 -0.8773  0.0583
 4421TIP3   OH234677   5.566   6.128  11.613 -0.7530 -0.0286  0.7722
 4421TIP3    H134678   5.489   6.172  11.575 -0.0776  0.2549 -0.3221
 4421TIP3    H234679   5.641   6.172  11.573 -0.0353 -1.1751  0.8078
 4422TIP3   OH234680   6.707   4.343   2.556 -0.0005 -0.1837 -0.3702
 4422TIP3    H134681   6.618   4.326   2.525 -0.5780 -2.4357  2.1255
 4422TIP3    H234682   6.763   4.323   2.481 -1.5150 -0.6049 -1.4284
 4423TIP3   OH234683   5.094   2.186  13.209 -0.3434  0.1247 -0.3427
 4423TIP3    H134684   5.047   2.269  13.200  1.1199  0.9331 -0.8499
 4423TIP3    H234685   5.041   2.135  13.270 -1.0209  1.6230  0.3831
 4424TIP3   OH234686   1.792   3.783   6.238  0.1468 -0.2727 -0.1207
 4424TIP3    H134687   1.818   3.745   6.322 -0.5062  0.3767  0.3909
 4424TIP3    H234688   1.698   3.799   6.247  0.0741 -0.1877 -0.9776
 4425TIP3   OH234689   5.670   1.244  10.730 -0.3400 -0.2298  0.0350
 4425TIP3    H134690   5.735   1.313  10.740 -0.4982 -0.3692  2.6873
 4425TIP3    H234691   5.586   1.286  10.748 -0.9406 -0.2726 -2.3845
 4426TIP3   OH234692   0.589   2.760  12.428  0.1337  0.5358  0.0144
 4426TIP3    H134693   0.533   2.695  12.387  0.0302  0.1477  0.7515
 4426TIP3    H234694   0.672   2.755  12.379  0.9646 -1.8270  1.4855
 4427TIP3   OH234695   2.052   0.737   3.839  0.3034  0.0359  0.4544
 4427TIP3    H134696   2.103   0.659   3.817  2.4165  1.1803  1.0328
 4427TIP3    H234697   2.117   0.807   3.845 -1.6395  2.0414 -0.8689
 4428TIP3   OH234698   2.464   1.651  12.455 -0.4864 -0.0996  0.0220
 4428TIP3    H134699   2.370   1.662  12.472 -0.3942  0.9560 -0.0739
 4428TIP3    H234700   2.504   1.731  12.491  0.3997 -0.6201  0.2250
 4429TIP3   OH234701   5.453   0.224   3.844 -0.3311 -0.2419 -0.5260
 4429TIP3    H134702   5.371   0.245   3.798 -0.6528 -1.2659 -0.4500
 4429TIP3    H234703   5.446   0.269   3.928 -1.9293 -2.1935  0.4866
 4430TIP3   OH234704   5.217   2.690  14.571  0.0787  0.2947  0.7709
 4430TIP3    H134705   5.176   2.774  14.593 -1.8746 -0.6751  1.0588
 4430TIP3    H234706   5.195   2.633  14.645 -2.6336 -1.7310 -1.4025
 4431TIP3   OH234707   1.668   5.557   2.637 -0.2032 -0.3511  0.2174
 4431TIP3    H134708   1.708   5.512   2.563  0.4906 -0.1446  0.4651
 4431TIP3    H234709   1.579   5.521   2.641 -0.0813 -0.7357 -0.3956
 4432TIP3   OH234710   5.894   3.149  14.520  0.3955  0.3509  0.1890
 4432TIP3    H134711   5.825   3.106  14.469  1.7093 -1.2841 -0.3075
 4432TIP3    H234712   5.849   3.219  14.567 -0.9521  1.6631 -2.8279
 4433TIP3   OH234713   3.633   2.950  15.368  0.4548  0.0929 -0.5109
 4433TIP3    H134714   3.584   2.885  15.318 -0.3756 -1.3551  2.0196
 4433TIP3    H234715   3.584   3.031  15.358 -1.3266 -0.8465  0.2588
 4434TIP3   OH234716   1.024   4.780  15.597 -0.0352  0.2067  0.3900
 4434TIP3    H134717   0.971   4.793  15.676 -0.3049 -0.2660  0.2886
 4434TIP3    H234718   1.086   4.853  15.598 -1.3686  1.4041 -0.0611
 4435TIP3   OH234719   6.311   6.346  12.621  0.0775  0.3816 -0.1814
 4435TIP3    H134720   6.384   6.297  12.582  0.9385  0.2079  1.5515
 4435TIP3    H234721   6.297   6.419  12.561  2.5087  1.1191  0.0405
 4436TIP3   OH234722   2.404   6.202  13.838 -0.7216 -0.2415 -0.7764
 4436TIP3    H134723   2.367   6.274  13.889 -1.0499 -0.1950 -1.0753
 4436TIP3    H234724   2.392   6.125  13.895 -0.6937 -0.1208 -0.6061
 4437TIP3   OH234725   2.611   4.311   0.327 -0.4878 -0.3478 -0.1927
 4437TIP3    H134726   2.620   4.405   0.340  1.6649 -0.8205  3.1481
 4437TIP3    H234727   2.563   4.280   0.405 -0.2750 -2.1029 -0.7054
 4438TIP3   OH234728   4.848   4.075   4.224 -0.0483  0.2596  0.3036
 4438TIP3    H134729   4.919   4.026   4.184 -0.7528  1.0614 -2.1010
 4438TIP3    H234730   4.784   4.087   4.154 -0.9801  2.5414  1.4111
 4439TIP3   OH234731   1.895   3.986   0.375 -0.1253 -0.6674  0.2026
 4439TIP3    H134732   1.862   4.075   0.389  1.5365  0.0830 -0.4188
 4439TIP3    H234733   1.816   3.932   0.366 -1.1639  0.6975  0.7868
 4440TIP3   OH234734   0.276   4.281  12.909  0.5696  0.5093 -0.3798
 4440TIP3    H134735   0.214   4.222  12.866 -1.8525  1.6603  1.2293
 4440TIP3    H234736   0.332   4.225  12.962 -0.7637 -0.4713  0.0348
 4441TIP3   OH234737   2.699   5.140   4.317 -0.2342  0.1354  0.4984
 4441TIP3    H134738   2.766   5.200   4.282  0.5277  0.0938  1.8138
 4441TIP3    H234739   2.691   5.165   4.409  0.0875 -1.7531  1.0821
 4442TIP3   OH234740   3.301   6.669   0.627 -0.3540  0.2000 -0.2867
 4442TIP3    H134741   3.280   6.756   0.660 -2.0693 -1.0569  2.2144
 4442TIP3    H234742   3.381   6.644   0.673 -1.4038 -0.6008  1.1498
 4443TIP3   OH234743   6.377   5.621  13.490 -0.6738  0.0370  0.2011
 4443TIP3    H134744   6.306   5.560  13.512  0.0099 -0.6923  0.4598
 4443TIP3    H234745   6.400   5.600  13.399 -1.0384  0.5304 -0.0073
 4444TIP3   OH234746   2.237   2.711  13.947 -0.6289  0.0571  0.2011
 4444TIP3    H134747   2.258   2.804  13.945  2.9109 -0.6291 -0.9508
 4444TIP3    H234748   2.146   2.708  13.979 -0.9100  3.8398  0.2358
 4445TIP3   OH234749   6.724   0.647  16.383  0.4617 -0.0200  0.2114
 4445TIP3    H134750   6.715   0.670  16.290 -1.4237  0.9253  0.5730
 4445TIP3    H234751   6.817   0.655  16.401  0.5196  3.0698 -0.8568
 4446TIP3   OH234752   5.187   0.298  15.722 -0.1092 -0.2304 -0.9370
 4446TIP3    H134753   5.149   0.357  15.787 -0.7832 -0.8356 -0.7707
 4446TIP3    H234754   5.130   0.221  15.723  0.8500 -0.9562 -1.0408
 4447TIP3   OH234755   2.860   6.336  14.595 -0.1827 -0.3397 -0.3667
 4447TIP3    H134756   2.950   6.322  14.622 -0.4259 -1.9022 -0.3108
 4447TIP3    H234757   2.818   6.251  14.605 -1.5924  0.2918 -0.6750
 4448TIP3   OH234758   2.910   4.403  15.067  0.6482  0.2230  0.6349
 4448TIP3    H134759   2.977   4.438  15.125  0.6639  0.8261  0.2618
 4448TIP3    H234760   2.955   4.337  15.014  1.1203  1.1084 -0.0894
 4449TIP3   OH234761   3.806   0.762   4.335  0.5465  0.1533 -0.2016
 4449TIP3    H134762   3.737   0.702   4.363 -0.6488  0.5429 -2.0850
 4449TIP3    H234763   3.865   0.709   4.282  0.6194  0.1990 -0.1659
 4450TIP3   OH234764   1.669   5.229   1.670 -0.1017  0.8662 -0.3333
 4450TIP3    H134765   1.647   5.170   1.599  0.5730  1.8649 -1.4027
 4450TIP3    H234766   1.619   5.196   1.745  0.8720 -1.5565 -0.6393
 4451TIP3   OH234767   6.400   5.009  11.999 -0.1956  0.1320  0.3727
 4451TIP3    H134768   6.412   4.918  11.971  0.1862  0.2659  0.0895
 4451TIP3    H234769   6.341   5.047  11.934  0.1946  0.2726  0.0968
 4452TIP3   OH234770   4.704   2.445  15.636 -0.2721  0.0630 -0.4264
 4452TIP3    H134771   4.697   2.356  15.671 -3.2379 -0.8686 -2.9140
 4452TIP3    H234772   4.626   2.490  15.670  1.5367  2.0586  1.3583
 4453TIP3   OH234773   5.897   0.114  16.396  0.3426 -0.4104 -0.1487
 4453TIP3    H134774   5.911   0.097  16.303 -1.4737 -3.0420 -0.0455
 4453TIP3    H234775   5.985   0.121  16.433  1.1098  0.8764 -2.0259
 4454TIP3   OH234776   4.038   6.041   2.606 -0.4851 -0.4263 -0.4071
 4454TIP3    H134777   3.982   6.082   2.540  1.7666  0.0767 -2.1408
 4454TIP3    H234778   4.124   6.035   2.564  1.0344 -0.2518  2.4303
 4455TIP3   OH234779   3.072   2.960  12.161 -0.0775 -0.3183 -0.7035
 4455TIP3    H134780   3.015   3.038  12.166 -0.6256 -0.7457 -0.0748
 4455TIP3    H234781   3.049   2.919  12.078 -0.9320 -0.6534 -0.3149
 4456TIP3   OH234782   4.580   6.007  15.906 -0.4819  0.1253 -0.1786
 4456TIP3    H134783   4.571   5.984  15.998 -2.8089 -0.2315 -0.4260
 4456TIP3    H234784   4.522   6.082  15.895  0.5261  0.7868 -1.1656
 4457TIP3   OH234785   0.315   6.347   2.819  0.6834  0.5815 -1.0579
 4457TIP3    H134786   0.302   6.397   2.739 -0.4021  1.0475 -0.6191
 4457TIP3    H234787   0.259   6.391   2.884 -0.9572 -1.6535 -0.8440
 4458TIP3   OH234788   4.688   3.043   4.938 -0.4652 -0.6130  0.4752
 4458TIP3    H134789   4.643   3.052   5.022 -4.8078  1.3100 -1.7544
 4458TIP3    H234790   4.707   3.132   4.910 -1.9086 -0.9474 -1.8391
 4459TIP3   OH234791   3.553   5.331  17.151  0.0194 -0.4780 -0.2513
 4459TIP3    H134792   3.468   5.372  17.168  0.1262 -0.3174 -0.0928
 4459TIP3    H234793   3.532   5.244  17.118 -0.1952 -1.4994  2.3540
 4460TIP3   OH234794   3.861   1.556  11.445 -0.1602  0.5554  1.1738
 4460TIP3    H134795   3.891   1.547  11.354 -2.1641  0.6652  0.4325
 4460TIP3    H234796   3.921   1.501  11.496 -0.3359 -1.3702 -0.5518
 4461TIP3   OH234797   3.436   1.810  15.852 -0.1604  0.3401 -0.6104
 4461TIP3    H134798   3.490   1.837  15.926  0.0831 -0.0961 -0.6303
 4461TIP3    H234799   3.481   1.735  15.815 -2.0585 -1.7211  0.9317
 4462TIP3   OH234800   5.352   0.386   0.977 -0.4431 -0.1607 -0.7440
 4462TIP3    H134801   5.274   0.362   1.026 -0.2722 -1.0147 -0.8658
 4462TIP3    H234802   5.320   0.436   0.902 -0.9237 -0.9598 -1.0800
 4463TIP3   OH234803   6.762   2.928  15.527 -0.1715  0.3048 -0.0428
 4463TIP3    H134804   6.802   2.956  15.610  0.8438 -0.5029 -0.2384
 4463TIP3    H234805   6.698   2.862  15.553 -0.7752  0.9717  0.1972
 4464TIP3   OH234806   2.390   2.315  12.632  0.7176  0.5728  0.2983
 4464TIP3    H134807   2.338   2.325  12.553 -1.6674 -0.4998  1.6202
 4464TIP3    H234808   2.388   2.401  12.673 -1.3214  0.2564  1.0040
 4465TIP3   OH234809   0.680   6.690   3.844 -0.0605  0.1372  0.1999
 4465TIP3    H134810   0.765   6.684   3.887 -0.1067 -1.8492  0.1003
 4465TIP3    H234811   0.617   6.667   3.912 -0.1840 -2.2961 -0.6256
 4466TIP3   OH234812   4.396   4.849   1.296 -0.0663 -0.2921 -0.7959
 4466TIP3    H134813   4.424   4.912   1.230  1.9757 -1.0455 -0.7210
 4466TIP3    H234814   4.477   4.817   1.335 -1.1495 -1.2688  0.7709
 4467TIP3   OH234815   1.802   5.012   2.799  0.1367  0.0208  0.4072
 4467TIP3    H134816   1.793   5.097   2.755 -0.1081  0.1075  0.6263
 4467TIP3    H234817   1.751   5.020   2.879  0.2830 -0.2647  0.5318
 4468TIP3   OH234818   1.966   0.615   4.109 -0.0968 -0.3603 -0.4803
 4468TIP3    H134819   1.990   0.673   4.037  1.8489 -0.3269  0.1440
 4468TIP3    H234820   1.943   0.532   4.067  0.3593 -0.1402 -1.1753
 4469TIP3   OH234821   6.533   6.224   3.101  0.6023 -0.4161  0.4069
 4469TIP3    H134822   6.517   6.137   3.064  2.3698  0.3591 -2.4999
 4469TIP3    H234823   6.603   6.211   3.165 -0.5166 -1.3628  1.4925
 4470TIP3   OH234824   3.871   6.656  16.562  0.0396 -0.4877 -0.1234
 4470TIP3    H134825   3.921   6.581  16.594  0.1979 -0.3195  0.0233
 4470TIP3    H234826   3.864   6.714  16.638  0.2037 -0.2009 -0.3272
 4471TIP3   OH234827   6.048   1.055   3.362 -0.0086  0.4148  0.4998
 4471TIP3    H134828   6.050   1.147   3.389 -2.9778  0.3823  1.1137
 4471TIP3    H234829   6.060   1.058   3.267 -0.3290  1.4575  0.4816
 4472TIP3   OH234830   6.644   4.622  11.552 -0.8538  0.0818 -0.1698
 4472TIP3    H134831   6.580   4.585  11.491  1.5039  0.4238 -3.0530
 4472TIP3    H234832   6.687   4.546  11.591 -1.5185 -0.1434  0.1411
 4473TIP3   OH234833   2.413   0.538   6.236  0.1638  0.8550 -0.3285
 4473TIP3    H134834   2.346   0.604   6.217 -0.7874  0.5217  1.6960
 4473TIP3    H234835   2.372   0.455   6.212  0.2613  0.7378 -0.0837
 4474TIP3   OH234836   4.131   4.321   1.700 -0.0857 -0.0252  0.2387
 4474TIP3    H134837   4.189   4.246   1.710 -1.0389 -0.8810 -0.4990
 4474TIP3    H234838   4.156   4.380   1.772  2.2309  0.0121 -0.5182
 4475TIP3   OH234839   1.380   1.916   0.309 -0.7558 -0.3371  0.2476
 4475TIP3    H134840   1.348   1.969   0.236  1.1131  1.0291  0.3465
 4475TIP3    H234841   1.475   1.928   0.307 -0.5721 -1.1250  2.2783
 4476TIP3   OH234842   4.569   6.351   3.017  0.6234  0.5366 -0.0471
 4476TIP3    H134843   4.641   6.414   3.023  1.7492 -0.8119  1.5453
 4476TIP3    H234844   4.610   6.271   2.983 -0.3960  0.1238 -0.3436
 4477TIP3   OH234845   2.707   2.075   6.377  0.0042  0.6668  0.3615
 4477TIP3    H134846   2.665   2.147   6.330  1.6475  1.9476  0.7851
 4477TIP3    H234847   2.663   2.073   6.462 -2.8024 -1.4973 -0.9432
 4478TIP3   OH234848   5.844   0.916  14.004 -0.3493 -0.4682 -0.1821
 4478TIP3    H134849   5.771   0.856  14.024  1.1436 -3.4655 -2.7016
 4478TIP3    H234850   5.870   0.892  13.915  0.1414  4.4330 -1.6443
 4479TIP3   OH234851   1.739   2.697  11.711  0.3101 -0.4408  0.5243
 4479TIP3    H134852   1.789   2.707  11.792 -0.1194 -0.9264  0.8565
 4479TIP3    H234853   1.680   2.773  11.710  0.9132  0.0306  0.2248
 4480TIP3   OH234854   3.680   0.866  13.499 -0.1564 -0.1392  0.0020
 4480TIP3    H134855   3.731   0.788  13.477 -0.2342 -0.2526  0.2246
 4480TIP3    H234856   3.745   0.936  13.505 -0.0441 -0.2537  0.1361
 4481TIP3   OH234857   0.941   5.043   5.396 -0.3346 -0.4361 -0.3214
 4481TIP3    H134858   1.032   5.033   5.426  0.1177 -0.6629 -1.6841
 4481TIP3    H234859   0.942   5.011   5.306 -1.3573  1.3008 -0.9962
 4482TIP3   OH234860   4.494   1.235  11.605 -0.8321  0.3996  0.9734
 4482TIP3    H134861   4.450   1.160  11.566  0.9028  0.8514 -2.2342
 4482TIP3    H234862   4.528   1.203  11.689 -0.0708 -2.4614 -0.3079
 4483TIP3   OH234863   3.068   3.536   0.233 -0.3896  0.3826 -0.8000
 4483TIP3    H134864   3.153   3.502   0.203 -0.7616 -1.4319  0.0138
 4483TIP3    H234865   3.080   3.549   0.327 -1.1960 -0.6577 -0.5235
 4484TIP3   OH234866   3.264   2.368   3.391  0.5337  0.3012  0.1082
 4484TIP3    H134867   3.312   2.365   3.474  0.4539  0.2614  0.1531
 4484TIP3    H234868   3.308   2.436   3.340  0.6764  0.2200  0.1246
 4485TIP3   OH234869   1.289   4.495  13.995 -0.2479  0.4164  0.6719
 4485TIP3    H134870   1.291   4.550  13.917  0.5696 -0.4389  0.0728
 4485TIP3    H234871   1.245   4.549  14.061 -1.9888  0.7322 -0.6759
 4486TIP3   OH234872   6.079   4.600  10.453 -0.1290 -0.1342  0.1725
 4486TIP3    H134873   6.045   4.638  10.372  1.2727 -2.1651 -1.4881
 4486TIP3    H234874   6.170   4.628  10.457  0.0404 -0.7143  0.5976
 4487TIP3   OH234875   2.948   6.545   3.485 -0.7605 -0.4202  0.2314
 4487TIP3    H134876   2.974   6.617   3.428 -1.9316 -1.7859 -2.1805
 4487TIP3    H234877   2.907   6.587   3.561 -0.6317  1.4423 -0.6963
 4488TIP3   OH234878   3.018   0.556  12.151  0.1177 -0.7504 -0.0134
 4488TIP3    H134879   3.005   0.646  12.122 -0.5064 -0.6593  0.5102
 4488TIP3    H234880   2.933   0.531  12.189  0.8152 -0.9129  1.5434
 4489TIP3   OH234881   4.519   0.822  13.796 -0.1597 -0.6407  0.5359
 4489TIP3    H134882   4.449   0.881  13.825  0.9476  0.5948  0.7974
 4489TIP3    H234883   4.474   0.739  13.777 -1.3670 -0.6063  2.8821
 4490TIP3   OH234884   2.023   3.051  16.476  0.3254 -0.1880  0.2470
 4490TIP3    H134885   1.937   3.013  16.462 -0.0052  0.8288 -0.6172
 4490TIP3    H234886   2.016   3.096  16.560 -0.7569  1.8149 -0.8214
 4491TIP3   OH234887   3.696   1.597   4.371 -0.2492  0.3386  0.1120
 4491TIP3    H134888   3.698   1.669   4.308  1.0037  0.0741 -0.2012
 4491TIP3    H234889   3.739   1.632   4.449  0.0566  0.0554  0.0766
 4492TIP3   OH234890   0.643   2.176  15.186  0.1016  0.0646 -0.3692
 4492TIP3    H134891   0.568   2.118  15.196  0.3398  0.0370  1.7189
 4492TIP3    H234892   0.616   2.259  15.224  1.1038  0.0577  0.4056
 4493TIP3   OH234893   2.627   4.560  16.628 -0.0203  0.4063  0.4088
 4493TIP3    H134894   2.716   4.529  16.639 -0.3217 -0.3946  0.6478
 4493TIP3    H234895   2.589   4.503  16.561 -0.0542  1.3861 -0.4486
 4494TIP3   OH234896   5.869   6.086  14.440 -0.2293  0.2673  0.0140
 4494TIP3    H134897   5.877   6.168  14.490  1.5780 -0.2535  0.6552
 4494TIP3    H234898   5.884   6.017  14.505 -0.7226 -0.5451 -0.7156
 4495TIP3   OH234899   4.958   0.118  15.661 -0.3775  0.2611 -0.9247
 4495TIP3    H134900   4.989   0.043  15.610 -0.0024  0.8543 -1.5982
 4495TIP3    H234901   4.921   0.080  15.741 -1.0170 -0.6945 -1.6593
 4496TIP3   OH234902   1.132   6.430  13.926  0.5720  0.5413  0.0838
 4496TIP3    H134903   1.051   6.431  13.976  1.0928 -0.0604  0.9648
 4496TIP3    H234904   1.195   6.477  13.980  1.7971 -2.1541  1.1924
 4497TIP3   OH234905   3.749   3.114  12.381 -0.2025 -0.2853 -0.0943
 4497TIP3    H134906   3.752   3.042  12.444 -1.1514 -0.5494 -0.3316
 4497TIP3    H234907   3.814   3.176  12.413 -0.1027 -0.7763  0.6937
 4498TIP3   OH234908   3.118   1.988  10.938  0.1734 -0.1314  0.9837
 4498TIP3    H134909   3.166   1.907  10.924  0.4752  0.1130  0.5867
 4498TIP3    H234910   3.045   1.984  10.876  0.3169  0.0017  0.8057
 4499TIP3   OH234911   4.667   1.820   4.340  0.6690 -0.3875  0.3898
 4499TIP3    H134912   4.608   1.867   4.398 -0.8792 -0.3734 -1.1220
 4499TIP3    H234913   4.676   1.733   4.378  1.4853  0.2832  1.8110
 4500TIP3   OH234914   4.748   2.211   0.985  0.3108  0.0693 -0.5171
 4500TIP3    H134915   4.810   2.138   0.979 -1.7405 -1.7918 -0.3821
 4500TIP3    H234916   4.790   2.274   1.044  2.0649 -1.0718 -0.4824
 4501TIP3   OH234917   2.641   2.341   2.465  0.2910 -0.0166 -0.4243
 4501TIP3    H134918   2.706   2.308   2.403  0.1592 -1.1057 -0.0063
 4501TIP3    H234919   2.571   2.275   2.464 -0.8907  1.2011 -0.9685
 4502TIP3   OH234920   0.175   5.874  11.798 -0.4088 -0.0975 -0.6720
 4502TIP3    H134921   0.140   5.803  11.745 -0.3255 -1.7192  1.3154
 4502TIP3    H234922   0.270   5.857  11.800 -0.4841 -0.4844  0.5019
 4503TIP3   OH234923   6.779   1.708  15.527  0.3320 -0.3427 -0.2672
 4503TIP3    H134924   6.798   1.614  15.526  2.7301  0.0579 -2.2717
 4503TIP3    H234925   6.836   1.743  15.595  0.6230 -0.1500 -0.6078
 4504TIP3   OH234926   4.834   1.609   1.358 -0.0271  0.1576 -0.2120
 4504TIP3    H134927   4.743   1.638   1.357  0.3596  1.5687  1.4287
 4504TIP3    H234928   4.883   1.680   1.317  0.4419 -0.1642 -0.2189
 4505TIP3   OH234929   0.313   0.733   2.030  0.3685  0.1343  0.4493
 4505TIP3    H134930   0.360   0.795   1.975  0.5962 -0.3934  0.0453
 4505TIP3    H234931   0.362   0.732   2.112  1.2666 -0.6623 -0.0812
 4506TIP3   OH234932   0.769   1.238   4.020 -0.6032 -0.5020  0.8467
 4506TIP3    H134933   0.833   1.223   3.950  0.7711  1.5952  1.5773
 4506TIP3    H234934   0.727   1.153   4.031  1.8964 -1.9399  0.1667
 4507TIP3   OH234935   1.983   0.559  12.209  0.0049  0.2297 -0.9642
 4507TIP3    H134936   1.901   0.561  12.161 -1.4150  1.1792  1.3362
 4507TIP3    H234937   2.039   0.621  12.163 -0.7001 -0.0716 -2.2816
 4508TIP3   OH234938   3.059   4.160   3.560 -0.1655 -0.1261  0.0424
 4508TIP3    H134939   2.966   4.180   3.562 -0.1830 -0.2069  0.0156
 4508TIP3    H234940   3.079   4.126   3.647 -0.0150  0.5552  0.2836
 4509TIP3   OH234941   0.514   3.476  13.995 -0.1562  0.2261 -0.2744
 4509TIP3    H134942   0.582   3.517  13.940  0.9456  3.3608  3.0313
 4509TIP3    H234943   0.435   3.480  13.941  1.2347  1.1341 -2.4012
 4510TIP3   OH234944   0.569   6.447   0.487  0.1084  0.2785  0.3242
 4510TIP3    H134945   0.580   6.404   0.572 -2.3652 -0.2240  0.4885
 4510TIP3    H234946   0.536   6.377   0.430 -0.0166  1.0320 -0.5483
 4511TIP3   OH234947   3.485   4.061  14.478 -0.2113  0.2494 -0.4697
 4511TIP3    H134948   3.580   4.056  14.484 -0.2527  0.9165  1.3551
 4511TIP3    H234949   3.453   4.015  14.556 -1.2560  2.5706  0.5931
 4512TIP3   OH234950   1.508   2.850   4.891 -0.3975  0.5935  0.4198
 4512TIP3    H134951   1.592   2.891   4.910  0.0276  0.3480 -0.8289
 4512TIP3    H234952   1.460   2.852   4.974  1.6138 -1.0767  1.7141
 4513TIP3   OH234953   3.719   3.499  14.013 -0.0412 -0.5174 -0.1753
 4513TIP3    H134954   3.797   3.445  14.004  0.0620 -0.4101  0.0579
 4513TIP3    H234955   3.752   3.584  14.044 -0.0567  0.1194 -1.8103
 4514TIP3   OH234956   2.740   3.661  13.976 -0.4882 -0.0036  0.4285
 4514TIP3    H134957   2.763   3.723  13.908  0.6071 -0.6445  0.1998
 4514TIP3    H234958   2.765   3.576  13.941 -2.2988 -0.6415  0.5895
 4515TIP3   OH234959   0.587   6.048   2.870 -0.3324  0.6078  0.5202
 4515TIP3    H134960   0.561   6.131   2.831  0.9180  0.9797  0.4321
 4515TIP3    H234961   0.504   6.005   2.892 -1.0446  2.5682  2.0556
 4516TIP3   OH234962   3.420   1.478   5.337  0.0294 -0.0626 -0.3539
 4516TIP3    H134963   3.336   1.515   5.366 -0.1795 -2.0820  1.9748
 4516TIP3    H234964   3.423   1.392   5.378  1.3110 -1.9138 -3.9574
 4517TIP3   OH234965   4.123   5.293   4.138  0.0751 -0.2425  0.0094
 4517TIP3    H134966   4.110   5.332   4.052 -0.9494  0.7756  0.6032
 4517TIP3    H234967   4.060   5.221   4.141  0.1736 -0.3359 -0.1120
 4518TIP3   OH234968   4.129   3.369   2.894  0.1029 -0.2484 -0.2510
 4518TIP3    H134969   4.210   3.349   2.847  0.5107 -0.3620  0.4934
 4518TIP3    H234970   4.122   3.302   2.961  0.4584  0.9139  1.0003
 4519TIP3   OH234971   0.197   2.314  11.064 -0.1040  1.4350  0.4406
 4519TIP3    H134972   0.201   2.218  11.063 -0.0622  1.4015  1.7651
 4519TIP3    H234973   0.234   2.341  10.980  0.7021  0.3070  0.4128
 4520TIP3   OH234974   0.117   4.253   2.385 -0.6370  0.3259  0.2622
 4520TIP3    H134975   0.157   4.330   2.345 -0.2259 -0.5279 -1.0394
 4520TIP3    H234976   0.190   4.208   2.429 -0.9924  0.9870  1.5951
 4521TIP3   OH234977   2.907   1.433  16.732 -0.2484 -0.0299  0.2728
 4521TIP3    H134978   2.921   1.443  16.826 -0.4530  2.8088  0.0924
 4521TIP3    H234979   2.812   1.431  16.721 -0.2394  0.3159  0.0994
 4522TIP3   OH234980   1.016   3.039   1.735  0.1188 -0.0246  0.2942
 4522TIP3    H134981   0.953   3.068   1.801 -0.2792  1.7088 -0.7821
 4522TIP3    H234982   0.961   3.006   1.664  0.4478  0.5229 -0.2192
 4523TIP3   OH234983   6.610   2.713  11.396 -0.0779 -0.0104  0.2507
 4523TIP3    H134984   6.674   2.688  11.463 -0.2685  0.5651  0.6606
 4523TIP3    H234985   6.662   2.742  11.322  0.1793 -2.8113 -0.7549
 4524TIP3   OH234986   1.933   4.943   3.838 -0.5004 -0.3365  0.5633
 4524TIP3    H134987   1.946   4.867   3.894 -1.8314 -0.0069  1.3710
 4524TIP3    H234988   2.018   4.956   3.794  0.2272 -1.2964  1.6301
 4525TIP3   OH234989   4.964   3.329   3.895 -0.0271 -0.1967  0.1146
 4525TIP3    H134990   5.018   3.257   3.862  2.0026 -0.1543  2.9978
 4525TIP3    H234991   4.994   3.406   3.848  1.6669 -0.3848  0.8178
 4526TIP3   OH234992   4.421   0.715   0.317 -0.0957 -0.3533 -0.2461
 4526TIP3    H134993   4.431   0.733   0.410 -0.0763 -2.7818  0.2926
 4526TIP3    H234994   4.505   0.740   0.278  0.0412  0.2833  0.4398
 4527TIP3   OH234995   4.574   4.483  14.803 -0.2853  0.0988  0.1142
 4527TIP3    H134996   4.591   4.552  14.868 -1.5714  1.1650 -0.6179
 4527TIP3    H234997   4.479   4.478  14.798 -0.3096 -2.9833  1.3452
 4528TIP3   OH234998   0.245   2.822  11.894 -0.3378 -0.6618  0.2531
 4528TIP3    H134999   0.302   2.806  11.819 -0.7339  0.7278 -0.3709
 4528TIP3    H235000   0.219   2.734  11.924  0.5930 -1.2539 -0.6191
 4529TIP3   OH235001   1.568   4.658  15.648 -0.4592  0.1685 -0.0081
 4529TIP3    H135002   1.500   4.704  15.599 -0.4956 -3.5072 -4.0556
 4529TIP3    H235003   1.649   4.704  15.628 -1.0994  1.8925  1.1297
 4530TIP3   OH235004   2.997   4.995   1.403  0.0307  0.7433  0.1450
 4530TIP3    H135005   2.929   4.961   1.462 -0.4967  0.6087 -0.5279
 4530TIP3    H235006   3.079   4.974   1.447 -0.3483  0.4477  0.7325
 4531TIP3   OH235007   5.568   1.765  13.446  0.3186  0.0552 -0.2726
 4531TIP3    H135008   5.487   1.813  13.426  0.3570 -0.5847 -2.1930
 4531TIP3    H235009   5.636   1.815  13.401  1.0911  0.7851  1.6233
 4532TIP3   OH235010   1.264   5.155   1.272  0.4210  0.1012 -0.3964
 4532TIP3    H135011   1.187   5.103   1.295  1.1601 -1.5374 -1.4558
 4532TIP3    H235012   1.235   5.208   1.198 -0.2396  0.9806  0.4676
 4533TIP3   OH235013   3.851   1.809   1.487  0.3757  0.4222 -0.1213
 4533TIP3    H135014   3.851   1.901   1.459  2.2274  1.1856  1.9986
 4533TIP3    H235015   3.770   1.800   1.537  1.6677  2.0158  2.4987
 4534TIP3   OH235016   6.165   6.785   0.724 -0.4089 -0.4698 -0.1902
 4534TIP3    H135017   6.139   6.693   0.713 -1.1147 -0.3652  0.5232
 4534TIP3    H235018   6.230   6.783   0.795 -2.4905 -0.1407  1.8600
 4535TIP3   OH235019   6.232   1.150  15.519 -0.4866  0.0893  0.0996
 4535TIP3    H135020   6.272   1.235  15.500  1.2314 -1.1870 -2.5325
 4535TIP3    H235021   6.306   1.091  15.533 -1.4787 -1.6969 -1.7023
 4536TIP3   OH235022   0.389   5.317  11.546  0.3332 -0.2903 -0.4814
 4536TIP3    H135023   0.445   5.289  11.619 -1.1270 -1.5364  0.2113
 4536TIP3    H235024   0.300   5.313  11.580 -0.1960  3.3436 -1.0017
 4537TIP3   OH235025   5.975   2.621   4.620 -0.0019 -0.2850  0.0351
 4537TIP3    H135026   5.908   2.585   4.561 -0.6169 -1.3611  1.3293
 4537TIP3    H235027   6.052   2.632   4.565 -0.2582 -2.2027 -0.7836
 4538TIP3   OH235028   0.670   4.709   1.192 -0.5130 -0.1863  0.2843
 4538TIP3    H135029   0.711   4.625   1.213  1.0021  0.4573  0.0289
 4538TIP3    H235030   0.643   4.744   1.277  0.9395  0.0759  0.6725
 4539TIP3   OH235031   5.711   1.175  15.085  0.4114 -0.3368 -0.1688
 4539TIP3    H135032   5.621   1.168  15.051  0.5515 -0.5246 -0.5067
 4539TIP3    H235033   5.717   1.108  15.152 -0.0809  0.4821  0.7138
 4540TIP3   OH235034   4.975   1.827   0.954 -0.1310  0.0236 -0.4430
 4540TIP3    H135035   4.984   1.906   0.901 -0.7495 -0.7969 -1.8233
 4540TIP3    H235036   4.907   1.776   0.910 -0.5573 -0.7748  1.0693
 4541TIP3   OH235037   2.024   6.567  13.946 -0.2423  0.3663 -0.4599
 4541TIP3    H135038   1.959   6.548  13.879  0.0582 -0.0842 -0.6313
 4541TIP3    H235039   2.073   6.642  13.911  0.0697 -0.0180 -0.8631
 4542TIP3   OH235040   6.783   4.431   3.171 -0.2942 -0.5227  0.0634
 4542TIP3    H135041   6.742   4.510   3.208 -0.3195  0.1243 -1.2928
 4542TIP3    H235042   6.763   4.362   3.234 -0.6787  0.4527  1.0458
 4543TIP3   OH235043   2.829   4.967  16.683 -0.3478 -0.3412 -0.1436
 4543TIP3    H135044   2.875   5.049  16.702 -3.4421  1.5894 -0.1561
 4543TIP3    H235045   2.854   4.946  16.593 -0.4292  1.3383 -0.5962
 4544TIP3   OH235046   1.193   1.219  15.424 -0.0563 -0.6701 -0.5080
 4544TIP3    H135047   1.162   1.287  15.483  3.9490  1.1460 -0.2367
 4544TIP3    H235048   1.209   1.143  15.480  0.0026 -0.2607  0.0274
 4545TIP3   OH235049   2.138   6.684   1.858 -0.6351  0.4587  0.2723
 4545TIP3    H135050   2.072   6.747   1.889 -1.5791 -0.1901 -0.3878
 4545TIP3    H235051   2.114   6.601   1.899 -1.7836 -0.3700 -1.9551
 4546TIP3   OH235052   4.869   5.752   5.877 -0.0829  0.0571  0.0414
 4546TIP3    H135053   4.826   5.813   5.937 -0.5690  1.9161 -2.0430
 4546TIP3    H235054   4.804   5.685   5.859 -0.2214 -0.0506  0.9011
 4547TIP3   OH235055   1.961   2.966   5.728  0.1464 -0.1224  0.0629
 4547TIP3    H135056   1.916   2.950   5.810  2.1385 -0.4250  1.1654
 4547TIP3    H235057   2.011   3.047   5.743 -0.0029  0.2199 -1.1135
 4548TIP3   OH235058   4.947   5.252  13.728  0.7732 -0.0107  0.3797
 4548TIP3    H135059   4.870   5.203  13.758  0.3611  0.6105  0.3611
 4548TIP3    H235060   4.967   5.312  13.800  0.4463  0.7239 -0.1304
 4549TIP3   OH235061   0.607   0.260  15.610  0.0064 -0.1441 -0.4841
 4549TIP3    H135062   0.573   0.346  15.634 -0.3692 -0.0648 -1.2644
 4549TIP3    H235063   0.671   0.278  15.541  2.9977 -0.1119  2.0795
 4550TIP3   OH235064   3.420   1.197  16.098 -0.0806 -0.2288 -0.2918
 4550TIP3    H135065   3.346   1.207  16.157 -0.2516  0.2542 -0.5785
 4550TIP3    H235066   3.497   1.215  16.152 -0.3436  2.7783 -0.7175
 4551TIP3   OH235067   2.065   4.350   2.613 -0.0200  0.0017 -0.1280
 4551TIP3    H135068   2.058   4.284   2.544  1.6498 -1.0547  0.6687
 4551TIP3    H235069   2.056   4.300   2.695 -1.5254  1.1687  0.4668
 4552TIP3   OH235070   5.142   1.028  14.019  0.1418  0.0294 -0.5236
 4552TIP3    H135071   5.176   0.992  14.101  0.9474  0.7656 -0.5260
 4552TIP3    H235072   5.048   1.035  14.034  0.1789 -0.5534  0.0536
 4553TIP3   OH235073   3.452   0.583   3.185  0.1585  0.0018 -0.2307
 4553TIP3    H135074   3.472   0.638   3.110 -1.3851 -1.3965 -1.7651
 4553TIP3    H235075   3.461   0.640   3.261 -0.9323  2.2495 -1.6913
 4554TIP3   OH235076   2.978   2.507   3.315  0.0753  0.3653 -0.5693
 4554TIP3    H135077   3.059   2.474   3.354  0.6401 -0.3276 -2.2546
 4554TIP3    H235078   2.919   2.522   3.390  1.0749 -0.9869  0.5219
 4555TIP3   OH235079   0.078   4.620  17.209  0.0217 -0.3938 -0.3159
 4555TIP3    H135080   0.159   4.569  17.220  0.1255  0.1981  2.1887
 4555TIP3    H235081   0.081   4.650  17.118  2.7446 -0.2328 -0.2553
 4556TIP3   OH235082   0.654   0.074  12.952  0.7468  0.4524 -0.0102
 4556TIP3    H135083   0.597   0.151  12.948  1.7920  1.1906 -1.8126
 4556TIP3    H235084   0.694   0.079  13.039 -0.3909  1.0440  0.5075
 4557TIP3   OH235085   4.240   5.698  10.808 -0.0077 -0.0338 -0.0735
 4557TIP3    H135086   4.324   5.653  10.819  0.8005  1.4849  0.2506
 4557TIP3    H235087   4.196   5.687  10.892 -0.0705 -0.6582 -0.1777
 4558TIP3   OH235088   4.492   0.713   2.280 -0.0074  0.3444  0.3723
 4558TIP3    H135089   4.459   0.638   2.229 -0.0680  0.0020  0.9107
 4558TIP3    H235090   4.422   0.778   2.274 -0.5423 -0.1627  1.0356
 4559TIP3   OH235091   0.772   4.598  12.725  0.1978  0.1429 -0.0551
 4559TIP3    H135092   0.781   4.643  12.641 -1.0812  0.6655  0.0746
 4559TIP3    H235093   0.847   4.537  12.727  0.7228  0.7147 -1.1853
 4560TIP3   OH235094   5.709   5.303   2.643  0.0592  0.2595 -0.3388
 4560TIP3    H135095   5.722   5.333   2.553  0.0417  0.1014 -0.3931
 4560TIP3    H235096   5.797   5.305   2.682  0.3171 -1.1091 -0.7971
 4561TIP3   OH235097   0.328   4.365  11.195  0.3746  0.6334 -0.0098
 4561TIP3    H135098   0.282   4.435  11.151 -2.5620 -1.1752 -0.0573
 4561TIP3    H235099   0.381   4.324  11.126  0.7153  1.6693 -0.3760
 4562TIP3   OH235100   4.362   0.997   2.307 -0.4039 -0.3900 -0.3813
 4562TIP3    H135101   4.311   1.033   2.380  0.5640 -1.2234  0.7484
 4562TIP3    H235102   4.430   1.063   2.291 -1.2772  0.3138 -1.3051
 4563TIP3   OH235103   1.351   2.080  16.139  0.4994 -0.1967  0.3627
 4563TIP3    H135104   1.362   1.987  16.155 -1.5914 -0.4424  0.7124
 4563TIP3    H235105   1.358   2.120  16.226 -0.1031 -0.2335  0.4363
 4564TIP3   OH235106   4.280   5.325  16.615  0.3019 -0.1431 -0.1442
 4564TIP3    H135107   4.321   5.274  16.684  0.5477 -0.6891 -0.6823
 4564TIP3    H235108   4.191   5.342  16.646 -0.2548 -2.0838 -0.5218
 4565TIP3   OH235109   2.680   0.430  16.063  0.5274  0.6205  0.2612
 4565TIP3    H135110   2.772   0.407  16.076  0.2166 -0.6368  0.3540
 4565TIP3    H235111   2.632   0.350  16.082 -0.5193  0.9360 -0.8987
 4566TIP3   OH235112   2.344   4.202   3.889  0.1202 -0.8481 -0.0878
 4566TIP3    H135113   2.356   4.119   3.936  0.4243  0.0448  1.4983
 4566TIP3    H235114   2.260   4.193   3.845  0.8063 -2.5328 -1.1502
 4567TIP3   OH235115   3.732   1.388   2.627  0.2588 -0.3201 -0.0222
 4567TIP3    H135116   3.670   1.375   2.555 -0.6057  1.3288  0.3691
 4567TIP3    H235117   3.688   1.450   2.685  1.5643 -0.4637  1.1772
 4568TIP3   OH235118   1.201   6.709   1.512  0.5261 -0.2894  0.2677
 4568TIP3    H135119   1.167   6.706   1.601  1.0889  0.9921  0.5517
 4568TIP3    H235120   1.154   6.640   1.465  1.0408 -1.7549  1.8239
 4569TIP3   OH235121   5.565   2.576  16.072  0.0491 -0.6060  0.2367
 4569TIP3    H135122   5.504   2.609  16.007 -0.6331  0.8880  1.5662
 4569TIP3    H235123   5.510   2.531  16.136  0.1041  1.7663  2.0754
 4570TIP3   OH235124   0.794   6.613   1.278 -0.0690  0.0463 -0.8096
 4570TIP3    H135125   0.777   6.629   1.185  0.5678 -0.3255 -0.9945
 4570TIP3    H235126   0.886   6.584   1.281 -0.5687 -1.6231 -0.2751
 4571TIP3   OH235127   3.225   3.616   2.151 -0.2964  0.1716 -0.1675
 4571TIP3    H135128   3.235   3.541   2.093  1.1543  0.6288 -0.5487
 4571TIP3    H235129   3.244   3.581   2.239  0.4717  0.0986 -0.3548
 4572TIP3   OH235130   1.728   6.255   1.239  0.2162 -0.0167  0.0336
 4572TIP3    H135131   1.751   6.326   1.178  2.1433 -0.1207  0.5641
 4572TIP3    H235132   1.758   6.176   1.194 -1.3819 -0.4717 -0.2904
 4573TIP3   OH235133   4.742   1.668  14.576 -0.7027  0.3518  0.5376
 4573TIP3    H135134   4.754   1.578  14.545 -0.5998  0.6235 -0.2093
 4573TIP3    H235135   4.829   1.708  14.569 -1.2393  1.2611 -1.5431
 4574TIP3   OH235136   2.590   2.841  11.355  0.6732  0.2500  0.5920
 4574TIP3    H135137   2.540   2.922  11.342  0.0328  0.0486  1.6211
 4574TIP3    H235138   2.602   2.806  11.267  0.6399  1.2752  0.1615
 4575TIP3   OH235139   5.899   3.414   5.639 -0.5329  0.2969  0.0802
 4575TIP3    H135140   5.847   3.450   5.710  0.5434  0.2553  0.9253
 4575TIP3    H235141   5.900   3.483   5.572  0.9118  1.6332  1.3804
 4576TIP3   OH235142   2.468   4.330   4.437 -0.0633  0.2794 -0.6346
 4576TIP3    H135143   2.376   4.337   4.413  0.0985  2.8258 -0.8354
 4576TIP3    H235144   2.513   4.308   4.355 -0.2779  1.5422 -1.1178
 4577TIP3   OH235145   1.077   0.817  16.489 -0.0382 -0.1938 -0.1362
 4577TIP3    H135146   1.067   0.911  16.497 -1.6954 -0.4810  2.2829
 4577TIP3    H235147   1.146   0.794  16.551  2.4277 -0.3941 -2.7164
 4578TIP3   OH235148   4.029   2.979  14.708  0.4967 -0.1237  0.7025
 4578TIP3    H135149   3.994   2.890  14.700 -0.9133  0.4339  0.4091
 4578TIP3    H235150   4.074   2.994  14.625 -1.3620  0.2796 -0.2873
 4579TIP3   OH235151   0.039   3.104   3.489 -0.1676  0.0305 -0.1724
 4579TIP3    H135152   0.121   3.113   3.537 -0.2944 -1.1664  0.2956
 4579TIP3    H235153   0.056   3.146   3.404  0.2833  1.5159  0.6247
 4580TIP3   OH235154   5.700   2.251  15.307  0.1355 -0.4648 -0.0340
 4580TIP3    H135155   5.722   2.297  15.388 -1.1146 -0.0557  0.0856
 4580TIP3    H235156   5.606   2.264  15.296  0.3691  0.0110 -1.8710
 4581TIP3   OH235157   0.806   1.189   2.138  0.4235  0.6460  0.7565
 4581TIP3    H135158   0.784   1.255   2.072  0.1211  0.7926  1.0021
 4581TIP3    H235159   0.723   1.147   2.158  0.9128 -1.3809 -1.0565
 4582TIP3   OH235160   5.177   1.093  17.091  0.1055 -0.2259 -0.3090
 4582TIP3    H135161   5.082   1.078  17.085  0.0205  0.0597  0.2267
 4582TIP3    H235162   5.210   1.018  17.141  0.1457 -0.2770 -0.4139
 4583TIP3   OH235163   1.665   0.994  10.674  0.1648 -0.1916  0.2084
 4583TIP3    H135164   1.651   1.088  10.685 -1.4271 -0.3463 -0.2326
 4583TIP3    H235165   1.622   0.972  10.591  1.6273 -1.1117 -0.3645
 4584TIP3   OH235166   4.638   6.557   0.571 -0.7752 -0.3447  0.0512
 4584TIP3    H135167   4.666   6.642   0.604 -0.6048  0.1094 -1.2259
 4584TIP3    H235168   4.544   6.554   0.589 -0.2655 -1.3349  3.1648
 4585TIP3   OH235169   0.303   0.868   4.302  0.0271  0.0744  0.0701
 4585TIP3    H135170   0.344   0.877   4.216  0.0628 -1.2105 -0.0628
 4585TIP3    H235171   0.340   0.939   4.354  0.2721  0.6458 -0.8681
 4586TIP3   OH235172   2.814   4.254  10.981 -0.3808  0.0088  0.2595
 4586TIP3    H135173   2.749   4.203  10.933 -0.0393 -0.7449  0.5916
 4586TIP3    H235174   2.816   4.216  11.068  0.3993  0.1147  0.2970
 4587TIP3   OH235175   3.259   0.349   2.503 -0.1207 -0.0913  0.0419
 4587TIP3    H135176   3.206   0.354   2.424  0.5466  0.9117 -0.3753
 4587TIP3    H235177   3.219   0.413   2.562  0.1011  0.0552  0.0380
 4588TIP3   OH235178   4.019   2.692  15.920 -0.1590  0.2720 -0.2847
 4588TIP3    H135179   3.979   2.607  15.900 -0.2083 -0.2249  1.6901
 4588TIP3    H235180   4.105   2.689  15.879  0.8080 -1.7495  1.7076
 4589TIP3   OH235181   5.122   3.430   4.826  0.4466 -0.1537 -0.2601
 4589TIP3    H135182   5.101   3.406   4.916  1.1103 -0.7293 -0.2476
 4589TIP3    H235183   5.183   3.362   4.797 -0.3167 -0.3890 -1.3926
 4590TIP3   OH235184   1.367   4.932  12.759  0.5537  0.1555  0.2154
 4590TIP3    H135185   1.391   4.875  12.686 -0.3281 -0.5709  0.4648
 4590TIP3    H235186   1.401   4.887  12.836  0.4862  0.3288  0.3469
 4591TIP3   OH235187   1.872   6.231   3.877 -0.0238 -0.6174 -0.0600
 4591TIP3    H135188   1.922   6.220   3.796 -2.1658  1.1024 -1.7566
 4591TIP3    H235189   1.935   6.265   3.940  1.7283 -2.0565 -0.9422
 4592TIP3   OH235190   1.870   4.073   3.684 -0.5496 -0.3605  0.5399
 4592TIP3    H135191   1.856   4.061   3.591  0.5543  0.7193  0.2028
 4592TIP3    H235192   1.841   3.991   3.724  0.2199 -1.3623 -0.8739
 4593TIP3   OH235193   1.993   3.112  11.641 -0.3423 -0.2714  0.4194
 4593TIP3    H135194   1.902   3.124  11.614 -0.5479 -0.8571  0.8352
 4593TIP3    H235195   1.995   3.144  11.731 -0.1864 -0.4734  0.4858
 4594TIP3   OH235196   5.491   2.678   0.563  0.0811 -0.1754  0.1911
 4594TIP3    H135197   5.419   2.622   0.535  0.4071 -1.1291  1.1875
 4594TIP3    H235198   5.568   2.642   0.518  0.2924 -0.5397  0.8333
 4595TIP3   OH235199   3.452   0.746   1.731  0.2432 -0.4855  0.0332
 4595TIP3    H135200   3.381   0.682   1.726 -1.3620  0.8642  2.9651
 4595TIP3    H235201   3.478   0.747   1.823  0.3144  2.8645  0.1062
 4596TIP3   OH235202   6.040   1.952   2.003 -0.3420  0.1209  0.6351
 4596TIP3    H135203   5.997   1.930   2.085 -0.6317 -0.0158  0.4476
 4596TIP3    H235204   5.998   1.896   1.938 -1.7122  1.7927  0.0008
 4597TIP3   OH235205   0.587   6.248  15.250  0.5473 -0.0015 -0.0063
 4597TIP3    H135206   0.497   6.240  15.281  0.6980 -1.8389  0.0424
 4597TIP3    H235207   0.618   6.330  15.288 -0.6649 -0.0429  1.1279
 4598TIP3   OH235208   2.554   1.866   5.473 -1.1026 -0.5277 -0.0566
 4598TIP3    H135209   2.491   1.935   5.452  0.4955  1.6231  1.7435
 4598TIP3    H235210   2.546   1.854   5.568 -0.5677 -2.0568 -0.1813
 4599TIP3   OH235211   6.773   2.290  12.429 -0.2725 -0.0908 -0.4864
 4599TIP3    H135212   6.730   2.341  12.360 -1.7387 -1.2641 -0.5050
 4599TIP3    H235213   6.855   2.336  12.446 -1.4507  2.1720 -0.5842
 4600TIP3   OH235214   0.578   1.576  15.860 -0.0226  0.4875 -0.3027
 4600TIP3    H135215   0.589   1.483  15.880 -0.1818  0.6818  0.7690
 4600TIP3    H235216   0.662   1.616  15.884 -0.1937  0.7177 -0.0783
 4601TIP3   OH235217   5.897   2.912   2.483  0.7368 -0.4607 -0.3372
 4601TIP3    H135218   5.847   2.993   2.485 -1.9634 -1.9737 -1.5919
 4601TIP3    H235219   5.971   2.931   2.426 -1.0626  0.5550 -2.4929
 4602TIP3   OH235220   1.656   4.454   5.839  0.4923  0.3897  0.0848
 4602TIP3    H135221   1.711   4.480   5.765  0.3602  1.6123  0.3936
 4602TIP3    H235222   1.642   4.535   5.888 -2.3722  0.3319 -0.4850
 4603TIP3   OH235223   6.159   1.841   1.701  0.0042 -0.0887 -0.0398
 4603TIP3    H135224   6.203   1.758   1.688 -1.5523 -0.8898 -0.4225
 4603TIP3    H235225   6.168   1.887   1.617  0.2058 -0.1855 -0.0716
 4604TIP3   OH235226   5.073   5.196   1.344 -0.0659  0.3789 -0.1917
 4604TIP3    H135227   5.064   5.123   1.405 -0.3287  0.3294 -0.2904
 4604TIP3    H235228   4.991   5.244   1.351 -1.1645 -1.0347 -2.3436
 4605TIP3   OH235229   0.665   4.652   2.236  0.6465 -0.3459  0.1171
 4605TIP3    H135230   0.740   4.675   2.182 -0.1624  3.8183  0.4220
 4605TIP3    H235231   0.694   4.667   2.326 -0.6160  1.8822  0.2055
 4606TIP3   OH235232   4.975   4.823  16.130 -0.3660 -0.7406 -0.1785
 4606TIP3    H135233   5.035   4.847  16.200 -2.4014  4.0280  0.2948
 4606TIP3    H235234   5.030   4.817  16.052  1.2358 -0.9743  0.9264
 4607TIP3   OH235235   0.136   5.026   4.292 -0.5525 -0.6818 -0.1918
 4607TIP3    H135236   0.097   4.987   4.370 -0.6766  0.4563  0.3471
 4607TIP3    H235237   0.200   5.089   4.327  0.7657 -1.5106 -1.0396
 4608TIP3   OH235238   2.507   4.168  11.984  0.2997  0.4939 -0.2837
 4608TIP3    H135239   2.569   4.237  11.962  0.5483  0.4086  0.1467
 4608TIP3    H235240   2.464   4.199  12.064  0.9787 -0.2076  0.3673
 4609TIP3   OH235241   3.535   1.426  11.263 -0.6114 -0.3497  0.0569
 4609TIP3    H135242   3.500   1.350  11.216 -1.6898  0.9223 -1.2991
 4609TIP3    H235243   3.575   1.479  11.195 -0.4408  0.5990  0.8834
 4610TIP3   OH235244   3.797   4.232  13.458  0.0616  0.1438  0.0506
 4610TIP3    H135245   3.826   4.322  13.447  0.2216  0.2089  0.9410
 4610TIP3    H235246   3.720   4.224  13.401  0.2949  0.7088 -0.3582
 4611TIP3   OH235247   1.177   4.091  10.384  0.0549 -0.6908  0.7686
 4611TIP3    H135248   1.197   4.106  10.476 -1.4635 -0.5534  1.1023
 4611TIP3    H235249   1.258   4.055  10.347 -0.0493 -3.2345  2.7538
 4612TIP3   OH235250   6.650   6.639  13.642 -0.8739  0.0853 -0.1245
 4612TIP3    H135251   6.598   6.680  13.712 -2.9354 -0.5058 -1.2391
 4612TIP3    H235252   6.632   6.693  13.565 -0.7859 -0.8244 -0.7962
 4613TIP3   OH235253   5.546   4.653   0.004 -0.2545 -0.5344  0.6581
 4613TIP3    H135254   5.554   4.714  -0.069 -4.2445  1.1268  1.4157
 4613TIP3    H235255   5.520   4.570  -0.037  0.4145 -0.4319  0.0053
 4614TIP3   OH235256   5.493   1.566  11.779 -0.0738  0.1981 -0.0232
 4614TIP3    H135257   5.542   1.532  11.704  0.4070  0.6754  0.0717
 4614TIP3    H235258   5.443   1.640  11.744  1.5755  1.6042  0.5003
 4615TIP3   OH235259   1.011   1.553   0.131 -0.1906  0.3778  0.7753
 4615TIP3    H135260   1.046   1.620   0.073 -1.3272 -0.5700 -1.0819
 4615TIP3    H235261   0.919   1.577   0.144 -0.6129 -0.7994  0.0882
 4616TIP3   OH235262   1.658   6.190  14.689 -0.3769  0.3277 -0.5357
 4616TIP3    H135263   1.648   6.257  14.621  3.8213  0.6076 -1.0877
 4616TIP3    H235264   1.614   6.228  14.765 -1.8050  1.7589 -1.9804
 4617TIP3   OH235265   5.797   3.736   2.444  0.1016 -0.1456 -0.0365
 4617TIP3    H135266   5.857   3.683   2.391  0.5090  1.6997 -1.5349
 4617TIP3    H235267   5.853   3.804   2.483 -0.8094  0.9274 -0.5293
 4618TIP3   OH235268   0.570   4.149   1.556 -0.1521 -0.1243 -0.4848
 4618TIP3    H135269   0.544   4.222   1.500 -0.3997  0.5103  0.4411
 4618TIP3    H235270   0.489   4.099   1.570 -0.9469  1.7209  2.2049
 4619TIP3   OH235271   1.035   3.633   4.536 -0.0479 -0.2457  0.4949
 4619TIP3    H135272   1.013   3.584   4.615  2.2093 -1.3942  0.4740
 4619TIP3    H235273   1.045   3.724   4.566  0.0414 -0.5445  1.3852
 4620TIP3   OH235274   0.675   0.613  16.673  0.7647 -0.2102  0.0484
 4620TIP3    H135275   0.703   0.663  16.597  0.7867 -0.5145 -0.1418
 4620TIP3    H235276   0.614   0.671  16.719  1.5234  0.3732  0.3510
 4621TIP3   OH235277   3.273   4.885  12.629 -0.2398  0.0309 -0.3024
 4621TIP3    H135278   3.278   4.872  12.535 -1.5795  0.0375 -0.3877
 4621TIP3    H235279   3.336   4.822  12.665  0.6239  0.3498 -1.2036
 4622TIP3   OH235280   1.566   3.079   1.587 -0.3222 -0.0597 -0.0411
 4622TIP3    H135281   1.528   3.000   1.625 -3.0969  1.7805  1.3755
 4622TIP3    H235282   1.613   3.048   1.509 -1.2086 -3.0733  0.4981
 4623TIP3   OH235283   3.572   0.461  14.107  0.1153  0.0475  0.5235
 4623TIP3    H135284   3.628   0.467  14.185  1.5037 -2.8903 -0.1004
 4623TIP3    H235285   3.484   0.449  14.142  0.4535  0.5649  1.5950
 4624TIP3   OH235286   2.567   3.403  16.184 -0.3941 -0.1039  0.0354
 4624TIP3    H135287   2.622   3.445  16.250 -0.9510  0.5088  0.1105
 4624TIP3    H235288   2.491   3.371  16.232  0.6498 -2.4893  0.2481
 4625TIP3   OH235289   4.950   4.007   0.815  0.8706 -0.0654 -0.0344
 4625TIP3    H135290   4.984   4.044   0.734  0.4500  1.1679  0.3391
 4625TIP3    H235291   4.915   4.082   0.863 -1.3717 -1.0954  0.0837
 4626TIP3   OH235292   0.435   5.775   5.505 -0.0169 -1.1951 -0.6172
 4626TIP3    H135293   0.467   5.800   5.592 -0.3047 -0.4623 -0.7119
 4626TIP3    H235294   0.467   5.686   5.492  2.1857 -0.4424 -0.8056
 4627TIP3   OH235295   5.547   3.240  13.418 -0.0002 -0.1687 -0.1356
 4627TIP3    H135296   5.483   3.256  13.487  0.7733  0.4814  0.4457
 4627TIP3    H235297   5.621   3.297  13.439  1.0119 -1.3044 -0.4865
 4628TIP3   OH235298   1.643   2.610   1.858  0.5535  0.2805 -0.0377
 4628TIP3    H135299   1.714   2.587   1.918  0.4228 -0.5570 -0.1951
 4628TIP3    H235300   1.582   2.537   1.863  0.1338  0.5820 -0.5752
 4629TIP3   OH235301   4.745   6.586   3.002 -0.1732 -0.1645 -0.2327
 4629TIP3    H135302   4.715   6.622   2.919 -0.0606  0.6666  0.0794
 4629TIP3    H235303   4.836   6.559   2.985  0.2170  1.0039 -0.1010
 4630TIP3   OH235304   5.239   1.952  15.829  0.2566 -0.2471 -0.2336
 4630TIP3    H135305   5.180   1.974  15.901 -3.0237 -2.8850 -1.8158
 4630TIP3    H235306   5.294   1.882  15.863 -0.8240 -1.0287 -0.0309
 4631TIP3   OH235307   0.740   3.359   1.667  0.2996 -0.0874 -0.0408
 4631TIP3    H135308   0.726   3.403   1.751  1.3933 -1.1959  0.7656
 4631TIP3    H235309   0.818   3.400   1.631  0.5666 -0.4669  0.0969
 4632TIP3   OH235310   5.056   5.473  17.071 -0.1222  0.5220  0.6134
 4632TIP3    H135311   5.011   5.451  17.152 -0.6420 -0.2287  0.1451
 4632TIP3    H235312   4.995   5.530  17.024  0.3322  1.2578  0.9034
 4633TIP3   OH235313   0.958   4.118   0.794  0.0485 -0.1774  0.1192
 4633TIP3    H135314   0.885   4.060   0.773  1.1618 -3.1582  3.4931
 4633TIP3    H235315   0.980   4.099   0.885  3.6466  2.1614 -0.0090
 4634TIP3   OH235316   6.090   2.365   5.278 -0.0036 -0.2674  0.3569
 4634TIP3    H135317   6.072   2.317   5.359  2.0203  2.1394  2.3724
 4634TIP3    H235318   6.026   2.436   5.277 -0.1679 -0.4163 -0.3067
 4635TIP3   OH235319   6.283   3.351  16.342 -0.7894 -0.0071 -0.2332
 4635TIP3    H135320   6.258   3.342  16.250 -1.7876 -1.5284  0.1455
 4635TIP3    H235321   6.261   3.442  16.365 -0.3604  0.4402 -1.5285
 4636TIP3   OH235322   1.658   1.994  14.429  0.8338 -0.1970 -0.1979
 4636TIP3    H135323   1.698   2.018  14.513  0.1245  0.6355 -0.0834
 4636TIP3    H235324   1.657   1.898  14.430  2.3131 -0.2417  0.0258
 4637TIP3   OH235325   4.265   6.391   0.379  0.5687  0.4196  0.0166
 4637TIP3    H135326   4.194   6.326   0.380  0.1150  0.9240  0.7025
 4637TIP3    H235327   4.343   6.339   0.361  0.3059 -0.4199  1.2087
 4638TIP3   OH235328   3.262   2.890  12.752  0.5042 -0.3396 -0.2432
 4638TIP3    H135329   3.285   2.897  12.659  0.6348 -0.0861 -0.1951
 4638TIP3    H235330   3.173   2.857  12.753  0.7312 -0.9758 -0.4474
 4639TIP3   OH235331   5.421   4.453   0.549 -0.6034  0.0471 -0.0721
 4639TIP3    H135332   5.491   4.389   0.546 -0.8876 -0.5453  2.8045
 4639TIP3    H235333   5.463   4.536   0.527  1.0539 -0.3027  1.5141
 4640TIP3   OH235334   1.752   5.004  11.543  0.2498 -0.0291  0.1291
 4640TIP3    H135335   1.823   5.063  11.569 -0.2789  0.3001  0.8786
 4640TIP3    H235336   1.684   5.063  11.510  0.2728 -0.3352 -0.4825
 4641TIP3   OH235337   6.285   0.041  13.006  0.2625 -0.5453  0.4984
 4641TIP3    H135338   6.333   0.032  12.923 -0.4017 -0.7512  0.1270
 4641TIP3    H235339   6.212  -0.020  12.998 -0.4181  0.2131  0.7961
 4642TIP3   OH235340   4.687   0.044   2.070  0.0260 -0.1017  0.4869
 4642TIP3    H135341   4.753  -0.011   2.113 -0.3327 -0.6109  0.3938
 4642TIP3    H235342   4.682   0.122   2.125  0.3385 -0.2850  0.7836
 4643TIP3   OH235343   5.963   0.656  11.680 -0.0154  0.1309  0.0103
 4643TIP3    H135344   5.995   0.675  11.768 -0.9502 -1.3545  0.7340
 4643TIP3    H235345   5.909   0.732  11.657 -1.8319 -0.4906  1.8320
 4644TIP3   OH235346   4.686   3.116   2.816  0.2613  0.7685  0.0471
 4644TIP3    H135347   4.712   3.180   2.883  0.0108  1.9890 -1.0027
 4644TIP3    H235348   4.632   3.053   2.864  0.3884  1.4030  1.0669
 4645TIP3   OH235349   2.997   6.084   2.050 -0.4657  0.0562  0.3129
 4645TIP3    H135350   3.018   6.167   2.007  0.4391 -0.4837 -0.3170
 4645TIP3    H235351   3.066   6.072   2.114 -0.0190 -0.6820 -0.2855
 4646TIP3   OH235352   1.543   4.448  14.407 -0.2757 -0.6243 -0.8228
 4646TIP3    H135353   1.592   4.412  14.333  1.0657 -0.1408 -0.1977
 4646TIP3    H235354   1.457   4.405  14.402 -0.5609  0.0578 -3.1859
 4647TIP3   OH235355   5.924   6.515  15.212  0.3280 -0.3695  0.0915
 4647TIP3    H135356   6.018   6.529  15.221  0.4280  0.1321 -1.3672
 4647TIP3    H235357   5.902   6.555  15.127 -0.8447 -2.1457 -0.5018
 4648TIP3   OH235358   3.523   1.290   2.856  0.3379  0.2525  0.2814
 4648TIP3    H135359   3.555   1.229   2.789 -0.7995  0.0617 -0.1078
 4648TIP3    H235360   3.593   1.355   2.864  0.2074  0.6811 -1.6092
 4649TIP3   OH235361   1.362   0.809   2.324  0.0476 -0.5684  0.1138
 4649TIP3    H135362   1.393   0.825   2.414 -2.8683  4.0239  0.6642
 4649TIP3    H235363   1.430   0.848   2.269 -0.3534  1.0732  0.7190
 4650TIP3   OH235364   1.483   4.679  11.226 -0.2422 -0.0828  0.0528
 4650TIP3    H135365   1.521   4.729  11.154 -0.3016  1.2654  0.9266
 4650TIP3    H235366   1.415   4.626  11.184  0.8185 -0.5639 -1.1182
 4651TIP3   OH235367   1.844   5.525  13.849  0.2099  0.5203  0.6667
 4651TIP3    H135368   1.842   5.618  13.874  0.6502  1.0407 -1.0733
 4651TIP3    H235369   1.889   5.524  13.764 -1.5313 -1.0586 -0.3178
 4652TIP3   OH235370   0.919   3.899   3.407 -0.3722  0.4788 -0.4948
 4652TIP3    H135371   0.929   3.972   3.469  0.9467 -0.8861  0.9812
 4652TIP3    H235372   0.900   3.942   3.324 -0.8369  2.4564  0.5539
 4653TIP3   OH235373   3.190   2.825   2.218  0.7041  0.2700  0.5198
 4653TIP3    H135374   3.257   2.801   2.282 -1.3744 -0.0562  2.7464
 4653TIP3    H235375   3.143   2.743   2.201  0.4573  0.6045 -0.4965
 4654TIP3   OH235376   3.260   4.564  14.037 -0.0844  0.3582 -0.2510
 4654TIP3    H135377   3.290   4.539  14.124  2.0572 -1.6951 -1.4727
 4654TIP3    H235378   3.317   4.636  14.011 -0.3820  0.6280 -0.1599
 4655TIP3   OH235379   5.056   3.898  14.168 -0.3700  0.7774 -0.5861
 4655TIP3    H135380   5.077   3.808  14.190 -2.6219 -0.1564 -1.9061
 4655TIP3    H235381   5.079   3.906  14.075 -0.5542  1.4400 -0.5819
 4656TIP3   OH235382   3.910   1.347   3.052 -0.1466  0.0099 -0.6257
 4656TIP3    H135383   3.878   1.429   3.089  1.0970  0.3864 -0.3320
 4656TIP3    H235384   3.990   1.372   3.005  0.1940 -1.0199 -0.6121
 4657TIP3   OH235385   6.035   0.069   4.176 -0.2065 -0.4439  0.2664
 4657TIP3    H135386   6.007   0.100   4.089  1.4335  1.9425  0.5056
 4657TIP3    H235387   5.959   0.084   4.232 -1.5988 -2.7953 -0.8115
 4658TIP3   OH235388   3.796   0.080  15.304  0.4081 -0.1707 -0.0157
 4658TIP3    H135389   3.847   0.056  15.227  1.5160  1.0186  0.3051
 4658TIP3    H235390   3.837   0.031  15.376  1.2533  0.9131  0.2710
 4659TIP3   OH235391   0.871   2.658   5.253  0.4340 -0.0319 -0.0395
 4659TIP3    H135392   0.817   2.731   5.224  1.3544  0.0579 -1.6540
 4659TIP3    H235393   0.949   2.700   5.291  0.0296 -0.1764  0.9893
 4660TIP3   OH235394   0.057   6.726   3.866 -0.2907  0.5622 -0.2057
 4660TIP3    H135395   0.013   6.805   3.834  0.9737  2.3483  2.1537
 4660TIP3    H235396   0.150   6.745   3.855  0.0687 -0.0385  1.5592
 4661TIP3   OH235397   3.991   1.034  12.946 -0.1645 -0.1871 -0.0484
 4661TIP3    H135398   4.015   1.104  12.886 -1.7505  0.1516 -0.3472
 4661TIP3    H235399   3.958   0.964  12.889 -1.7255  0.1539  0.3776
 4662TIP3   OH235400   1.850   5.166   5.137  0.2600  0.2668 -0.1091
 4662TIP3    H135401   1.944   5.179   5.155 -0.1423  1.8490  1.0169
 4662TIP3    H235402   1.842   5.072   5.122  1.7425 -0.2467  1.7995
 4663TIP3   OH235403   4.627   6.255   5.361  0.0389  0.4591  0.3097
 4663TIP3    H135404   4.701   6.315   5.365  1.0582 -0.6734 -0.6567
 4663TIP3    H235405   4.630   6.206   5.443  1.0895 -0.3618 -0.1918
 4664TIP3   OH235406   4.805   0.719   0.330 -0.9183  0.3726  0.2708
 4664TIP3    H135407   4.889   0.743   0.292  0.3420 -2.8172  0.7920
 4664TIP3    H235408   4.757   0.678   0.258 -1.2246  0.3279  0.4983
 4665TIP3   OH235409   0.526   2.481   3.847  0.2456 -0.3271  0.2084
 4665TIP3    H135410   0.535   2.520   3.760 -0.7876 -0.1099  0.1962
 4665TIP3    H235411   0.553   2.550   3.907 -0.3385 -0.0317  0.1262
 4666TIP3   OH235412   6.017   1.133  12.421 -0.3886  0.3577 -0.7978
 4666TIP3    H135413   6.027   1.082  12.502  2.3777  0.7436 -0.7954
 4666TIP3    H235414   5.924   1.155  12.418 -0.5276  0.8076  2.5807
 4667TIP3   OH235415   3.418   4.467  16.324 -0.1051  0.2918  0.2473
 4667TIP3    H135416   3.512   4.477  16.341 -0.2551  1.1524  0.5919
 4667TIP3    H235417   3.410   4.472  16.229  0.1689  0.4259  0.2317
 4668TIP3   OH235418   1.301   6.382   3.596  0.4677  0.2389  0.5695
 4668TIP3    H135419   1.312   6.343   3.510  0.6855 -1.6255  1.3874
 4668TIP3    H235420   1.222   6.342   3.631  0.8198  0.3498  1.5353
 4669TIP3   OH235421   0.481   6.384   4.893 -0.8221 -0.2275  0.8945
 4669TIP3    H135422   0.453   6.475   4.903 -0.3650 -0.2233  2.2198
 4669TIP3    H235423   0.418   6.347   4.830  0.7125  1.7324 -2.0351
 4670TIP3   OH235424   4.128   1.199  12.757  0.0589 -0.3686 -1.0904
 4670TIP3    H135425   4.200   1.170  12.701  0.6406 -1.3587  0.1367
 4670TIP3    H235426   4.170   1.229  12.837 -0.8285  0.1981 -0.8254
 4671TIP3   OH235427   3.495   2.582   2.098  0.1327 -0.0279  0.0289
 4671TIP3    H135428   3.576   2.615   2.060 -0.0864  0.5220  0.0391
 4671TIP3    H235429   3.473   2.646   2.166  0.9859 -1.4172  1.7165
 4672TIP3   OH235430   6.121   2.255  15.864 -0.1249 -0.4565 -0.0220
 4672TIP3    H135431   6.157   2.323  15.808 -2.0835  0.7741  0.1570
 4672TIP3    H235432   6.138   2.173  15.816  1.1654  0.2430 -0.8089
 4673TIP3   OH235433   3.953   3.276  14.535  0.1855  0.5369  0.2355
 4673TIP3    H135434   3.919   3.223  14.463  1.2817  0.8137 -0.5146
 4673TIP3    H235435   3.930   3.227  14.614 -0.9478  0.1768 -0.2904
 4674TIP3   OH235436   1.480   3.320   3.674 -0.2230  0.2120  0.1343
 4674TIP3    H135437   1.503   3.228   3.657 -0.3993  0.2772 -0.4980
 4674TIP3    H235438   1.412   3.339   3.609  0.0291  0.8790  0.0628
 4675TIP3   OH235439   2.171   3.414  13.776 -0.7091  0.7258  0.1420
 4675TIP3    H135440   2.213   3.468  13.710 -1.4917  2.5145  1.0385
 4675TIP3    H235441   2.077   3.428  13.763 -0.9164  0.0320  0.7800
 4676TIP3   OH235442   5.812   0.062  10.939  0.2965  0.6778  0.4038
 4676TIP3    H135443   5.782  -0.008  10.880 -1.2327  2.1950 -0.7134
 4676TIP3    H235444   5.733   0.087  10.987  1.1202  0.7826  1.7696
 4677TIP3   OH235445   5.577   4.805  15.325 -0.2088 -0.1480 -0.0220
 4677TIP3    H135446   5.555   4.898  15.321 -1.6814 -0.4677 -0.0519
 4677TIP3    H235447   5.497   4.761  15.294  0.3611 -1.4265  0.2784
 4678TIP3   OH235448   2.259   2.991   3.990  0.4044  0.2011 -0.6586
 4678TIP3    H135449   2.345   2.959   4.018  0.3490 -0.3853 -1.1367
 4678TIP3    H235450   2.272   3.016   3.899 -0.0301 -0.2717 -0.8529
 4679TIP3   OH235451   2.576   4.205  12.653  0.1443 -0.0148  0.4965
 4679TIP3    H135452   2.589   4.195  12.558  0.0964  1.7499  0.2740
 4679TIP3    H235453   2.481   4.206  12.664  0.1279 -1.6646  0.7712
 4680TIP3   OH235454   0.210   1.029   2.036  0.6765 -0.4633 -0.0072
 4680TIP3    H135455   0.200   1.040   1.941 -1.1283  0.5128  0.2457
 4680TIP3    H235456   0.263   1.104   2.063 -1.1516  0.8788  0.0677
 4681TIP3   OH235457   3.907   6.779  11.144 -0.0138  0.1378 -0.1943
 4681TIP3    H135458   3.977   6.789  11.209 -1.4399 -1.5505  1.7108
 4681TIP3    H235459   3.826   6.792  11.194 -1.1489 -0.3483 -1.8387
 4682TIP3   OH235460   6.707   1.578   3.045  0.1334  0.1165  1.1246
 4682TIP3    H135461   6.795   1.556   3.077 -0.2205  0.5730  2.4398
 4682TIP3    H235462   6.708   1.674   3.037  0.5637 -0.0108 -1.3410
 4683TIP3   OH235463   3.220   2.989   1.049  0.0001  0.4010 -0.0788
 4683TIP3    H135464   3.294   2.936   1.019 -0.4697 -0.8680  0.9454
 4683TIP3    H235465   3.250   3.026   1.132 -0.9735 -1.2686  1.0760
 4684TIP3   OH235466   2.950   2.239   1.757 -0.1306 -0.2544 -0.0219
 4684TIP3    H135467   3.024   2.284   1.717 -0.2984 -0.6045 -0.7363
 4684TIP3    H235468   2.876   2.259   1.699 -0.8804  1.1210  1.3367
 4685TIP3   OH235469   1.439   0.568  13.256  0.5431 -0.3365  0.2065
 4685TIP3    H135470   1.471   0.638  13.313 -1.0167  0.2184  0.4308
 4685TIP3    H235471   1.397   0.506  13.315  1.2417 -1.1077 -0.0783
 4686TIP3   OH235472   1.357   2.734  17.130 -0.2683 -0.1575 -0.2489
 4686TIP3    H135473   1.382   2.789  17.204 -1.0107  0.9910 -0.8217
 4686TIP3    H235474   1.414   2.762  17.058 -1.6303  0.9396 -0.9524
 4687TIP3   OH235475   3.202   5.131  15.323  0.0642 -0.0872 -0.1569
 4687TIP3    H135476   3.269   5.146  15.257 -1.4766  0.8039 -1.6040
 4687TIP3    H235477   3.250   5.103  15.401  1.9819 -0.7086 -1.5030
 4688TIP3   OH235478   1.522   2.800  14.251 -0.3244  0.8291  0.0532
 4688TIP3    H135479   1.553   2.782  14.339  0.0522 -0.1761 -0.2787
 4688TIP3    H235480   1.426   2.801  14.259 -0.3156 -0.0745  0.3237
 4689TIP3   OH235481   2.162   0.729   2.631 -0.5698 -0.3157  0.0886
 4689TIP3    H135482   2.096   0.798   2.627 -0.3989 -0.1504  0.1029
 4689TIP3    H235483   2.137   0.677   2.708 -0.3629  0.0794  0.4305
 4690TIP3   OH235484   2.024   2.872  16.837 -0.0186 -0.0140 -0.0658
 4690TIP3    H135485   2.110   2.838  16.811 -0.1231  0.0802 -0.5522
 4690TIP3    H235486   1.999   2.931  16.765 -1.2552 -1.3496 -0.7830
 4691TIP3   OH235487   1.698   5.059   1.416 -0.2562  0.5907 -0.6415
 4691TIP3    H135488   1.777   5.016   1.381 -0.0738  1.7989 -1.8034
 4691TIP3    H235489   1.665   4.998   1.482 -1.4413 -2.6383 -3.8666
 4692TIP3   OH235490   3.733   4.198  12.380 -0.3821  0.3638  0.0579
 4692TIP3    H135491   3.716   4.199  12.286  1.5328 -1.1457 -0.3836
 4692TIP3    H235492   3.823   4.231  12.387 -0.7123  1.0124  1.4311
 4693TIP3   OH235493   1.173   5.113  12.813  0.6308  0.7322 -0.3243
 4693TIP3    H135494   1.083   5.081  12.804  0.4553  0.1649  2.4863
 4693TIP3    H235495   1.228   5.037  12.797  0.6108  0.8849 -1.1954
 4694TIP3   OH235496   5.590   3.506   2.389 -0.0063  0.4443  0.3339
 4694TIP3    H135497   5.655   3.461   2.443 -2.3575 -0.0249  2.9619
 4694TIP3    H235498   5.611   3.599   2.399 -0.3232  0.3569  2.0180
 4695TIP3   OH235499   4.885   4.064  16.447 -0.1767 -0.4402 -0.2922
 4695TIP3    H135500   4.859   4.041  16.358  0.2267 -0.5934 -0.3745
 4695TIP3    H235501   4.805   4.054  16.498 -0.3947 -0.4252 -0.6241
 4696TIP3   OH235502   1.057   3.124   3.668  0.4036 -0.1171  0.4526
 4696TIP3    H135503   1.120   3.135   3.739  0.0555  1.2859  0.5677
 4696TIP3    H235504   1.109   3.092   3.594  1.5656  2.2669  0.1432
 4697TIP3   OH235505   5.237   3.450   3.777  0.2367  0.4457 -0.1326
 4697TIP3    H135506   5.193   3.463   3.693 -2.3639 -0.6898  0.9197
 4697TIP3    H235507   5.290   3.372   3.765 -2.0964 -1.2630 -0.1495
 4698TIP3   OH235508   1.739   5.455   1.832  0.4544 -0.2682 -0.3562
 4698TIP3    H135509   1.738   5.411   1.917  0.9028  0.1131 -0.1529
 4698TIP3    H235510   1.778   5.391   1.772  0.0874 -0.5583 -0.2943
 4699TIP3   OH235511   1.718   1.343  13.809  0.1664  0.2421 -0.3346
 4699TIP3    H135512   1.639   1.382  13.771 -0.4475 -1.7901 -1.2870
 4699TIP3    H235513   1.689   1.305  13.892  0.1657 -0.4385 -0.6466
 4700TIP3   OH235514   0.503   6.213  10.491 -0.2228  0.5600 -0.5794
 4700TIP3    H135515   0.529   6.291  10.540  0.4409  0.3288 -0.5668
 4700TIP3    H235516   0.417   6.191  10.526 -1.1365  2.1869 -1.6397
 4701TIP3   OH235517   6.636   3.961   4.386  0.2753 -0.7570  0.3338
 4701TIP3    H135518   6.611   4.044   4.428 -1.3182  0.4497 -2.6660
 4701TIP3    H235519   6.595   3.893   4.438 -0.6437  0.5559  1.3663
 4702TIP3   OH235520   5.405   1.538   0.400 -0.5120 -0.2436  0.0072
 4702TIP3    H135521   5.499   1.536   0.422 -0.3836 -1.0056 -0.5861
 4702TIP3    H235522   5.398   1.487   0.319 -1.2778  0.7895 -0.6013
 4703TIP3   OH235523   5.263   5.510   4.325 -0.0461  0.1325  0.1925
 4703TIP3    H135524   5.313   5.499   4.244 -0.5869  1.9027 -0.4098
 4703TIP3    H235525   5.266   5.423   4.366  1.5568 -0.3992 -0.9359
 4704TIP3   OH235526   2.855   2.950   2.759 -0.1043 -0.0160 -0.0887
 4704TIP3    H135527   2.855   2.972   2.666 -0.2617 -0.4427 -0.1911
 4704TIP3    H235528   2.936   2.900   2.772  0.8311  1.5457  0.3735
 4705TIP3   OH235529   6.194   1.874  12.778  0.3401  0.0784 -0.0145
 4705TIP3    H135530   6.257   1.924  12.727  0.8426 -0.3134  0.2123
 4705TIP3    H235531   6.243   1.844  12.854 -0.5531  1.1443  1.0151
 4706TIP3   OH235532   5.304   1.754  15.996  0.3991 -0.0972  0.4355
 4706TIP3    H135533   5.349   1.798  16.068  0.8118 -0.4432  0.3905
 4706TIP3    H235534   5.268   1.674  16.036 -2.5811  1.4512  1.1691
 4707TIP3   OH235535   2.842   5.032  14.752  0.4180  0.1226 -0.1631
 4707TIP3    H135536   2.884   4.956  14.793 -2.8210 -2.1596 -0.7113
 4707TIP3    H235537   2.841   5.012  14.659 -0.9903  0.4879 -0.2579
 4708TIP3   OH235538   6.436   4.997  16.836  0.2876 -0.1481 -0.5134
 4708TIP3    H135539   6.461   5.005  16.744  4.4202 -0.7125  0.3762
 4708TIP3    H235540   6.480   4.918  16.866 -0.3598  0.4144  2.1408
 4709TIP3   OH235541   1.729   4.379   0.903  0.3630 -0.1057 -0.1343
 4709TIP3    H135542   1.714   4.398   0.995 -2.6323  0.3386 -0.5991
 4709TIP3    H235543   1.761   4.289   0.902 -0.2376 -0.3605  1.3099
 4710TIP3   OH235544   5.047   4.421  13.537 -0.1278  0.1039 -0.7090
 4710TIP3    H135545   4.993   4.372  13.476 -0.6012 -1.2647  0.7400
 4710TIP3    H235546   5.083   4.355  13.596 -1.0472  1.4880  1.5290
 4711TIP3   OH235547   3.048   5.088   2.342  0.2949  0.7023  0.2630
 4711TIP3    H135548   3.080   5.072   2.431  0.2201 -0.1121  0.1477
 4711TIP3    H235549   3.082   5.175   2.320  0.0716  1.0356  1.1940
 4712TIP3   OH235550   4.109   1.165  14.151  0.4845 -0.7598 -0.7539
 4712TIP3    H135551   4.182   1.110  14.177 -0.1655 -0.7171  1.3113
 4712TIP3    H235552   4.088   1.217  14.229  0.9317  2.3053 -2.5008
 4713TIP3   OH235553   6.001   5.183   1.156 -0.9517 -1.2091 -0.5535
 4713TIP3    H135554   5.978   5.269   1.119  0.4507 -1.6593 -2.6366
 4713TIP3    H235555   6.095   5.187   1.170 -0.8273 -2.4979 -0.9075
 4714TIP3   OH235556   2.233   6.013  16.239  0.3365 -0.5452  0.3413
 4714TIP3    H135557   2.206   6.087  16.185  1.0739 -1.4474 -1.3541
 4714TIP3    H235558   2.154   5.985  16.284 -0.6788 -0.6863 -1.4610
 4715TIP3   OH235559   2.687   3.193  15.998  0.0942 -0.4493  0.4117
 4715TIP3    H135560   2.681   3.130  16.070 -0.2652  0.3115  1.0542
 4715TIP3    H235561   2.651   3.274  16.034 -0.3184 -0.1295 -0.7091
 4716TIP3   OH235562   2.866   1.002   6.467 -0.4385 -0.1299  0.1774
 4716TIP3    H135563   2.777   1.037   6.475  0.1320  1.4354 -0.0786
 4716TIP3    H235564   2.923   1.078   6.473  0.8210 -0.8708 -1.4313
 4717TIP3   OH235565   0.245   4.148  13.822 -0.1076  0.0614 -0.1888
 4717TIP3    H135566   0.270   4.069  13.774  1.1725  1.0029 -1.1228
 4717TIP3    H235567   0.172   4.120  13.877 -1.1827 -1.2303 -2.1597
 4718TIP3   OH235568   5.867   6.555  16.406 -0.3885  0.1965  0.5204
 4718TIP3    H135569   5.773   6.557  16.389 -0.7731  2.6236  2.3815
 4718TIP3    H235570   5.874   6.543  16.501  1.2620 -1.3572  0.2586
 4719TIP3   OH235571   5.352   1.338   6.305  0.2468  0.0275 -0.2679
 4719TIP3    H135572   5.446   1.323   6.295  0.4545  1.7871 -1.2400
 4719TIP3    H235573   5.345   1.399   6.379 -0.2604 -1.0630  0.6276
 4720TIP3   OH235574   2.964   0.314   3.721  0.6218  0.1809 -0.0048
 4720TIP3    H135575   3.038   0.254   3.706  0.7185  0.3945 -0.4163
 4720TIP3    H235576   2.975   0.382   3.654  0.1390  0.2987  0.0311
 4721TIP3   OH235577   3.409   3.181   3.671  0.4175 -0.1901 -0.3067
 4721TIP3    H135578   3.460   3.144   3.743 -1.0560  0.6241  1.2239
 4721TIP3    H235579   3.324   3.202   3.709 -0.1677  1.0128 -2.0925
 4722TIP3   OH235580   5.214   0.506  11.108 -0.8199  0.3788 -0.3498
 4722TIP3    H135581   5.205   0.428  11.053 -0.7383  0.2943 -0.2415
 4722TIP3    H235582   5.212   0.473  11.198 -3.8351  0.7403 -0.1637
 4723TIP3   OH235583   6.520   5.466   0.804 -0.5682  0.5180  0.1040
 4723TIP3    H135584   6.508   5.380   0.762 -1.7880 -0.0238  1.4818
 4723TIP3    H235585   6.569   5.448   0.883 -2.9890  0.6202  1.7498
 4724TIP3   OH235586   1.394   3.960  11.285  0.3133  0.9222 -0.0745
 4724TIP3    H135587   1.352   3.880  11.314 -1.2946  1.7239 -0.0987
 4724TIP3    H235588   1.487   3.937  11.277  0.0831 -0.5776  1.1199
 4725TIP3   OH235589   5.275   2.344   4.826  0.0307 -0.9172  0.2304
 4725TIP3    H135590   5.305   2.253   4.819 -0.9392 -1.2589  0.2810
 4725TIP3    H235591   5.199   2.339   4.884 -0.0380 -0.0753  0.2130
 4726TIP3   OH235592   5.309   1.783  14.843 -0.0014 -0.3574 -0.0398
 4726TIP3    H135593   5.286   1.869  14.877  0.1817 -0.3217 -0.0078
 4726TIP3    H235594   5.335   1.799  14.752 -0.8774 -0.5050 -0.3330
 4727TIP3   OH235595   5.680   3.998  13.293  0.4356  0.1976 -0.1502
 4727TIP3    H135596   5.655   3.927  13.352 -0.9068  0.1943 -0.7001
 4727TIP3    H235597   5.620   3.990  13.219  1.2947  0.9533 -0.9587
 4728TIP3   OH235598   5.184   4.372  16.947  0.2167  0.3049 -0.1027
 4728TIP3    H135599   5.260   4.410  16.991  0.3043 -1.5420  1.4881
 4728TIP3    H235600   5.220   4.310  16.884  0.1393 -1.9990  1.9763
 4729TIP3   OH235601   1.202   3.664   0.096 -0.1138 -0.2660 -0.1546
 4729TIP3    H135602   1.251   3.671   0.014  0.4482 -1.4369  0.0604
 4729TIP3    H235603   1.136   3.732   0.090  0.9938  0.8001 -0.8327
 4730TIP3   OH235604   2.845   3.803   0.806 -0.5190  0.0671  0.4543
 4730TIP3    H135605   2.796   3.856   0.744 -0.8568 -1.0274 -0.2493
 4730TIP3    H235606   2.929   3.786   0.764 -0.7635 -0.7083  0.2440
 4731TIP3   OH235607   2.058   4.542  16.978  0.0176  0.5660 -0.1122
 4731TIP3    H135608   1.976   4.570  17.018 -1.4472 -1.3440 -1.5212
 4731TIP3    H235609   2.083   4.464  17.027  0.2746  0.4030 -0.4925
 4732TIP3   OH235610   3.676   1.410  11.569  0.1847  0.5009  0.2618
 4732TIP3    H135611   3.716   1.484  11.524 -2.6121  0.8714 -1.8655
 4732TIP3    H235612   3.739   1.339  11.560  0.8545  1.3159 -1.9889
 4733TIP3   OH235613   5.640   1.835   3.129 -0.3433 -0.4750  0.3598
 4733TIP3    H135614   5.603   1.748   3.146 -1.6537  0.0428  0.2649
 4733TIP3    H235615   5.603   1.860   3.044  0.2774  0.0402  0.2377
 4734TIP3   OH235616   6.021   3.897  16.153 -0.5173  0.9433  0.5496
 4734TIP3    H135617   5.992   3.984  16.183  0.9567  2.0547 -1.0701
 4734TIP3    H235618   6.115   3.907  16.140 -0.4676 -0.6708 -0.4848
 4735TIP3   OH235619   4.403   4.706  16.374  0.1645  0.3329 -0.0733
 4735TIP3    H135620   4.439   4.758  16.302  0.4020  0.2260 -0.0347
 4735TIP3    H235621   4.327   4.756  16.405  0.0081  0.3345 -0.4558
 4736TIP3   OH235622   1.435   3.639  17.144 -0.3649 -0.6236 -0.2069
 4736TIP3    H135623   1.415   3.602  17.059 -1.3724  0.5330 -0.5160
 4736TIP3    H235624   1.528   3.623  17.157 -0.1325 -0.5578 -1.6577
 4737TIP3   OH235625   6.260   2.770  13.187 -0.4105  0.0250 -0.4511
 4737TIP3    H135626   6.276   2.676  13.176 -0.0210  0.2189 -1.6690
 4737TIP3    H235627   6.343   2.806  13.217 -0.3678  0.0775 -0.6294
 4738TIP3   OH235628   1.646   3.964   0.243 -0.3712  0.9743 -0.0712
 4738TIP3    H135629   1.587   3.900   0.282  0.4618  0.5967  0.5971
 4738TIP3    H235630   1.642   4.039   0.303 -1.2988  1.5640 -0.8190
 4739TIP3   OH235631   4.764   6.417   1.584 -0.4295  0.4078  0.3372
 4739TIP3    H135632   4.755   6.372   1.500  1.8095 -0.8995  0.7098
 4739TIP3    H235633   4.701   6.373   1.641  0.5214 -1.1568  0.2385
 4740TIP3   OH235634   3.573   2.321  13.486 -0.1441 -0.2446  0.6696
 4740TIP3    H135635   3.589   2.398  13.431 -1.5661 -0.8511 -0.7021
 4740TIP3    H235636   3.598   2.246  13.431 -0.3112 -0.8222  1.3580
 4741TIP3   OH235637   5.089   2.710   2.589  0.3168  0.0372 -1.5679
 4741TIP3    H135638   5.170   2.697   2.540  0.7689  1.4899 -1.2656
 4741TIP3    H235639   5.082   2.805   2.599 -0.6044 -0.1371 -0.2218
 4742TIP3   OH235640   1.020   4.953   2.598 -0.4443  0.2048 -0.2173
 4742TIP3    H135641   1.011   4.878   2.657 -0.6689 -0.9651 -1.6668
 4742TIP3    H235642   1.077   5.014   2.645 -1.1312 -0.3808  1.4583
 4743TIP3   OH235643   5.502   6.340  14.079  0.5728 -0.1910 -0.1466
 4743TIP3    H135644   5.514   6.307  14.168  1.9025 -0.4510 -0.4055
 4743TIP3    H235645   5.459   6.267  14.033  0.6444 -0.3730  0.0716
 4744TIP3   OH235646   0.061   3.725   4.334 -0.9712  0.7535  0.1598
 4744TIP3    H135647  -0.001   3.737   4.406 -1.6371  0.1924 -0.3051
 4744TIP3    H235648   0.006   3.710   4.257 -0.2558  0.1684 -0.2542
 4745TIP3   OH235649   4.498   1.649  11.163  0.2570  0.5176 -0.7197
 4745TIP3    H135650   4.503   1.743  11.146 -1.6873  0.7395 -0.2513
 4745TIP3    H235651   4.458   1.613  11.085  0.8612  0.0849 -0.8341
 4746TIP3   OH235652   5.453   5.925  16.682  0.1449  0.7409 -0.3114
 4746TIP3    H135653   5.397   5.903  16.608 -2.1879 -0.3320  1.6571
 4746TIP3    H235654   5.538   5.886  16.660 -1.1480 -1.6907 -1.3699
 4747TIP3   OH235655   6.303   4.512  16.580  0.2913 -0.0859  0.2398
 4747TIP3    H135656   6.330   4.604  16.578 -0.6259  0.1989  0.2100
 4747TIP3    H235657   6.219   4.513  16.627 -0.2149 -0.7812 -0.6229
 4748TIP3   OH235658   1.403   2.480  12.552  0.3725 -0.5023 -0.5584
 4748TIP3    H135659   1.485   2.485  12.503  0.5173  2.1670 -0.1486
 4748TIP3    H235660   1.421   2.417  12.622  1.0193 -2.3095 -2.2563
 4749TIP3   OH235661   4.350   1.533   1.778 -0.2885 -0.1424  0.4012
 4749TIP3    H135662   4.400   1.611   1.754 -1.7845  0.2414 -1.7828
 4749TIP3    H235663   4.414   1.462   1.775  0.4185  0.5080 -1.1315
 4750TIP3   OH235664   4.936   2.348  16.124 -0.0473 -0.3211 -0.1775
 4750TIP3    H135665   4.856   2.400  16.133  0.4262  0.2172  1.1482
 4750TIP3    H235666   4.936   2.319  16.033 -0.3259  2.0345 -0.9975
 4751TIP3   OH235667   6.665   4.697  14.616 -0.2047  0.3662  0.2285
 4751TIP3    H135668   6.711   4.768  14.662 -0.5919 -0.1061  1.3873
 4751TIP3    H235669   6.595   4.672  14.676 -1.0756  0.0867 -0.8797
 4752TIP3   OH235670   2.887   4.644   0.015  0.6420 -0.4707 -0.5177
 4752TIP3    H135671   2.897   4.721   0.071 -0.8510  1.4456 -2.6929
 4752TIP3    H235672   2.957   4.653  -0.049 -0.7543  0.2876 -2.0057
 4753TIP3   OH235673   4.478   1.352   1.955  0.1913 -0.1178 -0.5867
 4753TIP3    H135674   4.436   1.380   2.037  3.3941  1.2027  0.7826
 4753TIP3    H235675   4.505   1.262   1.973  0.6969  0.0954 -0.2672
 4754TIP3   OH235676   2.887   2.568  14.018 -0.3380  0.0050  0.4691
 4754TIP3    H135677   2.821   2.504  14.044 -1.6035  1.6142  1.4455
 4754TIP3    H235678   2.894   2.627  14.094  0.2757  1.4003 -0.6205
 4755TIP3   OH235679   1.319   4.567   1.856 -0.2381 -0.0985  0.2234
 4755TIP3    H135680   1.256   4.574   1.928 -1.8744  2.3790 -1.2930
 4755TIP3    H235681   1.285   4.496   1.801 -0.8715  0.2086  0.2061
 4756TIP3   OH235682   6.574   0.037  13.439  0.4334  0.0848  0.0423
 4756TIP3    H135683   6.516   0.027  13.363 -1.4588 -0.9279  1.5468
 4756TIP3    H235684   6.599   0.129  13.438 -1.6634  0.6954 -0.3592
 4757TIP3   OH235685   3.073   1.895   5.283 -0.1240  0.0172  0.0006
 4757TIP3    H135686   3.118   1.943   5.213  0.2858 -0.3158  0.0319
 4757TIP3    H235687   3.105   1.935   5.364  0.4855 -0.5333  0.0377
 4758TIP3   OH235688   4.846   2.350   1.632  0.4468 -0.2748  0.0179
 4758TIP3    H135689   4.768   2.388   1.591  0.9022  0.1376 -0.4847
 4758TIP3    H235690   4.875   2.416   1.695  0.0244 -0.7064  0.6838
 4759TIP3   OH235691   1.193   1.728   1.235 -0.1899  0.1063 -0.6253
 4759TIP3    H135692   1.197   1.819   1.266  1.3228 -0.7077  1.8389
 4759TIP3    H235693   1.240   1.678   1.302  0.6169 -2.2774 -2.8117
 4760TIP3   OH235694   0.505   4.353   1.381 -0.0581  0.1268  0.3534
 4760TIP3    H135695   0.466   4.431   1.421 -0.4316 -0.0586  0.3595
 4760TIP3    H235696   0.556   4.386   1.307  0.4691  0.4569  0.8500
 4761TIP3   OH235697   5.948   2.847  14.474 -0.3099 -0.0680 -0.0576
 4761TIP3    H135698   5.983   2.760  14.496 -2.3170 -1.0122 -0.4093
 4761TIP3    H235699   5.879   2.830  14.410  1.9783  2.1535 -3.4542
 4762TIP3   OH235700   3.902   3.506   3.383  0.8916  0.0464 -0.0055
 4762TIP3    H135701   3.890   3.547   3.469  1.4644  1.2055 -0.4551
 4762TIP3    H235702   3.906   3.580   3.322  0.3548 -0.7613 -1.0575
 4763TIP3   OH235703   1.559   3.898   3.306  0.4092 -0.5020 -0.0456
 4763TIP3    H135704   1.534   3.931   3.220  1.0790 -0.4003 -0.2063
 4763TIP3    H235705   1.500   3.942   3.367  1.2395  0.9578 -0.2599
 4764TIP3   OH235706   2.691   6.263  10.527  0.7706 -0.5866 -0.1744
 4764TIP3    H135707   2.711   6.355  10.547 -1.1602 -0.5607  1.9841
 4764TIP3    H235708   2.731   6.214  10.599  0.5393 -1.3080 -0.5306
 4765TIP3   OH235709   2.400   2.832   4.917 -0.0914 -0.1261  0.9820
 4765TIP3    H135710   2.441   2.763   4.865  0.1496  0.6691  0.0731
 4765TIP3    H235711   2.425   2.913   4.872 -1.4392  0.4756  1.2635
 4766TIP3   OH235712   2.291   4.644  14.997  0.4810 -0.0236  0.0652
 4766TIP3    H135713   2.211   4.592  15.011  0.8492 -0.8335 -0.7989
 4766TIP3    H235714   2.361   4.580  14.996  1.1648  0.6924  0.8564
 4767TIP3   OH235715   4.568   4.934  11.796  0.0737 -0.1161  0.0005
 4767TIP3    H135716   4.567   5.029  11.803 -1.0428 -0.1651  0.6926
 4767TIP3    H235717   4.642   4.906  11.849 -2.4206  0.1191  3.9791
 4768TIP3   OH235718   4.263   2.940   5.166  0.5050  0.1450 -0.1874
 4768TIP3    H135719   4.214   2.889   5.100  1.2720 -1.2920  0.3092
 4768TIP3    H235720   4.336   2.977   5.117  1.5643 -1.6277 -0.0325
 4769TIP3   OH235721   6.274   2.735   0.427  0.8003  0.4364  0.5386
 4769TIP3    H135722   6.326   2.813   0.407  0.4547  0.1696 -1.6658
 4769TIP3    H235723   6.183   2.764   0.419  0.6506 -0.5194 -2.0933
 4770TIP3   OH235724   0.621   2.674  16.721 -0.2083  0.2093 -0.1268
 4770TIP3    H135725   0.595   2.691  16.631 -0.8604 -0.6111 -0.0984
 4770TIP3    H235726   0.664   2.589  16.719 -1.6200 -0.5553  0.5770
 4771TIP3   OH235727   3.216   0.886  16.633 -0.1474  0.0379 -0.3974
 4771TIP3    H135728   3.240   0.843  16.715  0.4907  1.8592  0.3949
 4771TIP3    H235729   3.287   0.948  16.616 -1.1453  0.9491 -1.3915
 4772TIP3   OH235730   4.965   3.437   6.236 -0.2642 -0.2299  0.3289
 4772TIP3    H135731   4.958   3.404   6.326 -2.5614  0.6169  0.5194
 4772TIP3    H235732   4.937   3.528   6.242  0.5865  0.1593 -1.1085
 4773TIP3   OH235733   4.612   2.781  15.927  0.8876  0.4453  0.2109
 4773TIP3    H135734   4.617   2.860  15.982 -1.7038  0.7413  0.1755
 4773TIP3    H235735   4.525   2.745  15.946  0.9897 -0.9585 -1.7123
 4774TIP3   OH235736   4.116   4.385   2.143 -0.1499 -0.3877  0.0981
 4774TIP3    H135737   4.022   4.397   2.160 -0.6653 -3.2214 -0.3445
 4774TIP3    H235738   4.132   4.432   2.061 -1.6392 -1.4832 -0.8557
 4775TIP3   OH235739   1.576   0.738  15.449  0.8711  0.4618 -0.4477
 4775TIP3    H135740   1.672   0.746  15.456  0.9546  0.0964 -1.1028
 4775TIP3    H235741   1.556   0.660  15.501  0.7344  1.4125  0.9922
 4776TIP3   OH235742   0.714   2.667   5.491 -0.0375  0.0374 -0.5573
 4776TIP3    H135743   0.757   2.721   5.557  0.9136  0.0952 -1.2080
 4776TIP3    H235744   0.780   2.604   5.464 -1.1968 -1.6376  0.3423
 4777TIP3   OH235745   6.660   1.264  14.187  0.5879  0.0693 -0.1295
 4777TIP3    H135746   6.602   1.197  14.222  1.1185 -1.0436 -1.2914
 4777TIP3    H235747   6.705   1.300  14.263 -0.7843  0.1696  0.6661
 4778TIP3   OH235748   6.250   0.745   2.913  0.5197 -0.0938 -0.0767
 4778TIP3    H135749   6.327   0.694   2.890  0.5098  0.2997 -1.0675
 4778TIP3    H235750   6.178   0.682   2.913  0.8800 -0.5164  1.1576
 4779TIP3   OH235751   4.026   1.604  14.210  0.0554 -0.1433  0.4347
 4779TIP3    H135752   3.996   1.684  14.166 -2.4241 -0.4406  1.3708
 4779TIP3    H235753   4.121   1.607  14.204 -0.0564  1.1649 -2.4857
 4780TIP3   OH235754   3.827   0.029   0.215 -0.1743  0.0902  0.1617
 4780TIP3    H135755   3.838   0.036   0.310 -0.3355 -0.1659  0.2015
 4780TIP3    H235756   3.915   0.036   0.179  0.2292 -2.3999  0.4961
 4781TIP3   OH235757   2.692   5.176   5.181 -0.6466  0.0745 -0.4167
 4781TIP3    H135758   2.727   5.087   5.173  2.3669  1.1949 -1.0573
 4781TIP3    H235759   2.767   5.233   5.164 -1.5630  2.8079  3.3647
 4782TIP3   OH235760   3.644   5.150  14.968 -0.4384  0.0844  0.1045
 4782TIP3    H135761   3.665   5.057  14.975 -0.0059 -0.0112 -1.9178
 4782TIP3    H235762   3.588   5.157  14.891 -0.4110  1.5093  0.1886
 4783TIP3   OH235763   6.773   0.376   2.557  0.7317 -0.3833  0.7203
 4783TIP3    H135764   6.860   0.360   2.519  0.0525 -0.7372 -0.7783
 4783TIP3    H235765   6.785   0.455   2.611  1.4444  1.2067 -1.5828
 4784TIP3   OH235766   5.649   2.650   4.293 -0.0134  0.2070 -0.2703
 4784TIP3    H135767   5.585   2.649   4.221 -1.4432 -0.6717  0.9444
 4784TIP3    H235768   5.722   2.700   4.259 -0.1497 -1.0912 -2.7630
 4785TIP3   OH235769   5.063   2.159   3.466  0.6546  0.3038 -0.3657
 4785TIP3    H135770   5.121   2.155   3.542 -2.1475  0.1127  1.9374
 4785TIP3    H235771   5.043   2.253   3.457 -1.1433  0.1201  1.0109
 4786TIP3   OH235772   1.646   0.583   4.215 -0.1749 -0.5166  0.1334
 4786TIP3    H135773   1.677   0.622   4.297  0.2504 -0.2293 -0.1581
 4786TIP3    H235774   1.551   0.576   4.227 -0.1208 -0.4651  0.6438
 4787TIP3   OH235775   0.227   3.782  10.492 -0.2806 -0.4832  0.1739
 4787TIP3    H135776   0.179   3.826  10.563 -2.2980 -0.4677 -1.1112
 4787TIP3    H235777   0.290   3.848  10.462 -1.0919  0.4164  0.3654
 4788TIP3   OH235778   1.154   1.366  13.913 -0.1322  0.0039 -0.4398
 4788TIP3    H135779   1.226   1.361  13.975 -0.8380  2.5866  0.7262
 4788TIP3    H235780   1.085   1.312  13.951  0.9253 -2.0517 -1.3002
 4789TIP3   OH235781   0.131   1.716   2.014  0.0127  0.1645  0.2877
 4789TIP3    H135782   0.177   1.782   2.067 -1.3035  0.3329  1.2747
 4789TIP3    H235783   0.110   1.646   2.076 -0.6310 -0.1265 -0.2454
 4790TIP3   OH235784   2.721   5.754  12.112  0.2877  0.9772 -0.0729
 4790TIP3    H135785   2.728   5.663  12.143  0.9690  0.6052 -1.2674
 4790TIP3    H235786   2.713   5.805  12.193  2.7093  0.1130  0.8189
 4791TIP3   OH235787   6.649   4.978  17.071 -0.5049 -0.2066  0.3815
 4791TIP3    H135788   6.715   4.961  17.004  0.9469 -0.6242  1.8305
 4791TIP3    H235789   6.565   4.964  17.027  0.3238  1.0526 -1.7139
 4792TIP3   OH235790   5.158   4.561  16.492  0.6239 -0.1939 -0.1560
 4792TIP3    H135791   5.211   4.597  16.564  1.5449 -1.5044 -0.1456
 4792TIP3    H235792   5.070   4.555  16.527  0.4426  1.8909 -0.1149
 4793TIP3   OH235793   4.895   1.720  10.636  0.3440  0.1858 -0.3717
 4793TIP3    H135794   4.865   1.646  10.689 -0.2833 -0.9301 -2.1710
 4793TIP3    H235795   4.976   1.688  10.596  1.7848  1.6658  1.2387
 4794TIP3   OH235796   4.116   2.448   6.575  0.3658  0.0661 -0.7300
 4794TIP3    H135797   4.199   2.469   6.532  1.2125 -2.6072 -0.5746
 4794TIP3    H235798   4.089   2.365   6.535 -1.6664  0.3103  0.0313
 4795TIP3   OH235799   0.284   6.458   2.282 -0.0848 -0.2318  0.2313
 4795TIP3    H135800   0.341   6.403   2.228 -0.0068  1.8440 -2.0254
 4795TIP3    H235801   0.196   6.444   2.247 -0.0376  1.1150 -0.5334
 4796TIP3   OH235802   0.202   3.854   6.330 -0.2909  0.8481 -0.6784
 4796TIP3    H135803   0.213   3.799   6.408  2.2679  0.5273 -1.1641
 4796TIP3    H235804   0.127   3.910   6.350 -0.9269 -0.5702  1.1835
 4797TIP3   OH235805   4.198   6.599   3.351 -0.0879  0.0621  0.5922
 4797TIP3    H135806   4.269   6.544   3.320 -0.6713 -0.0985 -0.4862
 4797TIP3    H235807   4.171   6.559   3.434  0.3762 -0.4776  0.4865
 4798TIP3   OH235808   2.459   1.199  15.893  0.2639 -0.4044  0.1326
 4798TIP3    H135809   2.429   1.198  15.802 -1.2798 -0.8577  0.6054
 4798TIP3    H235810   2.472   1.291  15.913 -3.3400  0.1345  0.6086
 4799TIP3   OH235811   0.177   2.989   1.265 -0.3957 -0.2006 -0.1243
 4799TIP3    H135812   0.206   2.958   1.351  0.4419 -1.9911 -0.9957
 4799TIP3    H235813   0.137   2.912   1.224 -0.4982  0.5311 -1.4613
 4800TIP3   OH235814   2.847   5.622   0.605 -0.2424 -0.3043  0.0453
 4800TIP3    H135815   2.802   5.666   0.677 -1.2996 -1.7250  0.3088
 4800TIP3    H235816   2.794   5.641   0.528 -1.2587 -1.8133  0.3213
 4801TIP3   OH235817   1.980   1.648  14.218  0.2759  0.0915  0.4927
 4801TIP3    H135818   2.013   1.693  14.141  2.2883 -0.9245  0.6951
 4801TIP3    H235819   1.933   1.715  14.267 -2.4418  0.4430 -2.2708
 4802TIP3   OH235820   1.930   5.180  11.117 -0.1998 -0.5580  0.1050
 4802TIP3    H135821   1.951   5.197  11.209 -1.7890 -1.3602  0.6688
 4802TIP3    H235822   1.986   5.107  11.092  1.0664  0.3927  0.0461
 4803TIP3   OH235823   6.597   3.946  15.087  0.4418  0.2727  0.4455
 4803TIP3    H135824   6.635   4.020  15.039  1.7029  0.6643  1.9547
 4803TIP3    H235825   6.668   3.881  15.091 -0.6022 -0.9899 -0.7173
 4804TIP3   OH235826   2.396   5.263   4.034 -0.6802  0.0862 -0.2249
 4804TIP3    H135827   2.340   5.278   3.958 -2.3580  0.4161  1.0203
 4804TIP3    H235828   2.368   5.179   4.069 -0.7196  0.4656  0.6824
 4805TIP3   OH235829   3.050   1.283   3.985 -0.2381 -0.1988  0.2006
 4805TIP3    H135830   3.140   1.250   3.979  0.4761  1.3458  1.7524
 4805TIP3    H235831   3.030   1.313   3.896  1.3856  0.9064  0.1653
 4806TIP3   OH235832   1.647   0.162   4.308 -0.2164  0.7249  0.1615
 4806TIP3    H135833   1.709   0.234   4.321  0.6497  0.1352 -0.5839
 4806TIP3    H235834   1.618   0.171   4.218  0.2675 -0.1279 -0.0894
 4807TIP3   OH235835   5.416   0.282   3.414 -0.4621  0.1190  0.5776
 4807TIP3    H135836   5.407   0.342   3.488  3.5113 -0.8796  2.1294
 4807TIP3    H235837   5.393   0.196   3.449  0.5879 -0.2343  0.4472
 4808TIP3   OH235838   3.085   2.504  15.954  0.7249  0.2188  0.8074
 4808TIP3    H135839   3.016   2.570  15.944  0.4821 -0.2952 -1.3640
 4808TIP3    H235840   3.161   2.553  15.985  0.3809  1.4345 -0.2018
 4809TIP3   OH235841   4.931   2.093  15.670 -0.4484 -0.0655 -0.3299
 4809TIP3    H135842   4.913   2.092  15.764 -0.9065 -0.7000 -0.4223
 4809TIP3    H235843   4.979   2.012  15.653  0.3822  0.4482 -0.5071
 4810TIP3   OH235844   1.356   0.932  16.989  0.1611 -0.1982 -0.2545
 4810TIP3    H135845   1.291   1.001  16.981 -0.1796 -0.2996  1.3809
 4810TIP3    H235846   1.434   0.967  16.945 -0.4045  0.6903 -0.5677
 4811TIP3   OH235847   2.800   6.740   0.889 -0.2775 -0.8463 -0.3597
 4811TIP3    H135848   2.770   6.784   0.968  1.2414 -0.3425 -0.0280
 4811TIP3    H235849   2.896   6.743   0.895 -0.1373 -2.3867 -1.3412
 4812TIP3   OH235850   2.939   2.073   2.593 -0.2522  0.1299  0.0433
 4812TIP3    H135851   2.955   1.981   2.571 -0.2162  0.0793  0.2841
 4812TIP3    H235852   2.844   2.081   2.595 -0.2595 -0.0842  0.7868
 4813TIP3   OH235853   2.620   0.580   2.630 -0.1159  0.2629  0.5551
 4813TIP3    H135854   2.596   0.669   2.605  0.9436  0.2035 -0.8085
 4813TIP3    H235855   2.714   0.584   2.647  0.5824 -1.0532 -2.2229
 4814TIP3   OH235856   3.948   3.366  13.967  0.4722 -0.3510  0.1323
 4814TIP3    H135857   4.022   3.324  13.923  0.0996 -0.1702 -0.6947
 4814TIP3    H235858   3.985   3.403  14.047  1.6339  1.1277 -1.0357
 4815TIP3   OH235859   5.246   4.283  13.331  0.4998 -0.0673  0.0608
 4815TIP3    H135860   5.264   4.246  13.417  0.2121  1.9364  1.0346
 4815TIP3    H235861   5.151   4.297  13.330  0.7061  1.4798  0.1051
 4816TIP3   OH235862   2.664   0.696   1.385  0.1069 -0.0869  0.2474
 4816TIP3    H135863   2.586   0.710   1.438 -0.3559  0.6003 -0.5917
 4816TIP3    H235864   2.714   0.630   1.433 -1.6247 -1.5571  0.1152
 4817TIP3   OH235865   1.965   1.176   1.420 -0.2697 -0.5602 -0.1835
 4817TIP3    H135866   1.922   1.261   1.429 -0.3142 -0.6266  0.2416
 4817TIP3    H235867   1.902   1.121   1.374 -0.2726 -0.3866 -0.3866
 4818TIP3   OH235868   3.570   0.254  16.873  0.1284  0.0981 -0.0298
 4818TIP3    H135869   3.504   0.281  16.937  1.1373  1.5351  0.4341
 4818TIP3    H235870   3.650   0.241  16.924  0.3194 -1.3628 -0.6291
 4819TIP3   OH235871   1.973   0.533   1.549 -0.4707  0.7084 -0.3022
 4819TIP3    H135872   1.886   0.522   1.511 -0.1405 -1.4116 -0.5418
 4819TIP3    H235873   2.015   0.600   1.494 -1.3973  0.6099 -1.1485
 4820TIP3   OH235874   2.657   4.743  15.175  0.2225 -0.2050  0.5440
 4820TIP3    H135875   2.732   4.803  15.179  0.1986 -0.1992  0.9392
 4820TIP3    H235876   2.645   4.726  15.082  0.8975 -0.4298  0.4931
 4821TIP3   OH235877   5.332   3.685   1.648  0.0859  0.7629  0.2799
 4821TIP3    H135878   5.381   3.603   1.650  1.4464  1.5004 -1.0252
 4821TIP3    H235879   5.242   3.659   1.628  0.3166 -0.4530  0.7114
 4822TIP3   OH235880   5.398   0.377  13.552 -0.2651 -0.0502 -0.1653
 4822TIP3    H135881   5.335   0.376  13.481 -0.4608 -0.2548  0.0110
 4822TIP3    H235882   5.355   0.427  13.621 -0.3102 -0.3442  0.0223
 4823TIP3   OH235883   0.818   6.020  13.184  0.0708  0.5700 -0.0059
 4823TIP3    H135884   0.885   6.017  13.253  0.2938  0.3855 -0.2280
 4823TIP3    H235885   0.807   5.928  13.158  1.8147  0.8595 -1.9686
 4824TIP3   OH235886   5.176   2.380   2.351  1.1973  0.2363  0.3631
 4824TIP3    H135887   5.159   2.319   2.279  2.0211  0.2798  0.1195
 4824TIP3    H235888   5.091   2.393   2.392  0.7968 -0.1441 -0.3266
 4825TIP3   OH235889   1.078   5.177  15.457  0.0403  0.3928  0.2429
 4825TIP3    H135890   1.028   5.103  15.422 -1.1188  2.2776 -2.4019
 4825TIP3    H235891   1.168   5.145  15.461 -0.2897 -0.9351 -1.6123
 4826TIP3   OH235892   3.435   2.962  13.964 -0.3163 -0.5145  0.1582
 4826TIP3    H135893   3.418   3.029  13.899  1.2288  0.7793  0.9912
 4826TIP3    H235894   3.360   2.966  14.024 -0.4412  0.1862 -0.0389
 4827TIP3   OH235895   2.168   3.495  16.548 -0.7358 -0.3298 -0.5590
 4827TIP3    H135896   2.218   3.547  16.486 -0.0863 -0.0001  0.2102
 4827TIP3    H235897   2.151   3.555  16.621  1.2809 -1.5188  1.0011
 4828TIP3   OH235898   4.854   3.177  13.450 -0.1367  0.5942 -0.4581
 4828TIP3    H135899   4.825   3.101  13.400  0.8358 -0.5594  0.6524
 4828TIP3    H235900   4.948   3.182  13.433 -0.2165  1.6754 -0.6644
 4829TIP3   OH235901   2.598   5.296  12.959 -0.2858  0.2921  0.0119
 4829TIP3    H135902   2.521   5.309  13.014  0.2890 -0.9679  1.1784
 4829TIP3    H235903   2.566   5.304  12.870 -1.0715  3.3689  0.4530
 4830TIP3   OH235904   4.212   1.393   2.504 -0.4232 -0.0924  0.1068
 4830TIP3    H135905   4.294   1.417   2.462 -0.8095 -2.9151 -2.6426
 4830TIP3    H235906   4.151   1.463   2.479  0.4393  0.5345 -0.2888
 4831TIP3   OH235907   2.228   5.125   0.350  0.4351 -0.1215  0.4935
 4831TIP3    H135908   2.273   5.073   0.283 -0.4440  0.0455 -0.2381
 4831TIP3    H235909   2.298   5.178   0.389  0.9058  0.0684 -0.5657
 4832TIP3   OH235910   2.380   1.927  13.384  0.0616 -0.3869 -0.2612
 4832TIP3    H135911   2.312   1.969  13.330 -1.2551  0.2342  1.7508
 4832TIP3    H235912   2.427   2.001  13.423 -1.0658 -0.7270  1.8599
 4833TIP3   OH235913   0.964   6.016   1.381  0.1375 -0.1212 -0.0903
 4833TIP3    H135914   0.977   5.992   1.473  0.4375 -1.1067 -0.3862
 4833TIP3    H235915   0.954   6.111   1.383 -1.1848 -0.2587  1.1124
 4834TIP3   OH235916   0.329   4.732  15.742 -0.0111 -0.0966 -0.0606
 4834TIP3    H135917   0.373   4.817  15.746  2.0536 -1.0710 -0.5144
 4834TIP3    H235918   0.247   4.745  15.789  0.4760  1.9956  0.3153
 4835TIP3   OH235919   6.489   5.859  11.553 -0.0055 -0.2900 -0.6293
 4835TIP3    H135920   6.404   5.863  11.508  0.0124 -0.1031 -0.6493
 4835TIP3    H235921   6.471   5.810  11.633  0.0558 -1.0069 -1.0454
 4836TIP3   OH235922   3.348   0.580   0.239 -0.3785 -0.2988  0.2293
 4836TIP3    H135923   3.383   0.657   0.284 -1.5676 -0.6384  1.8276
 4836TIP3    H235924   3.264   0.563   0.282 -0.8474 -1.6066 -1.1060
 4837TIP3   OH235925   6.427   4.387   1.504 -0.5669 -0.2033  0.0542
 4837TIP3    H135926   6.361   4.318   1.504 -0.7341 -0.0533  0.7975
 4837TIP3    H235927   6.436   4.412   1.596 -0.4896  0.7370 -0.1909
 4838TIP3   OH235928   1.844   1.803   1.778 -0.2079 -0.3384  0.4190
 4838TIP3    H135929   1.784   1.763   1.715 -2.3053  2.6894  0.2316
 4838TIP3    H235930   1.928   1.807   1.732 -1.1589 -0.1686 -1.3979
 4839TIP3   OH235931   3.455   6.005  12.012  0.5288 -0.2626  0.3239
 4839TIP3    H135932   3.498   6.090  12.010  1.4855 -0.7454  0.1407
 4839TIP3    H235933   3.501   5.953  11.947 -1.6056 -0.2113 -1.3764
 4840TIP3   OH235934   1.173   0.460   0.705  0.0122  1.1284 -0.1981
 4840TIP3    H135935   1.238   0.527   0.727  0.0712  1.1459 -0.4308
 4840TIP3    H235936   1.097   0.481   0.760  0.0232  1.3982 -0.2885
 4841TIP3   OH235937   2.748   6.171  12.442 -0.2546  0.1201 -0.4105
 4841TIP3    H135938   2.833   6.170  12.487 -0.0692  1.8300 -0.6584
 4841TIP3    H235939   2.718   6.261  12.451 -1.9495 -0.4060 -0.5501
 4842TIP3   OH235940   3.907   6.312  12.302  0.0499 -0.0395  0.0711
 4842TIP3    H135941   3.849   6.341  12.373 -1.9745 -1.6895 -0.7772
 4842TIP3    H235942   3.851   6.313  12.224  1.9473  0.7949 -1.3429
 4843TIP3   OH235943   0.654   6.592  16.851 -0.1574  0.5051 -0.1713
 4843TIP3    H135944   0.692   6.571  16.766 -1.5001 -1.4228 -0.3428
 4843TIP3    H235945   0.720   6.563  16.914  0.7750  1.8078 -0.4939
 4844TIP3   OH235946   4.359   0.062   0.952  0.1451  0.3073  0.0069
 4844TIP3    H135947   4.342   0.100   0.866  0.0347  1.0607  0.3529
 4844TIP3    H235948   4.274   0.025   0.979 -0.0676  0.9242  0.2021
 4845TIP3   OH235949   4.738   6.677   5.693 -0.0867  0.1471 -0.2016
 4845TIP3    H135950   4.688   6.676   5.775  0.7608 -0.5074  0.3239
 4845TIP3    H235951   4.776   6.589   5.687  1.6474  0.8585 -0.1657
 4846TIP3   OH235952   1.762   2.350   2.252 -0.0223 -0.5567 -0.3590
 4846TIP3    H135953   1.789   2.280   2.310  0.8610  0.3658  0.3724
 4846TIP3    H235954   1.762   2.311   2.165  1.9571 -1.0811 -0.1625
 4847TIP3   OH235955   2.833   5.162  12.783  0.6333 -0.0827  0.0604
 4847TIP3    H135956   2.750   5.120  12.765 -0.3514  1.1583  1.4228
 4847TIP3    H235957   2.899   5.094  12.768 -0.6909 -1.3811 -0.0781
 4848TIP3   OH235958   6.516   6.206  12.539  0.6012 -0.6095  0.2692
 4848TIP3    H135959   6.543   6.189  12.630  1.4346  0.4739  0.2419
 4848TIP3    H235960   6.568   6.145  12.487  1.2263 -0.2062  0.4109
 4849TIP3   OH235961   1.358   3.125   2.256 -0.3378 -0.1986  0.2038
 4849TIP3    H135962   1.378   3.037   2.223 -1.0735 -0.3642  0.1861
 4849TIP3    H235963   1.285   3.112   2.315 -1.8240  0.6693 -1.3645
 4850TIP3   OH235964   2.497   5.943  12.841  0.0725  0.2242  0.6761
 4850TIP3    H135965   2.470   5.927  12.931 -1.6486 -2.3251 -0.1629
 4850TIP3    H235966   2.414   5.946  12.792  0.7255  4.2998 -0.5826
 4851TIP3   OH235967   2.378   4.490  13.395 -0.0082  0.4361 -0.2072
 4851TIP3    H135968   2.294   4.529  13.372 -2.0295 -2.5689  1.3409
 4851TIP3    H235969   2.388   4.509  13.489 -1.0434 -2.3600  0.5912
 4852TIP3   OH235970   6.389   0.492  11.118 -0.3911 -0.5477  0.4361
 4852TIP3    H135971   6.392   0.524  11.028 -0.6363 -0.5236  0.4358
 4852TIP3    H235972   6.339   0.410  11.113 -0.3613 -0.5726  0.5431
 4853TIP3   OH235973   5.854   3.217   1.959  0.2496 -0.5131  0.2153
 4853TIP3    H135974   5.916   3.227   2.031 -0.0208  0.4521  0.3366
 4853TIP3    H235975   5.909   3.221   1.880  0.3729  0.2507  0.3240
 4854TIP3   OH235976   2.460   6.409   0.686 -0.0651  0.0722  0.6058
 4854TIP3    H135977   2.453   6.393   0.780  0.1389  2.0081  1.0045
 4854TIP3    H235978   2.502   6.495   0.680 -1.3498  0.6248 -1.2310
 4855TIP3   OH235979   0.541   1.770   3.639 -0.2539 -0.5014  0.1589
 4855TIP3    H135980   0.447   1.785   3.626  0.1006  0.6703 -1.3374
 4855TIP3    H235981   0.556   1.792   3.731 -1.3232 -0.0196  0.2334
 4856TIP3   OH235982   4.024   4.841  13.348  0.0412 -0.5740  0.4953
 4856TIP3    H135983   4.094   4.789  13.388  2.3384  0.7723 -1.4971
 4856TIP3    H235984   4.031   4.822  13.254  0.0023  2.0933 -0.1321
 4857TIP3   OH235985   4.893   1.039  13.384  0.1251 -0.5755 -0.1116
 4857TIP3    H135986   4.814   1.086  13.413  2.3194  1.5403  3.0645
 4857TIP3    H235987   4.860   0.953  13.357 -3.3756  0.5864 -0.1141
 4858TIP3   OH235988   6.578   0.703   5.716 -0.3468  0.5923 -0.4490
 4858TIP3    H135989   6.559   0.795   5.699 -0.2693  0.3625 -1.9624
 4858TIP3    H235990   6.577   0.695   5.811 -1.9540  1.8146 -0.3190
 4859TIP3   OH235991   5.945   0.708   5.863 -0.5398 -0.7030 -0.6291
 4859TIP3    H135992   6.013   0.673   5.921 -0.3829  1.0021  0.2654
 4859TIP3    H235993   5.990   0.774   5.810 -1.3877  0.1452 -0.3246
 4860TIP3   OH235994   0.780   1.596   4.980 -0.1025  0.2225 -0.5016
 4860TIP3    H135995   0.766   1.570   5.071 -2.7021 -1.2274 -1.1894
 4860TIP3    H235996   0.873   1.619   4.974  1.0495 -3.2273  1.6589
 4861TIP3   OH235997   1.092   0.006  16.341 -0.2804  0.5431  0.1368
 4861TIP3    H135998   1.094   0.089  16.292  0.1072 -0.6728 -2.0433
 4861TIP3    H235999   1.174  -0.037  16.318  1.0967  0.8561  3.8289
 4862TIP3   OH236000   0.776   2.719  11.315  0.2993  0.2825 -0.0620
 4862TIP3    H136001   0.713   2.676  11.257  1.2163  0.0736 -0.9175
 4862TIP3    H236002   0.730   2.725  11.399 -1.0592  0.5883 -0.7859
 4863TIP3   OH236003   6.252   5.058   3.224  0.4267 -0.5666 -0.5315
 4863TIP3    H136004   6.199   4.985   3.255  1.7764 -0.8833  1.1835
 4863TIP3    H236005   6.307   5.021   3.154 -0.9309 -0.4366 -1.7134
 4864TIP3   OH236006   4.073   5.936  12.501  0.4975  0.1515 -0.3571
 4864TIP3    H136007   4.103   6.016  12.460  2.3082  0.3218  1.1495
 4864TIP3    H236008   4.151   5.880  12.504  0.5425  0.2098  2.8435
 4865TIP3   OH236009   5.578   1.897  17.003 -0.0259 -0.0916 -0.4221
 4865TIP3    H136010   5.530   1.955  17.061 -0.4634 -0.1431 -0.7244
 4865TIP3    H236011   5.661   1.881  17.047 -0.0758  0.4208 -0.1382
 4866TIP3   OH236012   5.555   6.332   3.404 -0.0540  0.5328 -0.0795
 4866TIP3    H136013   5.624   6.376   3.454  0.3249 -0.2059  0.0702
 4866TIP3    H236014   5.490   6.308   3.469 -0.3782  1.0853 -0.1970
 4867TIP3   OH236015   5.145   1.458   0.933 -0.2567  0.5273 -0.0028
 4867TIP3    H136016   5.113   1.371   0.912 -0.8768  0.3987  1.3712
 4867TIP3    H236017   5.153   1.503   0.849  2.6306 -1.6619 -1.0714
 4868TIP3   OH236018   0.066   5.300  15.934  0.1686 -0.2969  0.4474
 4868TIP3    H136019  -0.027   5.282  15.943  0.1345 -1.0910 -1.1114
 4868TIP3    H236020   0.074   5.342  15.849  1.2230 -0.2095  0.5795
 4869TIP3   OH236021   0.262   1.986  11.687  0.3389 -0.0693 -0.6027
 4869TIP3    H136022   0.329   1.954  11.748 -0.1267  0.3737  0.1624
 4869TIP3    H236023   0.295   1.963  11.601  2.8760  2.5614 -0.4844
 4870TIP3   OH236024   6.047   0.809  16.158 -0.3509 -0.6423  0.1228
 4870TIP3    H136025   6.063   0.899  16.128 -0.8420 -0.6804 -0.2728
 4870TIP3    H236026   6.100   0.800  16.237 -0.6738  0.1587  0.4390
 4871TIP3   OH236027   4.388   5.176  16.809 -0.0086  0.5255 -1.2068
 4871TIP3    H136028   4.463   5.166  16.867  0.2100  2.4593 -1.0897
 4871TIP3    H236029   4.313   5.182  16.868  0.0906  1.4255 -1.1612
 4872TIP3   OH236030   0.170   4.186  12.403  0.2788  0.8187  0.1560
 4872TIP3    H136031   0.182   4.240  12.324 -2.7171 -0.4540 -1.2989
 4872TIP3    H236032   0.143   4.248  12.470  0.0193  1.5549 -0.6045
 4873TIP3   OH236033   4.002   6.764   3.080  0.2532  0.1183 -0.2041
 4873TIP3    H136034   4.027   6.740   2.991  1.0708  2.0760 -0.5633
 4873TIP3    H236035   3.958   6.686   3.115  0.8945 -1.0718 -1.9216
 4874TIP3   OH236036   4.586   2.439   5.745  0.3657  0.2542 -0.7656
 4874TIP3    H136037   4.595   2.440   5.650  0.2883 -0.7609 -0.7915
 4874TIP3    H236038   4.609   2.350   5.771  1.2282  0.7472  0.2574
 4875TIP3   OH236039   3.317   5.987   0.788  0.5988 -0.0146 -0.0380
 4875TIP3    H136040   3.330   5.916   0.851  0.3758 -0.1748 -0.1726
 4875TIP3    H236041   3.252   5.954   0.727  0.6627  0.2191 -0.2366
 4876TIP3   OH236042   4.331   3.562   0.174  0.3321  0.0729 -1.0095
 4876TIP3    H136043   4.285   3.486   0.209 -1.1116  0.4178 -2.0805
 4876TIP3    H236044   4.365   3.608   0.251  2.5190 -2.3702 -0.3592
 4877TIP3   OH236045   0.774   2.724   3.504  0.2281 -0.5157 -0.6898
 4877TIP3    H136046   0.860   2.728   3.463 -0.5452 -1.7942 -2.6167
 4877TIP3    H236047   0.753   2.630   3.506 -0.8586 -0.2778  0.3251
 4878TIP3   OH236048   3.367   4.395   4.622  0.3522  0.4402 -0.1497
 4878TIP3    H136049   3.420   4.316   4.610 -0.2534 -0.0626  0.4320
 4878TIP3    H236050   3.309   4.397   4.546 -0.3432 -0.2469  0.3534
 4879TIP3   OH236051   1.559   0.285   5.208 -0.0633 -0.1966 -0.4358
 4879TIP3    H136052   1.484   0.226   5.213 -0.9865  0.9748  0.2502
 4879TIP3    H236053   1.616   0.259   5.280 -0.4033 -0.3249 -0.2107
 4880TIP3   OH236054   3.125   1.863   1.561 -0.4592 -0.0269  0.9199
 4880TIP3    H136055   3.135   1.921   1.637  1.3247  0.6085  0.2412
 4880TIP3    H236056   3.213   1.851   1.528 -1.2849  0.4402 -1.6287
 4881TIP3   OH236057   5.220   6.528  12.475 -0.2399  0.2818  0.1000
 4881TIP3    H136058   5.231   6.474  12.553 -2.0373  1.1518  0.9960
 4881TIP3    H236059   5.188   6.467  12.408 -2.0593  0.1577  1.0430
 4882TIP3   OH236060   2.296   2.386  14.096  0.1673  0.4336  0.6490
 4882TIP3    H136061   2.220   2.442  14.080 -0.4850 -0.4734  0.4820
 4882TIP3    H236062   2.320   2.353  14.009  1.5212  1.6569  0.5258
 4883TIP3   OH236063   0.420   3.247   5.800 -0.0635  0.8584 -0.1346
 4883TIP3    H136064   0.440   3.190   5.874  2.1080  1.6631 -0.0492
 4883TIP3    H236065   0.390   3.187   5.731  3.8712 -0.7783 -0.6793
 4884TIP3   OH236066   6.558   5.326   3.207  0.2531  0.3656  0.5736
 4884TIP3    H136067   6.596   5.243   3.236  0.4901  0.2097 -0.1466
 4884TIP3    H236068   6.482   5.340   3.263 -0.5598 -0.9982 -0.1481
 4885TIP3   OH236069   3.616   0.218  16.595 -0.0010  0.1877  0.2313
 4885TIP3    H136070   3.688   0.222  16.657  0.5803  0.9686 -0.4707
 4885TIP3    H236071   3.537   0.222  16.649  0.4905  0.6360  0.9269
 4886TIP3   OH236072   3.773   4.643   6.163  0.4632 -0.2525  0.1865
 4886TIP3    H136073   3.788   4.569   6.223  2.8093 -0.9511 -1.1086
 4886TIP3    H236074   3.727   4.708   6.216 -0.1093 -1.9443  1.8829
 4887TIP3   OH236075   1.771   6.467   1.413  0.3584 -0.3347 -0.7542
 4887TIP3    H136076   1.761   6.439   1.504 -1.5364  0.2180 -0.7320
 4887TIP3    H236077   1.767   6.386   1.362 -0.1346 -0.5282 -0.4210
 4888TIP3   OH236078   3.911   3.444   0.215 -0.2515 -0.4193 -0.5382
 4888TIP3    H136079   3.836   3.392   0.244  0.1071 -0.1878  0.8961
 4888TIP3    H236080   3.911   3.435   0.120 -1.7864 -0.8418 -0.5298
 4889TIP3   OH236081   6.133   1.872  17.177  0.0116 -0.4666 -0.3603
 4889TIP3    H136082   6.162   1.933  17.245  1.1657 -0.9760 -0.3754
 4889TIP3    H236083   6.176   1.903  17.098 -1.9572  0.6132 -1.0961
 4890TIP3   OH236084   1.382   6.412   2.252  0.6533  0.6017  0.1601
 4890TIP3    H136085   1.288   6.399   2.261  0.9707 -1.0391  1.8279
 4890TIP3    H236086   1.417   6.323   2.246  2.1150  1.1788 -0.2142
 4891TIP3   OH236087   0.107   2.346  13.451  0.3594  0.1768 -0.1264
 4891TIP3    H136088   0.145   2.421  13.405  0.9950 -0.2016 -0.2268
 4891TIP3    H236089   0.070   2.383  13.531  0.2794  0.6626 -0.3811
 4892TIP3   OH236090   6.424   4.476   4.778  0.0049 -0.1379  0.1316
 4892TIP3    H136091   6.360   4.410   4.805 -0.7628  1.6189  3.1768
 4892TIP3    H236092   6.433   4.533   4.855  1.7825  2.3845 -1.7628
 4893TIP3   OH236093   5.460   6.132   1.886  0.2864  0.1955  0.5522
 4893TIP3    H136094   5.415   6.131   1.802  0.2369 -2.3731  0.5337
 4893TIP3    H236095   5.549   6.161   1.865  0.4507 -0.9892 -0.5328
 4894TIP3   OH236096   4.776   3.667  17.175  0.0078 -0.2936  0.4888
 4894TIP3    H136097   4.701   3.625  17.218  0.4735 -1.6511 -0.0017
 4894TIP3    H236098   4.747   3.757  17.161 -1.4322 -0.7172  0.5763
 4895TIP3   OH236099   1.260   3.308  10.746 -0.6726  0.6922  0.1380
 4895TIP3    H136100   1.217   3.393  10.738 -1.2164  0.4330  0.2784
 4895TIP3    H236101   1.189   3.245  10.744 -0.1530  0.0969 -1.9610
 4896TIP3   OH236102   2.425   1.462   1.813 -0.6600 -0.8505  0.2048
 4896TIP3    H136103   2.399   1.394   1.875 -1.1840 -1.1049 -0.2849
 4896TIP3    H236104   2.516   1.444   1.793 -0.7437 -1.2916  0.2292
 4897TIP3   OH236105   2.329   4.210   2.679 -0.5642  0.0338 -0.1087
 4897TIP3    H136106   2.318   4.274   2.750  4.3208  0.7155  0.3779
 4897TIP3    H236107   2.309   4.259   2.599 -1.9673  0.5429  0.5306
 4898TIP3   OH236108   5.850   0.537  14.490 -0.5527  0.0980  0.2152
 4898TIP3    H136109   5.779   0.586  14.531 -1.0106  0.5186 -1.0384
 4898TIP3    H236110   5.854   0.455  14.540 -0.7571  0.7885  1.3937
 4899TIP3   OH236111   1.024   1.311   2.619  0.0984  0.5270 -0.1179
 4899TIP3    H136112   1.113   1.284   2.640 -0.7683 -0.7213  2.3485
 4899TIP3    H236113   0.981   1.232   2.587 -0.3703  0.9122 -0.4665
 4900TIP3   OH236114   3.327   5.917  16.170 -0.2383 -0.4522  0.5257
 4900TIP3    H136115   3.309   5.880  16.083 -2.1953  4.1745 -1.3986
 4900TIP3    H236116   3.246   5.903  16.219  0.0486 -1.0911  0.8297
 4901TIP3   OH236117   5.758   4.695   5.901 -0.1222  0.6806  0.0784
 4901TIP3    H136118   5.803   4.666   5.980  0.9255  0.1654 -0.6844
 4901TIP3    H236119   5.768   4.622   5.840 -0.4217  1.2994 -0.7196
 4902TIP3   OH236120   2.480   5.535   0.498 -0.5226 -0.2483 -0.2364
 4902TIP3    H136121   2.430   5.609   0.531 -0.1868 -0.9572  2.0271
 4902TIP3    H236122   2.556   5.574   0.455 -1.4318  0.7482 -0.9527
 4903TIP3   OH236123   3.956   4.501  14.738 -0.5945 -0.2976  0.0157
 4903TIP3    H136124   4.035   4.546  14.766 -1.8412  1.9516  0.1046
 4903TIP3    H236125   3.987   4.418  14.701  1.7894  0.5935 -0.1014
 4904TIP3   OH236126   5.102   1.525  13.332 -0.2915 -0.7320  0.2232
 4904TIP3    H136127   5.114   1.433  13.356  1.0176 -1.0494 -1.4443
 4904TIP3    H236128   5.146   1.574  13.402  1.0794 -1.4932 -0.0610
 4905TIP3   OH236129   5.567   3.629  16.365  0.1809 -0.4197 -0.0387
 4905TIP3    H136130   5.482   3.634  16.410  0.8015 -3.9600  1.9125
 4905TIP3    H236131   5.631   3.626  16.436  1.9554  1.3610 -1.4730
 4906TIP3   OH236132   6.239   0.127   3.682 -0.2514  0.6030  0.2837
 4906TIP3    H136133   6.226   0.208   3.731 -1.8683  0.9599 -0.6589
 4906TIP3    H236134   6.180   0.064   3.723  0.8435 -0.0558  0.8761
 4907TIP3   OH236135   3.066   3.225  14.801  0.0099 -0.4884  0.1427
 4907TIP3    H136136   3.123   3.153  14.774 -0.9611 -1.6015  0.9443
 4907TIP3    H236137   2.992   3.182  14.845 -0.6510  0.9979  0.5561
 4908TIP3   OH236138   4.324   4.199  12.010 -0.0985  0.0905  0.4681
 4908TIP3    H136139   4.316   4.212  12.105 -0.6687  0.9839  0.3156
 4908TIP3    H236140   4.251   4.249  11.974  0.4940  0.2845 -0.4831
 4909TIP3   OH236141   0.842   0.436   1.212 -0.5545  0.1380  0.1878
 4909TIP3    H136142   0.823   0.430   1.306 -0.6179  1.4403  0.2740
 4909TIP3    H236143   0.765   0.477   1.174  0.8804  3.0369  0.1462
 4910TIP3   OH236144   6.241   1.216   5.285 -0.1145 -0.2165  0.5890
 4910TIP3    H136145   6.291   1.297   5.298 -0.6687  0.1111  0.7001
 4910TIP3    H236146   6.183   1.235   5.212  0.2585 -0.7637  0.1395
 4911TIP3   OH236147   6.065   6.276  15.032  0.4599 -0.5369 -0.1807
 4911TIP3    H136148   5.991   6.220  15.011 -2.1305  2.4582  0.1957
 4911TIP3    H236149   6.049   6.304  15.123  1.2881  1.2093 -0.5214
 4912TIP3   OH236150   6.132   6.760  16.837  0.2575 -0.0553 -0.5975
 4912TIP3    H136151   6.221   6.727  16.839  0.0692 -0.5309  0.0975
 4912TIP3    H236152   6.112   6.783  16.928 -0.0717  0.7457 -0.8590
 4913TIP3   OH236153   3.735   6.182  15.407 -0.3560  0.1793  0.1171
 4913TIP3    H136154   3.768   6.129  15.334  1.0065 -0.3780  1.0829
 4913TIP3    H236155   3.784   6.151  15.483  0.6544  2.9595  0.7227
 4914TIP3   OH236156   3.073   5.956  11.223  0.3049 -0.0223 -0.3706
 4914TIP3    H136157   3.036   6.033  11.267 -2.9221 -2.3775  1.4446
 4914TIP3    H236158   3.000   5.918  11.174  0.7993 -3.6124  1.3366
 4915TIP3   OH236159   4.545   5.616  16.289  0.3539 -0.1752  0.0779
 4915TIP3    H136160   4.452   5.626  16.270  0.2947  0.6586  0.7230
 4915TIP3    H236161   4.568   5.529  16.255 -0.9741 -0.9806  1.1687
 4916TIP3   OH236162   3.607   3.436   4.894 -0.8043 -0.1361 -0.5587
 4916TIP3    H136163   3.599   3.514   4.950 -0.5269 -0.5748  0.1053
 4916TIP3    H236164   3.589   3.469   4.806 -0.1469  0.7999 -0.3667
 4917TIP3   OH236165   6.010   6.503   2.457  0.8292 -0.3894 -0.4647
 4917TIP3    H136166   6.036   6.519   2.547 -0.5727  1.0777 -0.2852
 4917TIP3    H236167   5.999   6.408   2.452  1.6262 -0.5689  0.6794
 4918TIP3   OH236168   2.980   1.914   4.050  0.2350  0.1307  0.2298
 4918TIP3    H136169   2.947   2.002   4.064  0.0682  0.0262  0.4985
 4918TIP3    H236170   3.044   1.900   4.120  1.1807  0.4871 -0.5310
 4919TIP3   OH236171   6.753   5.477   0.644  0.0656  0.0416 -0.3462
 4919TIP3    H136172   6.686   5.535   0.682  0.3257  0.3156 -0.2957
 4919TIP3    H236173   6.716   5.389   0.652 -0.2889  0.1908 -0.3212
 4920TIP3   OH236174   2.951   6.332   6.799  0.8803  0.4435  0.1712
 4920TIP3    H136175   2.937   6.240   6.775 -0.0223  0.2044  1.4995
 4920TIP3    H236176   2.863   6.367   6.813  1.2640  1.0909  1.0797
 4921TIP3   OH236177   2.280   5.284  16.148 -0.3437 -0.5871  0.3409
 4921TIP3    H136178   2.266   5.197  16.186 -2.6401 -0.5343 -0.2475
 4921TIP3    H236179   2.370   5.281  16.115 -0.5823 -3.0000 -0.2825
 4922TIP3   OH236180   4.307   1.894  12.487 -0.6717  0.6336 -0.4413
 4922TIP3    H136181   4.333   1.960  12.423  0.1505 -0.2791 -1.0853
 4922TIP3    H236182   4.251   1.941  12.549 -0.0404  1.9420 -0.8282
 4923TIP3   OH236183   1.870   2.644   5.709 -0.2017  0.1148 -0.7320
 4923TIP3    H136184   1.938   2.587   5.671 -0.0704 -0.4914  0.3732
 4923TIP3    H236185   1.884   2.638   5.803 -1.9009 -0.1482 -0.4753
 4924TIP3   OH236186   6.574   3.210   2.430  0.1273  1.0814 -0.3830
 4924TIP3    H136187   6.557   3.272   2.501 -3.0265 -0.0221 -0.0404
 4924TIP3    H236188   6.500   3.221   2.370  0.2594 -1.2788 -1.0668
 4925TIP3   OH236189   2.491   6.269   4.014  0.3690  0.2758  0.3372
 4925TIP3    H136190   2.410   6.219   4.011  0.3810  0.2786 -0.1536
 4925TIP3    H236191   2.560   6.202   4.008  0.4989  0.0356  3.1089
 4926TIP3   OH236192   3.064   4.528  15.261 -0.1728 -0.2222  0.2797
 4926TIP3    H136193   3.117   4.522  15.340 -0.4175  1.4126  0.5956
 4926TIP3    H236194   3.096   4.606  15.216 -2.4670  0.9921  0.6077
 4927TIP3   OH236195   3.798   2.453   5.502 -0.2034  0.3044  0.2950
 4927TIP3    H136196   3.806   2.398   5.424  1.1694 -0.8062  1.1790
 4927TIP3    H236197   3.763   2.394   5.569 -2.2772  1.4747  0.3381
 4928TIP3   OH236198   0.944   1.129   3.320  0.5487 -0.1320 -0.6450
 4928TIP3    H136199   0.993   1.047   3.311 -1.0688 -1.0641 -1.3704
 4928TIP3    H236200   0.972   1.182   3.245  1.0058 -0.3504 -0.6305
 4929TIP3   OH236201   4.921   0.414  10.472  0.0989  0.3878  0.1761
 4929TIP3    H136202   4.962   0.440  10.390 -1.1672 -0.7190 -0.8555
 4929TIP3    H236203   4.981   0.445  10.540  2.6903 -1.1951 -1.2090
 4930TIP3   OH236204   5.475   4.651   5.938  0.0544  0.5113 -0.0048
 4930TIP3    H136205   5.571   4.659   5.944  0.3940 -2.5179  0.3273
 4930TIP3    H236206   5.453   4.698   5.858  2.2973 -1.1454 -1.7690
 4931TIP3   OH236207   3.589   0.623   4.486 -0.2019  0.4751 -0.0711
 4931TIP3    H136208   3.518   0.627   4.550  1.1738 -0.4721  1.6268
 4931TIP3    H236209   3.602   0.529   4.471 -0.1627  0.6747 -1.3790
 4932TIP3   OH236210   1.130   4.566   2.569 -0.4701 -0.1598 -0.0537
 4932TIP3    H136211   1.175   4.498   2.619 -0.7321 -0.0184  0.3757
 4932TIP3    H236212   1.049   4.582   2.617 -0.2026  0.7862  0.0964
 4933TIP3   OH236213   1.743   3.524   1.343 -0.0794 -0.1617  0.0537
 4933TIP3    H136214   1.648   3.519   1.346 -0.2342  0.4387 -1.9984
 4933TIP3    H236215   1.771   3.434   1.326 -0.4390 -0.0460 -1.2667
 4934TIP3   OH236216   2.019   1.123   1.674 -0.1267 -0.1258  0.0978
 4934TIP3    H136217   2.024   1.161   1.586 -0.3597 -0.1902  0.0574
 4934TIP3    H236218   2.060   1.189   1.730  0.5128 -0.3206 -0.1316
 4935TIP3   OH236219   5.263   5.407   1.468 -0.2367  0.1485  0.1724
 4935TIP3    H136220   5.232   5.325   1.429 -0.5079  0.5940 -0.5644
 4935TIP3    H236221   5.191   5.468   1.456 -0.4374  0.2324  1.6389
 4936TIP3   OH236222   4.826   5.601   3.459  0.2136 -0.4573 -0.2470
 4936TIP3    H136223   4.881   5.655   3.516  2.2267  0.2482 -2.6652
 4936TIP3    H236224   4.770   5.663   3.413 -2.0196 -1.0943  1.4854
 4937TIP3   OH236225   4.174   3.361   0.288  0.3839  0.6010 -0.6751
 4937TIP3    H136226   4.148   3.359   0.380 -0.5421 -2.8500 -0.8739
 4937TIP3    H236227   4.092   3.372   0.240  0.7486  1.4030 -1.1296
 4938TIP3   OH236228   3.416   3.202   5.634  0.0008 -0.4796 -0.5362
 4938TIP3    H136229   3.436   3.177   5.724 -2.1647  1.0356  0.4612
 4938TIP3    H236230   3.495   3.247   5.603  0.6687 -0.7784  0.6930
 4939TIP3   OH236231   0.463   0.102   4.717 -0.4195  0.0754  0.2121
 4939TIP3    H136232   0.444   0.140   4.802 -1.0371  0.0895  0.0719
 4939TIP3    H236233   0.469   0.008   4.733 -0.6997  0.0637  0.2384
 4940TIP3   OH236234   4.779   4.521  13.213 -0.5920  0.3775 -0.0985
 4940TIP3    H136235   4.857   4.466  13.206 -1.8762 -1.3704 -3.1301
 4940TIP3    H236236   4.741   4.498  13.297  1.1556 -0.1431  0.5892
 4941TIP3   OH236237   0.374   2.096  11.203 -0.0305  0.1555 -0.8759
 4941TIP3    H136238   0.293   2.056  11.173 -0.3331  1.3462 -1.7403
 4941TIP3    H236239   0.440   2.069  11.139  0.2931 -0.8852 -0.1248
 4942TIP3   OH236240   4.358   0.291   1.574  0.1454 -0.1242  0.6173
 4942TIP3    H136241   4.413   0.240   1.514 -0.2849 -0.1500  0.2367
 4942TIP3    H236242   4.342   0.231   1.648  2.1432  0.5110  1.6369
 4943TIP3   OH236243   1.375   2.691   5.588 -0.1739  0.0425  0.2869
 4943TIP3    H136244   1.296   2.673   5.638 -1.0510  1.2468 -0.5811
 4943TIP3    H236245   1.365   2.639   5.508 -0.9283  1.4089 -0.5580
 4944TIP3   OH236246   1.626   4.780  16.557  0.4753 -0.2890  0.2123
 4944TIP3    H136247   1.649   4.760  16.467 -0.0689  0.6095 -0.1391
 4944TIP3    H236248   1.620   4.695  16.600 -1.5182 -0.9145 -1.1488
 4945TIP3   OH236249   4.774   1.945   3.431  0.0583 -0.0593  0.4535
 4945TIP3    H136250   4.683   1.926   3.409  0.5148 -2.6324  0.5325
 4945TIP3    H236251   4.796   1.883   3.500  1.4738  1.5041  1.4989
 4946TIP3   OH236252   1.090   0.332  11.432  0.4665  0.2874 -0.5134
 4946TIP3    H136253   1.082   0.354  11.339 -0.4783 -1.0596 -0.7854
 4946TIP3    H236254   1.140   0.251  11.433 -1.0234 -0.6598 -0.0046
 4947TIP3   OH236255   5.381   5.134  14.449 -0.1577  0.3022 -0.0310
 4947TIP3    H136256   5.408   5.042  14.448 -0.5428  0.1856  0.2123
 4947TIP3    H236257   5.370   5.156  14.541  1.3616  1.0277  0.0087
 4948TIP3   OH236258   0.379   1.274   2.124  0.0814  0.1157 -0.0339
 4948TIP3    H136259   0.370   1.333   2.199  0.3201 -1.0850  0.9697
 4948TIP3    H236260   0.455   1.219   2.145 -0.0769 -0.4933 -0.9754
 4949TIP3   OH236261   5.472   2.932   0.888 -0.8907  0.0741 -0.2856
 4949TIP3    H136262   5.522   2.942   0.968  0.6873  2.6489 -1.4687
 4949TIP3    H236263   5.525   2.875   0.833 -0.6820  0.3921 -0.4217
 4950TIP3   OH236264   6.071   2.544  14.214 -0.5827  1.1659  0.5672
 4950TIP3    H136265   6.070   2.558  14.120 -0.4771  1.7359  0.6461
 4950TIP3    H236266   6.007   2.606  14.248 -0.1952  1.3803  0.9200
 4951TIP3   OH236267   0.535   2.982   3.716  0.3960 -0.0529 -0.1611
 4951TIP3    H136268   0.588   3.062   3.704 -1.3466  1.5197  1.7756
 4951TIP3    H236269   0.560   2.950   3.803 -1.0042  0.1106  0.3301
 4952TIP3   OH236270   1.674   3.712  15.363 -0.0464 -0.1345  0.0781
 4952TIP3    H136271   1.613   3.656  15.315  0.3057 -0.6204  0.1885
 4952TIP3    H236272   1.619   3.762  15.423 -0.3390 -0.6090  0.2160
 4953TIP3   OH236273   6.064   6.743   1.158 -0.5539 -0.2021  0.1426
 4953TIP3    H136274   6.106   6.809   1.213 -0.2047 -0.6097  0.3810
 4953TIP3    H236275   6.085   6.660   1.202 -0.7898 -0.4854 -0.2763
 4954TIP3   OH236276   5.432   1.079   1.744 -0.2594  0.4365  0.0402
 4954TIP3    H136277   5.430   1.167   1.708 -2.9830  0.4905  0.1225
 4954TIP3    H236278   5.361   1.033   1.699 -1.0245 -0.7175  2.2725
 4955TIP3   OH236279   5.883   4.164   3.759  0.6315  0.1648 -0.2531
 4955TIP3    H136280   5.924   4.104   3.820 -0.8377  0.4320  1.0473
 4955TIP3    H236281   5.861   4.241   3.811 -1.4714  0.0430 -0.8807
 4956TIP3   OH236282   3.107   2.627   1.866  0.3437 -0.5413 -0.1593
 4956TIP3    H136283   3.076   2.623   1.956  2.0743 -1.6198  0.4388
 4956TIP3    H236284   3.053   2.694   1.825 -0.7694 -0.3305  1.5522
 4957TIP3   OH236285   0.623   4.769   1.720 -0.6575  0.2623 -0.1268
 4957TIP3    H136286   0.719   4.774   1.716 -0.7211  1.0948 -1.4709
 4957TIP3    H236287   0.599   4.815   1.800  0.1432 -1.8729  1.4290
 4958TIP3   OH236288   4.316   2.454  15.131  0.1533  0.1072  0.1932
 4958TIP3    H136289   4.286   2.441  15.041  0.2182 -0.8470  0.3000
 4958TIP3    H236290   4.399   2.502  15.122  0.6082 -0.7535 -0.3119
 4959TIP3   OH236291   2.631   0.513   4.451  0.1064  0.1348  0.0943
 4959TIP3    H136292   2.578   0.526   4.529 -2.2947 -0.5736 -1.2764
 4959TIP3    H236293   2.582   0.447   4.400  1.3202  0.8602 -2.1694
 4960TIP3   OH236294   1.276   2.167   3.636 -0.8038 -0.0433 -0.6591
 4960TIP3    H136295   1.315   2.144   3.552  1.0343 -1.6862  0.5391
 4960TIP3    H236296   1.328   2.118   3.701 -2.0359  1.2618  1.4496
 4961TIP3   OH236297   4.106   3.454  14.944  0.1083 -0.0164  0.5122
 4961TIP3    H136298   4.100   3.361  14.963  0.2406  0.0693  0.9750
 4961TIP3    H236299   4.037   3.470  14.879  0.9937 -0.7032 -0.6270
 4962TIP3   OH236300   4.971   1.467   4.535 -0.3191 -0.1403  0.2095
 4962TIP3    H136301   4.976   1.395   4.472 -0.7393 -1.5381  1.7085
 4962TIP3    H236302   4.928   1.429   4.612 -1.3687  1.9661  0.7368
 4963TIP3   OH236303   2.629   5.164  13.620 -0.1017 -0.0667 -0.6191
 4963TIP3    H136304   2.722   5.156  13.638 -0.0965  0.0457 -0.6012
 4963TIP3    H236305   2.590   5.198  13.700 -0.3155 -1.1345 -0.2519
 4964TIP3   OH236306   1.186   4.233  11.992  0.1141  0.2115 -0.0336
 4964TIP3    H136307   1.205   4.154  11.942 -1.6493 -0.6275  0.5408
 4964TIP3    H236308   1.171   4.300  11.925  0.2259 -0.2854 -0.5633
 4965TIP3   OH236309   0.083   0.139   5.562  0.1102 -0.1472  0.1583
 4965TIP3    H136310   0.079   0.050   5.528 -1.0436 -0.0106 -0.1238
 4965TIP3    H236311   0.081   0.129   5.657 -3.1428 -0.4107  0.1876
 4966TIP3   OH236312   0.544   4.109   0.574 -0.6146 -0.0839  0.5126
 4966TIP3    H136313   0.639   4.107   0.577 -0.6190 -1.4117  0.1945
 4966TIP3    H236314   0.518   4.018   0.563 -1.9556  0.1491  1.4726
 4967TIP3   OH236315   3.698   6.064   3.728 -0.1591  0.0964 -0.2142
 4967TIP3    H136316   3.710   6.065   3.633  2.8231 -1.2403  0.0227
 4967TIP3    H236317   3.645   5.986   3.744 -0.9226  0.4859 -0.7730
 4968TIP3   OH236318   1.029   1.916   2.455 -0.1641  0.4722  0.2718
 4968TIP3    H136319   1.091   1.958   2.515  2.7742  1.6598 -3.2266
 4968TIP3    H236320   0.975   1.988   2.422  0.1619  0.3360 -0.5734
 4969TIP3   OH236321   6.243   3.383  14.087 -0.0675  1.3308 -0.7153
 4969TIP3    H136322   6.203   3.305  14.048 -0.0637  1.7548 -1.5943
 4969TIP3    H236323   6.200   3.392  14.172  1.8084 -1.1606  0.6419
 4970TIP3   OH236324   1.284   3.659  10.974  0.0180 -0.0904  0.0256
 4970TIP3    H136325   1.201   3.664  10.927  1.0675  0.9684 -1.8016
 4970TIP3    H236326   1.268   3.594  11.043 -2.6108  0.7856  0.3771
 4971TIP3   OH236327   0.335   6.648  11.774  0.6176  0.3849 -0.3847
 4971TIP3    H136328   0.329   6.725  11.716 -0.5008  0.6728  0.0862
 4971TIP3    H236329   0.265   6.590  11.743  2.6944 -1.4159 -2.0529
 4972TIP3   OH236330   0.240   6.619  13.821 -0.3050 -0.3528 -0.1674
 4972TIP3    H136331   0.181   6.694  13.821  0.4869  0.2915  0.5082
 4972TIP3    H236332   0.290   6.627  13.902 -0.4726 -1.8411  0.1151
 4973TIP3   OH236333   6.571   2.235   5.842 -0.8099 -0.3252 -0.0432
 4973TIP3    H136334   6.489   2.192   5.815 -0.6133  0.3036 -1.7902
 4973TIP3    H236335   6.543   2.301   5.905 -1.8030  0.4730 -1.2728
 4974TIP3   OH236336   5.473   6.661   3.966  0.4064  0.2192 -0.2422
 4974TIP3    H136337   5.451   6.609   4.044 -0.8689 -0.8408 -1.2588
 4974TIP3    H236338   5.393   6.661   3.914  1.3967  0.4043 -1.8278
 4975TIP3   OH236339   4.885   6.653   2.167  0.0163  0.2307  0.6401
 4975TIP3    H136340   4.956   6.620   2.112 -1.0781  0.0253 -0.7082
 4975TIP3    H236341   4.857   6.577   2.218 -1.8926 -0.8656 -1.8042
 4976TIP3   OH236342   6.462   0.402  14.266 -0.1958 -0.2145 -0.8826
 4976TIP3    H136343   6.454   0.483  14.215 -0.4549 -0.0924 -0.6501
 4976TIP3    H236344   6.545   0.364  14.237 -0.9318 -0.8099 -2.3315
 4977TIP3   OH236345   4.278   2.004   5.563  0.0299  0.0045  0.7375
 4977TIP3    H136346   4.256   2.083   5.612  0.4034 -0.0411  0.9826
 4977TIP3    H236347   4.201   1.987   5.509  0.3791  1.1635 -0.1538
 4978TIP3   OH236348   2.135   2.262  15.412 -0.4589 -0.3099  0.0634
 4978TIP3    H136349   2.052   2.237  15.372  0.0853 -0.8358 -0.7611
 4978TIP3    H236350   2.201   2.247  15.343  0.2549  0.5938  0.5237
 4979TIP3   OH236351   0.037   0.833   2.163  0.1268  0.3003  0.2880
 4979TIP3    H136352   0.107   0.874   2.112  0.2528 -0.4676 -0.1632
 4979TIP3    H236353   0.074   0.751   2.195 -1.5261 -1.7673 -2.6621
 4980TIP3   OH236354   3.399   5.690  16.832  0.1879  0.0971  0.3822
 4980TIP3    H136355   3.471   5.655  16.780  0.1600  0.4268  0.1162
 4980TIP3    H236356   3.421   5.667  16.922  0.0208 -0.8537  0.1897
 4981TIP3   OH236357   5.332   0.657  15.295 -0.4455  0.1291  0.1242
 4981TIP3    H136358   5.356   0.564  15.290 -1.6817 -0.2921  1.3177
 4981TIP3    H236359   5.334   0.677  15.389 -1.3478  0.9872 -0.0310
 4982TIP3   OH236360   0.634   3.872   4.412 -0.0528  0.5047  0.4800
 4982TIP3    H136361   0.665   3.894   4.500  0.2499 -1.6874  0.9765
 4982TIP3    H236362   0.546   3.837   4.425 -0.1495  0.5095 -0.1361
 4983TIP3   OH236363   5.379   1.960  15.558 -0.2931 -0.0660 -0.0680
 4983TIP3    H136364   5.349   1.966  15.648  2.2331 -2.0861  1.0533
 4983TIP3    H236365   5.434   2.037  15.545 -0.0709 -0.1358  0.4195
 4984TIP3   OH236366   3.751   3.212   2.893 -0.3175  0.3372 -0.1109
 4984TIP3    H136367   3.673   3.244   2.848  1.5423  2.5980 -1.9128
 4984TIP3    H236368   3.768   3.277   2.961  0.0164 -0.1684  0.3035
 4985TIP3   OH236369   5.889   0.992  17.053  0.3036  0.0157  0.4715
 4985TIP3    H136370   5.904   0.916  16.997  1.3031  0.3156  0.3114
 4985TIP3    H236371   5.874   1.065  16.993 -0.8948 -0.0872  0.6278
 4986TIP3   OH236372   5.386   4.948   4.368 -0.1653  0.1297 -0.4994
 4986TIP3    H136373   5.349   4.917   4.286  0.5705  2.0928 -1.6207
 4986TIP3    H236374   5.481   4.940   4.356  0.0891  3.0550 -1.0084
 4987TIP3   OH236375   4.973   6.274  17.083 -0.4962 -0.1293  0.0385
 4987TIP3    H136376   5.013   6.188  17.077  1.0494  0.5833 -0.4040
 4987TIP3    H236377   5.020   6.317  17.155 -2.1187 -0.0776  1.1096
 4988TIP3   OH236378   1.701   0.285   1.843  0.6157  0.0814  0.4027
 4988TIP3    H136379   1.706   0.380   1.838 -0.3940  0.1189 -0.0537
 4988TIP3    H236380   1.656   0.258   1.763  1.9056 -0.8791 -0.0232
 4989TIP3   OH236381   5.280   3.496  13.893  0.8751  0.3479 -0.1433
 4989TIP3    H136382   5.213   3.495  13.962  1.4621  1.2051  0.4635
 4989TIP3    H236383   5.241   3.547  13.822  0.7572  0.5879  0.0898
 4990TIP3   OH236384   4.805   1.688   0.777 -0.2676  0.2769 -0.0165
 4990TIP3    H136385   4.837   1.646   0.697  1.4286 -1.5313  1.5183
 4990TIP3    H236386   4.710   1.685   0.770 -0.1626 -1.4724 -1.1612
 4991TIP3   OH236387   1.299   4.467  12.186 -0.6597 -0.0339  0.4603
 4991TIP3    H136388   1.210   4.495  12.209 -1.3660 -3.0941  1.9254
 4991TIP3    H236389   1.287   4.398  12.121  0.4688 -1.7132  1.9350
 4992TIP3   OH236390   2.864   6.552  13.261  0.0361 -0.1467 -0.3779
 4992TIP3    H136391   2.899   6.463  13.258  0.3642 -0.0317 -0.0585
 4992TIP3    H236392   2.938   6.608  13.238  0.7880  0.2747  2.5841
 4993TIP3   OH236393   5.112   5.102  14.567  0.4111 -0.2214  0.1277
 4993TIP3    H136394   5.193   5.143  14.597 -0.1440  1.7025 -0.8073
 4993TIP3    H236395   5.042   5.153  14.607 -0.3253 -0.3064 -0.9841
 4994TIP3   OH236396   1.000   6.126  11.319 -0.7400  0.8374 -0.6708
 4994TIP3    H136397   0.916   6.132  11.273 -1.8452 -0.6486  1.0024
 4994TIP3    H236398   1.014   6.032  11.331 -0.0393  1.1331  1.1388
 4995TIP3   OH236399   5.701   5.519   3.402 -0.0546 -0.2926 -0.2654
 4995TIP3    H136400   5.776   5.543   3.457  0.5853 -2.5574 -0.0498
 4995TIP3    H236401   5.740   5.497   3.318 -0.7766  0.8246 -0.9141
 4996TIP3   OH236402   3.564   4.533   2.846  0.3348 -0.3935  0.4424
 4996TIP3    H136403   3.634   4.587   2.883 -1.5633  2.1239  0.5986
 4996TIP3    H236404   3.510   4.509   2.921 -0.7148  0.4208 -0.0270
 4997TIP3   OH236405   1.231   4.546   4.805 -0.0952 -0.2214  0.1209
 4997TIP3    H136406   1.163   4.510   4.862 -0.2258  0.1795  0.2194
 4997TIP3    H236407   1.280   4.606   4.860 -1.5648  1.8607 -0.6773
 4998TIP3   OH236408   5.803   3.430  17.043  0.2959  0.4854 -0.0680
 4998TIP3    H136409   5.730   3.467  17.093  2.1733 -0.2013  3.5267
 4998TIP3    H236410   5.881   3.473  17.078  1.9760 -1.8655 -0.6125
 4999TIP3   OH236411   6.696   3.454   5.573 -0.2434  0.1940 -0.4890
 4999TIP3    H136412   6.751   3.431   5.498  0.4832 -1.2941  0.4476
 4999TIP3    H236413   6.738   3.530   5.612  0.8989 -0.6320 -0.0754
 5000TIP3   OH236414   6.306   3.594  14.976 -1.2075  0.1155 -0.0956
 5000TIP3    H136415   6.304   3.665  15.040 -1.8179  0.0453 -0.0262
 5000TIP3    H236416   6.312   3.515  15.030 -0.1269  0.1314 -0.1873
 5001TIP3   OH236417   2.182   1.189  14.432  1.0292  0.4901  0.2086
 5001TIP3    H136418   2.152   1.239  14.356  1.7634 -0.4865 -0.7518
 5001TIP3    H236419   2.102   1.170  14.481  0.6175  1.6666  0.0319
 5002TIP3   OH236420   2.733   4.390   6.436  0.0829  0.1762 -0.4009
 5002TIP3    H136421   2.698   4.316   6.484  1.2620  0.5292  1.0891
 5002TIP3    H236422   2.729   4.364   6.344  0.1219 -1.5723  0.0642
 5003TIP3   OH236423   1.132   6.483   2.078  0.8049  0.0592  0.2583
 5003TIP3    H136424   1.154   6.499   1.986  0.4752 -0.7697  0.0335
 5003TIP3    H236425   1.126   6.571   2.116 -1.0863  0.5438 -0.9888
 5004TIP3   OH236426   4.201   2.704  14.600  0.3502  1.0502 -0.1508
 5004TIP3    H136427   4.127   2.733  14.654 -0.1514  0.5691 -0.5560
 5004TIP3    H236428   4.265   2.670  14.663 -0.7487 -0.6766  0.0997
 5005TIP3   OH236429   1.825   1.594   3.882 -0.1631 -0.3764 -1.1840
 5005TIP3    H136430   1.817   1.518   3.941  0.1827 -1.1540 -2.1088
 5005TIP3    H236431   1.745   1.590   3.829 -0.2397  0.0386 -1.1038
 5006TIP3   OH236432   0.776   4.482   4.524  0.4562  0.2040 -0.2608
 5006TIP3    H136433   0.859   4.525   4.545  0.7379 -1.0920  1.5215
 5006TIP3    H236434   0.787   4.392   4.555 -1.5404 -0.0512 -0.1614
 5007TIP3   OH236435   1.289   5.015   1.995 -0.1720  0.4772  0.5277
 5007TIP3    H136436   1.310   4.951   2.063 -1.6138  0.4827  1.0305
 5007TIP3    H236437   1.305   5.100   2.036 -0.7433  0.4744  0.7654
 5008TIP3   OH236438   0.816   6.371   3.793 -0.4252  0.1269  0.2430
 5008TIP3    H136439   0.764   6.407   3.866 -0.3564 -0.1521  0.4337
 5008TIP3    H236440   0.860   6.295   3.831 -0.9472 -0.4511 -0.2715
 5009TIP3   OH236441   5.894   6.120  12.562 -0.3839  0.5765 -0.3481
 5009TIP3    H136442   5.931   6.208  12.575 -2.3006  1.6603 -1.7096
 5009TIP3    H236443   5.961   6.073  12.514  1.0574  0.9555  1.1961
 5010TIP3   OH236444   3.654   2.102  16.874 -0.0945 -0.0053 -0.0757
 5010TIP3    H136445   3.708   2.028  16.847  1.2037  1.2765 -1.0796
 5010TIP3    H236446   3.715   2.173  16.890 -1.4085  1.3172 -0.6260
 5011TIP3   OH236447   3.270   4.513  13.757  0.0809  0.0924 -0.7236
 5011TIP3    H136448   3.227   4.504  13.842 -1.5335  0.3351 -1.4728
 5011TIP3    H236449   3.314   4.598  13.761  0.1596  0.0266 -0.0879
 5012TIP3   OH236450   4.484   3.989  14.926  0.4304 -0.4394  0.1295
 5012TIP3    H136451   4.541   4.059  14.895 -0.1605 -0.0406 -0.0716
 5012TIP3    H236452   4.399   4.031  14.940  0.1625 -1.0404  0.3445
 5013TIP3   OH236453   2.764   3.387   0.228  0.8247  0.3796  0.4899
 5013TIP3    H136454   2.798   3.451   0.165  0.8138  0.0442  0.1357
 5013TIP3    H236455   2.841   3.334   0.252  0.5458 -0.4889 -0.4408
 5014TIP3   OH236456   2.970   0.823  16.520 -0.0401 -0.0781 -0.3904
 5014TIP3    H136457   3.055   0.834  16.563  0.6132 -0.5609 -1.5096
 5014TIP3    H236458   2.957   0.906  16.473 -0.4515  0.2024  0.2061
 5015TIP3   OH236459   6.336   4.387   0.077  0.4101 -0.5166 -0.6816
 5015TIP3    H136460   6.323   4.458   0.140 -0.1657 -0.8268 -0.4494
 5015TIP3    H236461   6.424   4.355   0.095  0.2777 -0.5548 -0.0813
 5016TIP3   OH236462   5.187   2.321   5.192  0.5199 -0.2651  0.4024
 5016TIP3    H136463   5.192   2.410   5.157  1.9724  0.7487  2.8950
 5016TIP3    H236464   5.112   2.282   5.147  1.9239  0.9539 -3.3630
 5017TIP3   OH236465   6.634   5.654   1.956  0.3300  0.2135  0.4598
 5017TIP3    H136466   6.642   5.568   1.998  1.6699  0.0168 -0.1571
 5017TIP3    H236467   6.640   5.716   2.029 -3.2344 -0.1729  1.2808
 5018TIP3   OH236468   4.019   5.804   5.857  0.3442 -0.0918  0.1768
 5018TIP3    H136469   4.008   5.710   5.844  2.6906 -0.3284 -0.6534
 5018TIP3    H236470   3.954   5.827   5.923 -0.3628 -2.2732  0.3234
 5019TIP3   OH236471   6.588   2.229  11.222 -0.0913  0.4489 -0.0684
 5019TIP3    H136472   6.666   2.196  11.267  0.0059  0.6523 -0.0880
 5019TIP3    H236473   6.603   2.323  11.214 -1.1968  0.8183  1.6386
 5020TIP3   OH236474   3.718   2.831  12.807 -0.4012  0.4231  0.6540
 5020TIP3    H136475   3.650   2.811  12.743 -0.3315 -1.2296  1.0577
 5020TIP3    H236476   3.674   2.822  12.892  0.1965 -0.1662  0.9039
 5021TIP3   OH236477   1.141   2.496  16.918  0.8097  0.3011  0.2750
 5021TIP3    H136478   1.048   2.518  16.905  0.6465  0.9298  2.1677
 5021TIP3    H236479   1.188   2.556  16.860  0.0656  0.6917  0.0619
 5022TIP3   OH236480   5.919   5.852   3.600  0.2726 -0.2525 -0.1703
 5022TIP3    H136481   5.890   5.908   3.671 -1.7851  0.7826 -1.7187
 5022TIP3    H236482   5.953   5.912   3.533 -0.0633 -0.9877 -1.0314
 5023TIP3   OH236483   5.360   0.238   5.839 -0.0777  0.6641  0.2334
 5023TIP3    H136484   5.374   0.266   5.749 -1.0592  2.4047  0.5753
 5023TIP3    H236485   5.275   0.275   5.863 -1.0147 -1.8044  1.1236
 5024TIP3   OH236486   3.856   4.946   1.545 -0.0015  0.3511 -0.5117
 5024TIP3    H136487   3.887   4.928   1.634 -0.4398 -0.0700 -0.4411
 5024TIP3    H236488   3.770   4.985   1.557  0.4329  1.4062 -0.7148
 5025TIP3   OH236489   1.095   3.847  12.662  0.4831  0.3601 -0.2020
 5025TIP3    H136490   1.053   3.772  12.621  2.1645 -0.7628 -0.0112
 5025TIP3    H236491   1.104   3.912  12.592 -0.8382  0.3342 -0.4082
 5026TIP3   OH236492   3.587   0.955  11.001 -0.4267 -0.7775  0.3599
 5026TIP3    H136493   3.498   0.971  10.972  0.2389  1.4794 -0.6171
 5026TIP3    H236494   3.621   0.890  10.940 -0.8543 -0.3137 -0.3893
 5027TIP3   OH236495   4.213   4.855   3.265  0.0104 -0.4733 -0.0732
 5027TIP3    H136496   4.165   4.778   3.297  0.0207 -0.6237 -0.4128
 5027TIP3    H236497   4.260   4.887   3.342  0.7623 -1.3750 -0.1288
 5028TIP3   OH236498   1.580   6.051   4.065 -0.4578 -0.3169 -0.2391
 5028TIP3    H136499   1.490   6.028   4.041 -0.0869 -1.4171 -0.6208
 5028TIP3    H236500   1.633   6.026   3.989  0.0149  1.7437 -0.6550
 5029TIP3   OH236501   1.642   4.497  11.391 -0.3534  0.1714 -0.5831
 5029TIP3    H136502   1.627   4.415  11.343  0.0465  0.0779 -0.5563
 5029TIP3    H236503   1.577   4.557  11.357 -1.9822 -0.7113  0.7824
 5030TIP3   OH236504   2.482   0.239  11.945  0.1165 -0.0489  0.1006
 5030TIP3    H136505   2.415   0.203  12.002  0.3400  0.8499  0.9499
 5030TIP3    H236506   2.442   0.239  11.858 -0.8628  0.1619  0.5381
 5031TIP3   OH236507   1.166   0.934  14.695  0.5268  0.6860 -0.6772
 5031TIP3    H136508   1.184   0.883  14.775 -0.4395 -1.7330 -1.8873
 5031TIP3    H236509   1.083   0.977  14.712 -1.0095 -1.8525 -1.1567
 5032TIP3   OH236510   0.269   2.037   2.398 -0.3495 -0.0574 -0.1136
 5032TIP3    H136511   0.271   2.003   2.488 -0.3675  0.1676 -0.0276
 5032TIP3    H236512   0.360   2.058   2.379 -0.1713 -1.1998 -0.5697
 5033TIP3   OH236513   2.950   5.991   0.157 -0.2271  0.2139 -0.0311
 5033TIP3    H136514   2.857   5.968   0.164 -0.0467 -0.8883 -0.8932
 5033TIP3    H236515   2.995   5.906   0.151  0.7312  0.7580 -0.8247
 5034TIP3   OH236516   4.606   2.046  12.660  0.7839  0.5583 -0.6108
 5034TIP3    H136517   4.700   2.040  12.644  0.6208  1.0024 -1.9074
 5034TIP3    H236518   4.594   2.011  12.748  2.2847  1.3972 -0.0283
 5035TIP3   OH236519   1.120   3.738  14.233 -0.2515 -0.3058  0.3503
 5035TIP3    H136520   1.169   3.680  14.292  1.0937  0.9237  0.5166
 5035TIP3    H236521   1.075   3.799  14.291  0.9459  0.8068  0.1761
 5036TIP3   OH236522   0.190   5.467   1.253  0.2532 -0.4438 -0.1715
 5036TIP3    H136523   0.261   5.438   1.195  0.2176 -0.8345 -0.0207
 5036TIP3    H236524   0.185   5.561   1.239  2.1095 -0.0625  1.2361
 5037TIP3   OH236525   5.737   6.572   3.664 -0.4163 -0.3047  0.8005
 5037TIP3    H136526   5.766   6.486   3.694  0.0296 -0.6851 -0.6489
 5037TIP3    H236527   5.641   6.564   3.659 -0.2918 -1.3320 -0.9812
 5038TIP3   OH236528   3.406   0.097   1.607  0.3129 -0.2074 -0.0087
 5038TIP3    H136529   3.326   0.144   1.630  0.8011  0.9689 -0.5726
 5038TIP3    H236530   3.398   0.012   1.650 -1.4334 -0.2905 -0.4402
 5039TIP3   OH236531   5.230   6.610   3.858  0.2961  0.5941 -0.2219
 5039TIP3    H136532   5.185   6.554   3.794  0.7433  0.8257 -0.7531
 5039TIP3    H236533   5.160   6.649   3.909 -0.1237  1.0544 -1.1205
 5040TIP3   OH236534   3.296   4.336   3.542 -0.4844  0.1524  0.5731
 5040TIP3    H136535   3.207   4.301   3.555 -0.1861 -0.1916  1.7840
 5040TIP3    H236536   3.283   4.429   3.527 -1.1177 -0.0638 -0.3448
 5041TIP3   OH236537   5.374   0.414  12.833  0.0988 -0.0176  0.0786
 5041TIP3    H136538   5.354   0.336  12.782  1.1100  0.5080 -1.1973
 5041TIP3    H236539   5.398   0.480  12.767  1.1472  0.7763  1.2038
 5042TIP3   OH236540   1.955   1.331   1.867  0.0498  0.0594 -0.2881
 5042TIP3    H136541   1.863   1.326   1.839 -0.0143 -1.5952  0.1254
 5042TIP3    H236542   1.959   1.412   1.919 -0.8175  0.9229 -1.5096
 5043TIP3   OH236543   6.740   2.571   3.492 -0.5617  0.3904  0.3730
 5043TIP3    H136544   6.653   2.532   3.502 -0.2401 -0.1146  1.3641
 5043TIP3    H236545   6.723   2.663   3.472 -1.3435 -0.2271 -2.1305
 5044TIP3   OH236546   2.591   3.232  13.984  0.1783 -0.1269 -0.0139
 5044TIP3    H136547   2.522   3.166  13.989  0.1805 -0.2833 -1.5598
 5044TIP3    H236548   2.605   3.260  14.075 -1.1147 -0.9092  0.4441
 5045TIP3   OH236549   5.030   1.850  15.617 -0.5556  0.1708  0.2247
 5045TIP3    H136550   5.125   1.855  15.625 -0.6068  1.0404  0.4297
 5045TIP3    H236551   5.003   1.785  15.682 -0.2255  1.0304  1.2431
 5046TIP3   OH236552   1.056   5.927  12.241  0.2268 -0.1036  0.1729
 5046TIP3    H136553   1.046   6.005  12.186  0.1170 -0.1308  0.1528
 5046TIP3    H236554   1.048   5.960  12.331 -0.1371 -0.1374  0.1547
 5047TIP3   OH236555   2.573   3.381  11.483 -0.3429 -0.0689 -0.1220
 5047TIP3    H136556   2.587   3.329  11.562 -0.2796 -1.1644 -0.8340
 5047TIP3    H236557   2.586   3.320  11.410  0.0036  1.0057 -1.0050
 5048TIP3   OH236558   4.080   0.618  13.305 -0.1045 -0.2006 -0.9544
 5048TIP3    H136559   4.123   0.628  13.220  1.5644 -0.6564 -0.1912
 5048TIP3    H236560   4.070   0.523  13.315  0.8127 -0.2217 -0.1220
 5049TIP3   OH236561   5.353   2.809  17.003 -0.0097 -0.0514  0.6852
 5049TIP3    H136562   5.311   2.798  16.918 -1.0552 -0.1562  1.2059
 5049TIP3    H236563   5.301   2.875  17.049 -0.8688 -1.6185  2.1031
 5050TIP3   OH236564   2.963   0.358  16.689 -0.1955 -0.4246  0.2707
 5050TIP3    H136565   2.990   0.417  16.619 -0.7483  0.8608  1.1065
 5050TIP3    H236566   3.044   0.338  16.736 -0.0608  0.0502  0.2522
 5051TIP3   OH236567   5.347   3.199   1.785  0.2927 -0.4072  0.0321
 5051TIP3    H136568   5.418   3.199   1.850  2.0229 -1.6901 -1.7378
 5051TIP3    H236569   5.364   3.277   1.732  0.0284 -0.3918 -0.0278
 5052TIP3   OH236570   4.546   3.286   1.923  0.2247 -0.1569 -0.4577
 5052TIP3    H136571   4.623   3.320   1.968  0.7434 -2.3477  0.4250
 5052TIP3    H236572   4.477   3.285   1.989 -0.0001 -0.1190 -0.6886
 5053TIP3   OH236573   6.108   1.405  12.399 -0.3901 -0.0805  0.0313
 5053TIP3    H136574   6.103   1.310  12.408  1.1238 -0.1019  0.9499
 5053TIP3    H236575   6.089   1.422  12.307 -0.7542 -1.2615 -0.1219
 5054TIP3   OH236576   6.432   2.623   2.563 -0.0582 -0.1031 -0.2517
 5054TIP3    H136577   6.459   2.681   2.493  0.8349 -0.9731 -0.6532
 5054TIP3    H236578   6.497   2.637   2.632 -1.2811  1.2192  0.7183
 5055TIP3   OH236579   5.483   2.692  14.590 -0.0194 -0.1482  0.1934
 5055TIP3    H136580   5.390   2.679  14.570  0.3217 -0.6713 -1.2086
 5055TIP3    H236581   5.489   2.683  14.685 -1.4447  0.2331  0.3533
 5056TIP3   OH236582   3.032   2.137  14.562 -0.2815  0.1047 -0.3034
 5056TIP3    H136583   2.948   2.113  14.523 -1.1500 -0.4753  1.7770
 5056TIP3    H236584   3.076   2.053  14.578 -0.9581  0.1105  1.9753
 5057TIP3   OH236585   6.202   2.420   5.012  0.1040  0.5624  0.4121
 5057TIP3    H136586   6.124   2.425   5.068  0.8329  0.7663  1.4453
 5057TIP3    H236587   6.167   2.410   4.924 -1.0832 -0.3683  0.9514
 5058TIP3   OH236588   1.992   5.539   4.202  0.7325 -0.8186 -0.3426
 5058TIP3    H136589   2.054   5.506   4.266  0.9051  0.2803  0.0675
 5058TIP3    H236590   2.037   5.612   4.159 -0.5588  0.5766  0.5722
 5059TIP3   OH236591   1.615   5.561  11.885 -0.0409  0.0053 -0.6536
 5059TIP3    H136592   1.701   5.533  11.915 -0.0851 -0.4961 -0.9829
 5059TIP3    H236593   1.596   5.503  11.811 -1.0309 -0.4364 -0.0570
 5060TIP3   OH236594   5.847   1.549  17.246 -0.6103 -0.1608 -0.2168
 5060TIP3    H136595   5.802   1.471  17.213 -2.5263 -0.4951  2.7988
 5060TIP3    H236596   5.931   1.517  17.277  0.0170 -0.3519 -2.0441
 5061TIP3   OH236597   1.273   4.269  16.115  0.4416  0.0667  0.8299
 5061TIP3    H136598   1.235   4.212  16.049  1.0570 -1.3734  1.6675
 5061TIP3    H236599   1.201   4.325  16.143 -0.1389 -0.1880 -0.1257
 5062TIP3   OH236600   5.666   0.245   3.626 -0.1333 -0.0231 -0.1777
 5062TIP3    H136601   5.615   0.168   3.648  0.1691  0.2571  1.6688
 5062TIP3    H236602   5.678   0.240   3.531 -1.2214 -1.5334 -0.2639
 5063TIP3   OH236603   2.606   3.609  12.870 -0.1607  0.2318 -0.5396
 5063TIP3    H136604   2.524   3.640  12.908 -0.5541 -1.9723  0.4921
 5063TIP3    H236605   2.673   3.664  12.910 -0.8877  0.2065  0.7481
 5064TIP3   OH236606   2.530   3.962  15.173  0.0564  0.2197 -0.3029
 5064TIP3    H136607   2.530   3.879  15.127  0.0760 -0.9762  1.7124
 5064TIP3    H236608   2.606   3.957  15.231  0.3697  1.8890 -0.5220
 5065TIP3   OH236609   3.298   5.985  16.766  0.7064 -0.3207  0.3659
 5065TIP3    H136610   3.350   6.047  16.817  3.0972 -2.1947  0.3835
 5065TIP3    H236611   3.337   5.900  16.784 -1.5235 -1.6898 -0.7903
 5066TIP3   OH236612   5.059   5.584   5.682  0.3778 -0.2822 -0.0635
 5066TIP3    H136613   5.151   5.583   5.658  0.8313  0.5341  1.5015
 5066TIP3    H236614   5.019   5.649   5.625  1.2850  1.1425  0.8686
 5067TIP3   OH236615   0.118   3.333   4.112  0.2215  0.1387 -0.1653
 5067TIP3    H136616   0.067   3.360   4.036  0.2289  1.6132  0.3102
 5067TIP3    H236617   0.058   3.282   4.165 -0.4486  0.9322 -0.1396
 5068TIP3   OH236618   1.834   0.406  11.693 -0.1125 -0.4097 -0.1160
 5068TIP3    H136619   1.917   0.369  11.722 -0.4249 -2.1327 -1.2204
 5068TIP3    H236620   1.789   0.432  11.773  1.3455  0.2239  0.5098
 5069TIP3   OH236621   2.159   3.721  12.832 -0.3227 -0.1840 -0.7791
 5069TIP3    H136622   2.075   3.683  12.808 -1.6565  0.6084  2.1638
 5069TIP3    H236623   2.141   3.815  12.843  0.8778 -0.0181  0.0469
 5070TIP3   OH236624   0.344   0.050   0.532 -0.0749  0.1949 -0.7996
 5070TIP3    H136625   0.350   0.020   0.442  1.1983 -0.6392 -0.4654
 5070TIP3    H236626   0.433   0.040   0.567 -0.1178  2.1852  0.0228
 5071TIP3   OH236627   6.701   4.552   0.310 -0.1007  0.4721 -0.1097
 5071TIP3    H136628   6.615   4.589   0.329  0.1407  0.3974  1.2521
 5071TIP3    H236629   6.682   4.463   0.279 -0.5352  0.6431 -0.3419
 5072TIP3   OH236630   5.633   3.310  14.418 -0.4436 -0.4655  0.6000
 5072TIP3    H136631   5.668   3.347  14.337 -1.4669 -1.7950 -0.5289
 5072TIP3    H236632   5.695   3.335  14.486  1.1164 -0.3206 -0.8107
 5073TIP3   OH236633   4.423   0.548  15.194  0.0680  0.0144  0.2469
 5073TIP3    H136634   4.470   0.584  15.269  2.3294 -2.1031 -0.0186
 5073TIP3    H236635   4.491   0.503  15.143 -2.1973 -3.2301 -0.1877
 5074TIP3   OH236636   2.750   3.074  12.554 -0.1168  0.1198  0.0584
 5074TIP3    H136637   2.707   3.043  12.634 -0.2986  0.6539  0.1708
 5074TIP3    H236638   2.797   3.152  12.580  1.1199 -0.5687 -0.0247
 5075TIP3   OH236639   5.804   1.152   3.221  0.5319  0.0682  0.4864
 5075TIP3    H136640   5.894   1.127   3.201  0.5025  0.3138  0.0514
 5075TIP3    H236641   5.785   1.224   3.161 -0.2520 -0.5710 -0.0485
 5076TIP3   OH236642   2.342   4.338  12.938 -0.0168  0.2157  0.6980
 5076TIP3    H136643   2.378   4.249  12.938  0.3166  0.3466  0.5907
 5076TIP3    H236644   2.405   4.388  12.991  0.5885  0.6920 -0.4523
 5077TIP3   OH236645   5.434   4.491  17.040 -0.1905  0.3308 -0.2202
 5077TIP3    H136646   5.472   4.529  16.960 -1.9079 -0.2321 -1.3532
 5077TIP3    H236647   5.492   4.418  17.061 -1.0532 -1.1276 -2.4730
 5078TIP3   OH236648   4.295   2.788   0.833 -0.2996  0.2699  0.3207
 5078TIP3    H136649   4.358   2.716   0.842 -0.0017  0.6242  1.1595
 5078TIP3    H236650   4.349   2.867   0.835 -0.2777  0.5332 -3.3968
 5079TIP3   OH236651   1.082   0.655   3.589  0.8280 -0.3104  0.0867
 5079TIP3    H136652   1.148   0.696   3.646  1.1016 -1.2849  0.4804
 5079TIP3    H236653   1.124   0.577   3.555 -0.3226 -1.3074  0.8501
 5080TIP3   OH236654   3.364   0.365  13.408 -0.4881  0.3485 -0.6292
 5080TIP3    H136655   3.284   0.382  13.358  0.6952 -0.0505 -2.7436
 5080TIP3    H236656   3.346   0.283  13.454 -2.9216  2.4692  2.6206
 5081TIP3   OH236657   5.828   6.347   1.534  0.1077 -0.5451  0.5507
 5081TIP3    H136658   5.832   6.440   1.555  1.9646 -0.9293  2.2023
 5081TIP3    H236659   5.916   6.325   1.504 -0.6720 -1.5094 -1.1430
 5082TIP3   OH236660   1.225   4.700   3.814  0.0277 -0.1724 -0.0532
 5082TIP3    H136661   1.162   4.667   3.878 -0.6924  2.6984  0.8759
 5082TIP3    H236662   1.310   4.693   3.858 -0.2088 -0.0507  0.4311
 5083TIP3   OH236663   0.727   2.004   2.575  0.5642 -0.1561 -0.1921
 5083TIP3    H136664   0.635   1.982   2.561  0.6306 -0.1102 -0.7563
 5083TIP3    H236665   0.762   2.016   2.486  1.3193 -1.0201 -0.0339
 5084TIP3   OH236666   2.963   4.726  12.435 -1.0107  0.0507  0.2217
 5084TIP3    H136667   2.946   4.654  12.375 -2.6819 -0.6264  1.4385
 5084TIP3    H236668   2.885   4.781  12.431  0.7354  2.5840 -1.6351
 5085TIP3   OH236669   3.864   2.181  12.051 -0.1206  0.3103  0.0511
 5085TIP3    H136670   3.876   2.146  12.139  1.3021  1.5377  0.3885
 5085TIP3    H236671   3.924   2.131  11.996 -0.8191 -0.2796 -0.1893
 5086TIP3   OH236672   0.266   1.532  13.571 -0.1465 -0.2317  0.3895
 5086TIP3    H136673   0.202   1.512  13.503  2.0750 -2.7241 -1.1903
 5086TIP3    H236674   0.230   1.493  13.650  0.1659 -3.3857 -0.8750
 5087TIP3   OH236675   4.960   0.149  12.786 -0.4501 -0.3894 -0.3716
 5087TIP3    H136676   4.997   0.086  12.847 -2.0726  1.6051  2.9714
 5087TIP3    H236677   4.887   0.103  12.744 -2.4552 -0.5415  2.9658
 5088TIP3   OH236678   6.440   2.201   2.001  0.0509 -0.0420  0.0407
 5088TIP3    H136679   6.429   2.111   1.972  1.4994 -0.1311 -0.3043
 5088TIP3    H236680   6.358   2.222   2.045 -1.1659 -0.7930 -1.7584
 5089TIP3   OH236681   0.019   2.143   6.009 -0.1357  0.0853 -0.2202
 5089TIP3    H136682  -0.072   2.138   5.981  0.1911  1.6551 -1.7493
 5089TIP3    H236683   0.063   2.075   5.959 -0.6235 -1.5133  1.4334
 5090TIP3   OH236684   5.333   4.269   0.394  0.4258 -0.4423 -0.1179
 5090TIP3    H136685   5.369   4.285   0.306 -1.3765  0.6114 -0.7313
 5090TIP3    H236686   5.369   4.340   0.447 -2.2334  1.9953 -1.2506
 5091TIP3   OH236687   3.657   2.217   4.729  0.1706  0.2579  0.2499
 5091TIP3    H136688   3.710   2.288   4.693  0.1415  0.9182  1.4696
 5091TIP3    H236689   3.570   2.255   4.740  0.0151 -0.1348  0.4051
 5092TIP3   OH236690   3.982   3.812  15.497 -0.4959 -0.0833 -0.4261
 5092TIP3    H136691   3.982   3.899  15.457  0.1935 -0.4029 -1.1533
 5092TIP3    H236692   4.047   3.763  15.446  0.1552 -0.6093  0.8790
 5093TIP3   OH236693   4.147   3.312   6.737  0.3708 -0.6194  0.0754
 5093TIP3    H136694   4.241   3.329   6.748  0.3021  0.9353 -1.3152
 5093TIP3    H236695   4.139   3.285   6.646 -0.4037 -2.0225  0.5315
 5094TIP3   OH236696   4.242   4.191  14.892 -0.9368 -0.2312 -0.3172
 5094TIP3    H136697   4.303   4.263  14.875 -0.4293 -0.3408  0.9008
 5094TIP3    H236698   4.157   4.224  14.864 -0.5789  0.5448 -0.5052
 5095TIP3   OH236699   6.452   6.493  15.605 -0.2343 -0.0256  0.2347
 5095TIP3    H136700   6.462   6.588  15.612  0.8775 -0.0146 -0.9857
 5095TIP3    H236701   6.512   6.457  15.670 -0.2067  0.1048  0.2801
 5096TIP3   OH236702   5.469   3.732   3.827  0.5023 -0.0827  0.3085
 5096TIP3    H136703   5.484   3.824   3.844 -0.7461  0.4408 -1.1932
 5096TIP3    H236704   5.374   3.725   3.812  0.6258 -1.5245 -0.0237
 5097TIP3   OH236705   1.899   1.798  16.171 -0.6287  0.8983 -0.8403
 5097TIP3    H136706   1.956   1.874  16.181 -2.2944  2.0355  0.6605
 5097TIP3    H236707   1.956   1.729  16.137  1.9253  1.6372  1.5957
 5098TIP3   OH236708   4.769   2.472   0.339  0.6401  0.2764 -0.4307
 5098TIP3    H136709   4.701   2.539   0.330  0.4848  0.3265  0.9114
 5098TIP3    H236710   4.727   2.391   0.311 -0.1722  0.2091  0.9058
 5099TIP3   OH236711   0.302   2.871  11.081 -0.3256  0.1300  0.2416
 5099TIP3    H136712   0.218   2.828  11.063 -0.0703 -0.1110 -0.4143
 5099TIP3    H236713   0.357   2.847  11.007 -0.2033  1.6763 -0.2148
 5100TIP3   OH236714   2.996   0.545   6.779  0.2382 -0.3980 -0.6157
 5100TIP3    H136715   3.057   0.504   6.717 -0.5465  2.1066 -3.2987
 5100TIP3    H236716   2.918   0.562   6.727 -0.2132  2.5289  0.8236
 5101TIP3   OH236717   5.860   3.800   1.693 -0.0500  0.7581 -0.8010
 5101TIP3    H136718   5.880   3.816   1.601  0.9197 -0.1616 -0.7746
 5101TIP3    H236719   5.877   3.707   1.705  1.7650  1.2295  0.7623
 5102TIP3   OH236720   5.125   0.042  13.071 -0.4336 -0.7622  0.0019
 5102TIP3    H136721   5.219   0.029  13.057 -0.6784 -0.6180 -2.1928
 5102TIP3    H236722   5.087  -0.045  13.058 -0.6780 -0.6890  0.2264
 5103TIP3   OH236723   3.697   6.548  12.927 -0.8047 -0.1830  0.0084
 5103TIP3    H136724   3.645   6.519  12.852  0.2979 -0.0856 -0.8180
 5103TIP3    H236725   3.635   6.549  13.000 -2.4076  1.6018 -1.2807
 5104TIP3   OH236726   0.793   0.717  12.193  0.0523 -0.4243 -0.6604
 5104TIP3    H136727   0.714   0.741  12.144  0.0580  0.0262 -0.4513
 5104TIP3    H236728   0.821   0.798  12.236 -0.1563 -0.8783  0.3726
 5105TIP3   OH236729   3.205   0.775  12.504 -0.1164  0.3564 -0.0226
 5105TIP3    H136730   3.262   0.797  12.577  0.7781  2.4664 -1.2632
 5105TIP3    H236731   3.248   0.701  12.461 -0.6226 -0.8762  1.4588
 5106TIP3   OH236732   0.227   2.274  14.838  0.7516 -0.4835 -0.7546
 5106TIP3    H136733   0.175   2.199  14.809 -1.0713  0.1747  0.6282
 5106TIP3    H236734   0.271   2.243  14.917  0.0653 -0.1454 -0.2315
 5107TIP3   OH236735   5.257   0.475  11.880 -0.3093  0.9633 -0.3793
 5107TIP3    H136736   5.331   0.522  11.918  0.4498 -0.7118  0.2951
 5107TIP3    H236737   5.234   0.526  11.802  1.5727  1.4922 -0.6340
 5108TIP3   OH236738   0.714   6.580  11.480  0.1507  0.1120  0.1109
 5108TIP3    H136739   0.654   6.629  11.424 -1.1070 -0.5655  0.8379
 5108TIP3    H236740   0.704   6.489  11.454  0.3296 -0.0920  0.7304
 5109TIP3   OH236741   5.499   1.344  16.895 -0.5225 -0.1209 -0.0904
 5109TIP3    H136742   5.447   1.264  16.885  0.5036 -0.6159 -2.0503
 5109TIP3    H236743   5.525   1.344  16.987 -1.1681 -1.6476  0.1298
 5110TIP3   OH236744   5.203   0.069  14.406 -0.1308 -0.8969 -0.1431
 5110TIP3    H136745   5.295   0.095  14.415 -0.2760 -0.7411  1.0217
 5110TIP3    H236746   5.206  -0.016  14.364  0.4814 -0.3027 -1.3556
 5111TIP3   OH236747   5.612   3.676  12.574  0.0847 -0.5888 -0.0293
 5111TIP3    H136748   5.545   3.640  12.515 -1.8743  2.2652  0.2393
 5111TIP3    H236749   5.675   3.718  12.516  1.4550 -2.8531 -0.2620
 5112TIP3   OH236750   3.650   4.854   3.877 -0.2709 -0.4671  0.4225
 5112TIP3    H136751   3.642   4.908   3.798  0.6815  0.2062  0.7647
 5112TIP3    H236752   3.563   4.856   3.916 -0.1187  1.4366  0.7862
 5113TIP3   OH236753   2.578   4.089   4.571  0.0427 -0.0252  0.4664
 5113TIP3    H136754   2.570   4.169   4.520 -1.6240 -0.4212  0.0388
 5113TIP3    H236755   2.611   4.024   4.509 -1.1851 -0.3053  0.0941
 5114TIP3   OH236756   4.208   3.826  10.728  0.8199 -0.1411 -0.1785
 5114TIP3    H136757   4.119   3.853  10.750  0.9039  0.5922 -0.6978
 5114TIP3    H236758   4.206   3.730  10.732 -0.0087 -0.1341 -0.2440
 5115TIP3   OH236759   1.736   5.574  12.583 -0.0684  0.2852  0.3344
 5115TIP3    H136760   1.800   5.619  12.639 -1.5599 -1.2492  3.4946
 5115TIP3    H236761   1.773   5.487  12.570  1.1291  1.1140 -2.8327
 5116TIP3   OH236762   5.586   0.171  11.045  0.3120 -0.3677  0.6396
 5116TIP3    H136763   5.575   0.250  11.097 -0.9014  0.8865 -1.4034
 5116TIP3    H236764   5.497   0.137  11.033  0.3475  0.1809 -1.7058
 5117TIP3   OH236765   5.167   3.791   4.488 -0.4966 -0.5013  0.4920
 5117TIP3    H136766   5.240   3.813   4.545 -0.3008  0.6985 -0.1898
 5117TIP3    H236767   5.177   3.697   4.470  0.8719 -0.3597  0.4156
 5118TIP3   OH236768   2.564   1.479  16.021  0.1628 -0.1014 -0.0356
 5118TIP3    H136769   2.479   1.515  16.047  0.3362  0.1856  0.1312
 5118TIP3    H236770   2.609   1.552  15.978  0.4470 -0.1672  0.1513
 5119TIP3   OH236771   0.397   2.318  13.440 -0.3861  0.0655  0.6120
 5119TIP3    H136772   0.310   2.280  13.432 -0.1363 -0.4358  0.2589
 5119TIP3    H236773   0.384   2.411  13.421 -0.5042 -0.3571 -1.6422
 5120TIP3   OH236774   6.160   3.343  13.506 -0.1930  0.0965  0.1630
 5120TIP3    H136775   6.208   3.327  13.587 -0.2712 -1.2356 -0.0357
 5120TIP3    H236776   6.225   3.331  13.437 -0.6017 -0.8707 -0.0676
 5121TIP3   OH236777   0.706   3.513   6.352  0.4972  0.0126 -0.1342
 5121TIP3    H136778   0.681   3.466   6.272  0.1530 -1.5874  0.8705
 5121TIP3    H236779   0.774   3.459   6.391 -1.3031 -0.8068  2.0885
 5122TIP3   OH236780   0.152   3.143  13.586  0.3834 -0.0440  0.4212
 5122TIP3    H136781   0.171   3.053  13.561  1.3345  0.2956 -0.1375
 5122TIP3    H236782   0.097   3.135  13.664  0.6817 -1.1000  0.5439
 5123TIP3   OH236783   1.888   2.363  13.043 -0.2845  0.2928 -0.1516
 5123TIP3    H136784   1.959   2.340  13.103  0.5232  0.2848 -1.0815
 5123TIP3    H236785   1.834   2.425  13.092  0.0264 -0.1614  0.7841
 5124TIP3   OH236786   5.840   0.809   5.252 -0.2915  0.5755 -0.3118
 5124TIP3    H136787   5.846   0.903   5.269 -1.1883  0.7049 -0.6619
 5124TIP3    H236788   5.820   0.770   5.337  0.1836  0.6804 -0.1456
 5125TIP3   OH236789   2.219   0.650   0.023 -0.0387  0.3623  0.3792
 5125TIP3    H136790   2.170   0.583  -0.025 -0.9139 -0.1673  1.9693
 5125TIP3    H236791   2.268   0.602   0.089  0.1851  1.2052  0.8451
 5126TIP3   OH236792   2.859   2.193   3.316 -0.4664 -0.3077  0.4630
 5126TIP3    H136793   2.933   2.201   3.376  0.2799 -2.8317 -0.0010
 5126TIP3    H236794   2.900   2.184   3.230 -1.5061  3.2566 -0.5862
 5127TIP3   OH236795   1.860   6.727  15.122 -0.2784 -0.0719 -0.0167
 5127TIP3    H136796   1.873   6.683  15.206 -3.6495 -0.0175  0.6511
 5127TIP3    H236797   1.857   6.656  15.058  0.0339 -0.2982  0.2130
 5128TIP3   OH236798   4.306   1.498   0.616 -0.0074 -0.0375 -0.2227
 5128TIP3    H136799   4.315   1.413   0.572  4.0408  1.1588 -2.2142
 5128TIP3    H236800   4.232   1.539   0.572  0.5417 -1.0245 -2.2147
 5129TIP3   OH236801   6.706   0.219  13.838 -0.1451  0.0601  0.0724
 5129TIP3    H136802   6.613   0.211  13.859 -0.0989  0.6892  0.5726
 5129TIP3    H236803   6.708   0.272  13.758 -0.3207 -2.3114 -1.5928
 5130TIP3   OH236804   2.555   3.115   4.190 -0.0930  0.7241 -0.1206
 5130TIP3    H136805   2.640   3.122   4.147  0.4614  0.4473  0.9101
 5130TIP3    H236806   2.511   3.198   4.170  0.9075  1.3781  0.3539
 5131TIP3   OH236807   6.240   2.394  11.187  0.7985  0.1884 -0.2648
 5131TIP3    H136808   6.274   2.306  11.197 -1.2347 -0.5307  0.9164
 5131TIP3    H236809   6.301   2.450  11.235  1.7579 -0.6459 -0.4993
 5132TIP3   OH236810   4.857   0.482  11.511  0.3447  0.0833 -0.4656
 5132TIP3    H136811   4.874   0.396  11.549  0.4714  0.1338 -0.4084
 5132TIP3    H236812   4.763   0.484  11.497  0.3883 -0.2184 -0.8298
 5133TIP3   OH236813   0.900   1.579  14.892  0.6011 -0.2560  0.7176
 5133TIP3    H136814   0.877   1.579  14.799  0.7721  1.3201  0.6512
 5133TIP3    H236815   0.820   1.607  14.936  0.8206  0.0103  0.9497
 5134TIP3   OH236816   0.634   1.198  11.883 -0.1568 -0.2336  0.0463
 5134TIP3    H136817   0.640   1.113  11.840  1.0136 -0.4102  0.5279
 5134TIP3    H236818   0.656   1.262  11.815 -0.3044 -0.3637 -0.1243
 5135TIP3   OH236819   2.082   0.130  13.309  0.1681 -0.5716 -0.1385
 5135TIP3    H136820   2.072   0.066  13.380  0.8101 -0.2023  0.2961
 5135TIP3    H236821   2.160   0.180  13.333 -0.1264  0.1453 -0.6498
 5136TIP3   OH236822   1.885   3.185  12.690 -0.1407  0.9068  0.1130
 5136TIP3    H136823   1.928   3.109  12.652 -0.1388  0.2382  1.4256
 5136TIP3    H236824   1.807   3.150  12.732 -0.7825  1.8070 -0.2911
 5137TIP3   OH236825   0.481   5.297  15.038  0.1937  0.6065  0.5416
 5137TIP3    H136826   0.512   5.361  14.973 -0.7286 -0.0044 -0.5245
 5137TIP3    H236827   0.490   5.343  15.122 -0.5387  2.1886 -0.1988
 5138TIP3   OH236828   3.460   1.174   2.065  0.3238  0.5484  0.6440
 5138TIP3    H136829   3.476   1.264   2.093 -0.2309  0.8607 -0.0015
 5138TIP3    H236830   3.403   1.183   1.989  0.4564 -0.3431  0.4298
 5139TIP3   OH236831   6.164   1.523  17.062 -0.4828 -0.0070  0.1674
 5139TIP3    H136832   6.111   1.526  17.142 -0.8714 -1.8155  0.0233
 5139TIP3    H236833   6.242   1.574  17.082  0.0212 -1.4703  2.1838
 5140TIP3   OH236834   1.492   6.455   2.543  0.0797 -0.3204 -0.7669
 5140TIP3    H136835   1.443   6.499   2.473 -0.0465 -0.2931 -0.6625
 5140TIP3    H236836   1.557   6.402   2.497  0.8821  0.7198 -0.8814
 5141TIP3   OH236837   1.782   2.836   4.010  0.2024  0.7322  0.5683
 5141TIP3    H136838   1.848   2.823   4.078 -0.3572 -1.1594  0.8199
 5141TIP3    H236839   1.772   2.749   3.970  0.0818  1.6689 -1.5448
 5142TIP3   OH236840   1.664   1.186  12.575  0.2527 -0.1807 -0.1929
 5142TIP3    H136841   1.660   1.277  12.545  2.1805 -0.5692 -1.8253
 5142TIP3    H236842   1.756   1.171  12.596 -0.2759 -1.3613  1.4307
 5143TIP3   OH236843   3.522   0.187   0.056 -0.7601 -0.6847  0.3761
 5143TIP3    H136844   3.602   0.234   0.080  1.3623 -2.8435 -1.8351
 5143TIP3    H236845   3.490   0.150   0.138  0.3671  0.4403  1.3689
 5144TIP3   OH236846   3.376   0.388   5.119  0.2551  0.0801  0.2464
 5144TIP3    H136847   3.281   0.374   5.118  0.4018 -1.3170 -1.9394
 5144TIP3    H236848   3.388   0.478   5.089 -0.3723 -0.2978 -1.2290
 5145TIP3   OH236849   4.015   3.606   4.084  0.1435 -0.5042 -0.1447
 5145TIP3    H136850   4.054   3.519   4.097  0.9677 -0.0809  0.3046
 5145TIP3    H236851   3.995   3.636   4.173  1.2024  0.3520 -0.1734
 5146TIP3   OH236852   1.432   1.622  15.999 -0.2048 -0.3099  0.0285
 5146TIP3    H136853   1.454   1.684  15.930 -1.1629 -0.2917 -0.2742
 5146TIP3    H236854   1.422   1.676  16.077  2.1912 -0.4716  0.5300
 5147TIP3   OH236855   0.497   4.290  14.643  0.3793 -1.3910  0.2584
 5147TIP3    H136856   0.402   4.274  14.650  0.3738 -0.9632  1.5115
 5147TIP3    H236857   0.504   4.366  14.586 -0.1773 -0.3461  1.5121
 5148TIP3   OH236858   0.253   4.391  17.230 -0.0616  0.9322 -0.2324
 5148TIP3    H136859   0.326   4.329  17.230 -0.1914  0.6100  2.8822
 5148TIP3    H236860   0.184   4.348  17.179  0.5386 -0.5775  0.1846
 5149TIP3   OH236861   4.358   1.338   6.679  0.1507 -0.0765 -0.3665
 5149TIP3    H136862   4.453   1.345   6.691  0.0977 -1.0912  0.7237
 5149TIP3    H236863   4.344   1.367   6.589  1.3185  1.5148 -0.0787
 5150TIP3   OH236864   1.205   6.603   2.671 -0.5322 -0.5358  0.2807
 5150TIP3    H136865   1.167   6.690   2.686  1.3302  0.4961 -0.5206
 5150TIP3    H236866   1.243   6.609   2.583  3.5792 -0.5364  1.8547
 5151TIP3   OH236867   0.671   2.774   4.595 -0.5323 -0.4356  0.1743
 5151TIP3    H136868   0.763   2.746   4.600 -0.5089 -0.5514 -0.7083
 5151TIP3    H236869   0.621   2.693   4.584 -0.7351 -0.3657  0.5695
 5152TIP3   OH236870   0.492   5.843  11.385 -0.1679 -0.0240 -0.3097
 5152TIP3    H136871   0.532   5.801  11.309 -2.0093 -1.4380 -0.5662
 5152TIP3    H236872   0.399   5.845  11.365 -0.9067 -1.5938  2.3907
 5153TIP3   OH236873   1.342   1.140  12.111  0.2095  0.0706  0.4817
 5153TIP3    H136874   1.339   1.050  12.079 -0.2937 -0.1326  1.0703
 5153TIP3    H236875   1.370   1.132  12.203 -0.5792  0.4457  0.7647
 5154TIP3   OH236876   5.978   2.143   0.329 -0.1605  0.0072 -0.5966
 5154TIP3    H136877   5.913   2.180   0.270 -0.3693 -0.6985 -0.8202
 5154TIP3    H236878   6.009   2.217   0.381  0.4484  0.7587 -1.9782
 5155TIP3   OH236879   2.643   0.058   5.948  0.0393 -0.2174 -0.5840
 5155TIP3    H136880   2.710   0.110   5.993 -0.6848  0.1260  0.1089
 5155TIP3    H236881   2.692  -0.013   5.908  0.7699 -0.2323  0.2972
 5156TIP3   OH236882   6.624   2.335   3.249  0.0456 -0.7599  0.5552
 5156TIP3    H136883   6.619   2.427   3.273  1.7373 -0.6871  0.7013
 5156TIP3    H236884   6.655   2.291   3.328  0.7538 -1.2274  0.0325
 5157TIP3   OH236885   6.275   5.250   5.059  0.2716  0.1094  0.4335
 5157TIP3    H136886   6.209   5.231   5.125  1.3390 -0.5713  1.3491
 5157TIP3    H236887   6.230   5.238   4.975 -0.9465  0.4089  1.0256
 5158TIP3   OH236888   5.962   4.683  11.374  1.0701 -0.2787 -0.7098
 5158TIP3    H136889   5.897   4.657  11.309 -0.7819  1.2443  0.4301
 5158TIP3    H236890   5.991   4.600  11.413 -0.1917 -1.0025 -1.2501
 5159TIP3   OH236891   5.437   6.733   1.391  0.3516 -0.2900  0.6008
 5159TIP3    H136892   5.401   6.664   1.447  0.3288 -0.0186  0.9282
 5159TIP3    H236893   5.526   6.705   1.373  0.5026 -0.1651  1.1397
 5160TIP3   OH236894   2.357   5.943   1.930  0.3322  0.0637 -0.3238
 5160TIP3    H136895   2.384   6.015   1.988  0.8873 -0.6878  0.3864
 5160TIP3    H236896   2.388   5.864   1.975 -0.2345 -0.6172 -1.1045
 5161TIP3   OH236897   1.130   2.551   5.778  0.0775 -0.1523  0.0429
 5161TIP3    H136898   1.112   2.610   5.850  0.8433  0.0576  0.0663
 5161TIP3    H236899   1.070   2.478   5.791  0.4459 -0.2785  1.0858
 5162TIP3   OH236900   4.199   3.298  12.918 -0.1096 -0.0947  0.1146
 5162TIP3    H136901   4.193   3.394  12.916  0.4843 -0.0618 -1.1121
 5162TIP3    H236902   4.140   3.272  12.989 -1.0360  1.1275 -0.1644
 5163TIP3   OH236903   2.254   4.689  11.199  0.1531  0.2979 -0.3957
 5163TIP3    H136904   2.289   4.692  11.110 -0.5389  0.2192 -0.6700
 5163TIP3    H236905   2.163   4.717  11.191  0.5057  1.8104  0.5136
 5164TIP3   OH236906   5.438   2.121   2.707  0.5655 -0.0497 -0.1570
 5164TIP3    H136907   5.372   2.178   2.667 -0.7872  0.3560  2.4191
 5164TIP3    H236908   5.456   2.162   2.792  0.1695 -2.9733  1.4541
 5165TIP3   OH236909   1.062   5.269   2.208  0.0520 -0.4265  0.2117
 5165TIP3    H136910   1.098   5.214   2.278  0.2268 -2.5567 -1.4436
 5165TIP3    H236911   1.139   5.300   2.160 -0.0417  1.4135  1.1704
 5166TIP3   OH236912   3.049   4.709  10.765 -0.0287  0.4575 -0.2498
 5166TIP3    H136913   3.013   4.738  10.681  0.2974  1.3872 -0.0790
 5166TIP3    H236914   2.981   4.733  10.829 -0.0666  0.1876 -0.1872
 5167TIP3   OH236915   3.918   2.598   2.873  0.2529  0.2106 -0.0716
 5167TIP3    H136916   3.931   2.680   2.826  0.0241  0.2488 -0.0656
 5167TIP3    H236917   4.007   2.565   2.888  0.6065  2.1018  2.8798
 5168TIP3   OH236918   5.412   2.294   6.032 -0.6494 -0.0154  0.3667
 5168TIP3    H136919   5.320   2.312   6.052 -0.4187  0.4960  1.0035
 5168TIP3    H236920   5.456   2.378   6.042 -0.2881 -0.0057 -1.0934
 5169TIP3   OH236921   1.356   6.190   5.286 -0.1630 -0.6506 -0.4511
 5169TIP3    H136922   1.263   6.173   5.267 -0.2618 -0.3348 -0.2625
 5169TIP3    H236923   1.359   6.284   5.305  0.1690 -0.6935 -0.2977
 5170TIP3   OH236924   6.011   3.672  12.223  0.3636 -0.2071 -0.4059
 5170TIP3    H136925   5.942   3.642  12.163  0.4460  1.8226 -1.6135
 5170TIP3    H236926   6.019   3.602  12.287 -2.1003 -0.9690 -0.8200
 5171TIP3   OH236927   6.474   4.018   6.433 -0.3085 -0.1206 -0.3452
 5171TIP3    H136928   6.551   4.044   6.484 -0.6609 -0.6934  0.5087
 5171TIP3    H236929   6.472   3.922   6.441 -1.1596 -0.1031 -0.2783
 5172TIP3   OH236930   2.110   1.903  11.504  0.2582  0.0197 -0.1676
 5172TIP3    H136931   2.137   1.824  11.457 -0.4341 -0.8785  0.8752
 5172TIP3    H236932   2.134   1.975  11.447  2.7922 -0.8149 -0.2793
 5173TIP3   OH236933   0.981   2.182   6.806 -0.0277  0.6528  0.8193
 5173TIP3    H136934   0.888   2.160   6.810  0.2220 -0.2769  2.7019
 5173TIP3    H236935   1.025   2.104   6.840  1.6999 -0.0625 -2.5382
 5174TIP3   OH236936   0.155   5.618   3.220  0.4049 -0.1382  0.1139
 5174TIP3    H136937   0.065   5.645   3.202 -0.7600 -4.1319 -1.0430
 5174TIP3    H236938   0.153   5.588   3.311  0.7916  0.4421  0.3205
 5175TIP3   OH236939   0.411   0.085  15.671  0.1089  0.5528 -0.4408
 5175TIP3    H136940   0.472   0.157  15.654 -0.2252  0.6472 -1.3035
 5175TIP3    H236941   0.346   0.092  15.602 -0.8877  0.4449  0.4557
 5176TIP3   OH236942   0.157   5.150  10.585 -0.9379  0.1467 -0.2266
 5176TIP3    H136943   0.148   5.210  10.511 -0.6886 -0.0165 -0.3911
 5176TIP3    H236944   0.232   5.095  10.562  0.9025  1.8394  1.3419
 5177TIP3   OH236945   5.760   1.015  12.924 -0.8873  0.5930  0.3224
 5177TIP3    H136946   5.765   1.008  13.020 -1.2597  0.4011  0.3309
 5177TIP3    H236947   5.667   1.028  12.906 -1.1812 -1.6412 -0.1433
 5178TIP3   OH236948   2.649   0.647   5.391  0.4361  0.2265  0.0279
 5178TIP3    H136949   2.593   0.569   5.392  1.1829 -0.3318  0.4860
 5178TIP3    H236950   2.717   0.627   5.456 -0.9061  2.4337  2.2442
 5179TIP3   OH236951   2.675   4.900   1.795 -0.2843 -0.0159 -0.0333
 5179TIP3    H136952   2.698   4.917   1.886 -0.6611  1.2634 -0.1461
 5179TIP3    H236953   2.601   4.958   1.778  1.0744  1.3459 -1.7230
 5180TIP3   OH236954   2.787   1.315   2.859 -0.2333 -0.3338  0.2412
 5180TIP3    H136955   2.762   1.242   2.915 -1.8298  1.1599  1.6193
 5180TIP3    H236956   2.832   1.376   2.918 -1.1456  0.8658 -0.2420
 5181TIP3   OH236957   5.454   3.838   4.117 -0.0882 -0.8950 -0.2534
 5181TIP3    H136958   5.364   3.869   4.124  0.7042  1.4553  0.1255
 5181TIP3    H236959   5.450   3.747   4.147 -1.9841 -0.1873  1.9005
 5182TIP3   OH236960   0.039   6.030  11.180  0.4677  0.6327  0.4314
 5182TIP3    H136961  -0.001   6.013  11.095  2.1844  1.5983 -0.6255
 5182TIP3    H236962   0.019   5.952  11.232 -1.5896  0.5097 -0.4385
 5183TIP3   OH236963   6.580   3.740  15.939 -0.0040  0.3963 -0.8070
 5183TIP3    H136964   6.569   3.749  15.845  1.6375  0.6326 -1.0087
 5183TIP3    H236965   6.556   3.649  15.957  0.0027  0.2521 -1.5073
 5184TIP3   OH236966   6.693   4.687   3.298 -0.4549 -0.2823  0.7282
 5184TIP3    H136967   6.699   4.711   3.391  1.8168  0.2260  0.5084
 5184TIP3    H236968   6.741   4.756   3.252 -4.0413  1.1436 -1.2262
 5185TIP3   OH236969   1.409   5.608  15.077 -0.2229 -0.5651 -0.0067
 5185TIP3    H136970   1.466   5.677  15.111  1.1879 -2.0999  0.9217
 5185TIP3    H236971   1.354   5.584  15.152 -1.5471  0.3136 -0.6555
 5186TIP3   OH236972   6.284   3.194   0.904  0.5092 -0.4042  0.2993
 5186TIP3    H136973   6.234   3.271   0.877  0.2413 -0.5484  0.3885
 5186TIP3    H236974   6.222   3.139   0.950  0.1463 -1.6735 -1.5666
 5187TIP3   OH236975   2.659   6.770   4.876  0.4228 -0.4179  0.6001
 5187TIP3    H136976   2.601   6.790   4.950 -0.6637 -0.8292 -0.1174
 5187TIP3    H236977   2.627   6.824   4.805  1.6827  0.2292  0.5006
 5188TIP3   OH236978   6.299   5.648   2.785  0.4228  0.1286  0.2157
 5188TIP3    H136979   6.342   5.642   2.871  1.5580  0.2576 -0.3248
 5188TIP3    H236980   6.208   5.670   2.806  0.2028 -1.7294  1.4664
 5189TIP3   OH236981   4.652   2.473  15.306  0.2334  0.0595 -0.0405
 5189TIP3    H136982   4.644   2.568  15.297 -0.6193 -0.0923 -1.1162
 5189TIP3    H236983   4.744   2.455  15.288 -0.0495  0.4836 -2.0995
 5190TIP3   OH236984   3.825   5.902  13.971 -1.0328  0.6404 -0.4187
 5190TIP3    H136985   3.811   5.812  14.000  2.8644  0.0882  0.2372
 5190TIP3    H236986   3.826   5.953  14.052 -2.6643  1.2842 -0.7493
 5191TIP3   OH236987   1.091   4.748   6.049  0.7167  0.3343 -0.1404
 5191TIP3    H136988   1.024   4.790   6.103 -1.2899 -2.3240 -0.3578
 5191TIP3    H236989   1.046   4.725   5.968  2.1008 -0.8457 -0.6183
 5192TIP3   OH236990   6.364   4.556   0.359 -0.6713 -0.0094  0.3759
 5192TIP3    H136991   6.338   4.550   0.451 -0.1212  4.3782  1.0376
 5192TIP3    H236992   6.330   4.641   0.330  1.5782  0.0174 -2.6653
 5193TIP3   OH236993   3.921   3.690   4.354  0.5108  1.2596  0.0923
 5193TIP3    H136994   3.914   3.724   4.443 -0.3997  1.3218  0.0072
 5193TIP3    H236995   3.830   3.680   4.325  0.7328 -0.7670 -0.0677
 5194TIP3   OH236996   2.395   2.712  12.238  0.7694 -0.1557 -0.1417
 5194TIP3    H136997   2.316   2.748  12.197  0.0263  0.1234  1.4401
 5194TIP3    H236998   2.362   2.651  12.304  1.9368 -1.1815 -0.4721
 5195TIP3   OH236999   3.608   3.441   2.487  0.0545 -0.0205  0.0613
 5195TIP3    H137000   3.686   3.462   2.436  0.4218 -0.1078  0.5759
 5195TIP3    H237001   3.603   3.345   2.483 -0.1216 -0.0053 -0.1051
 5196TIP3   OH237002   4.405   4.686   6.613 -0.0634  0.6925 -0.0930
 5196TIP3    H137003   4.474   4.642   6.563  1.0959  1.4123  0.8121
 5196TIP3    H237004   4.342   4.617   6.633  0.5073 -0.0362 -0.7456
 5197TIP3   OH237005   3.581   3.428  12.246 -0.1190 -0.3437 -0.2395
 5197TIP3    H137006   3.637   3.458  12.317  0.3482  0.5385 -0.9649
 5197TIP3    H237007   3.536   3.506  12.215 -0.2394 -0.7011 -0.9900
 5198TIP3   OH237008   6.483   3.771   5.378  0.1674  0.4293 -0.1776
 5198TIP3    H137009   6.467   3.811   5.293 -1.4659 -0.6080 -0.4036
 5198TIP3    H237010   6.426   3.819   5.439 -0.0939 -0.0306 -0.0439
 5199TIP3   OH237011   2.032   3.247  14.593  0.0247 -0.1055 -0.0403
 5199TIP3    H137012   1.968   3.317  14.582 -1.1982 -1.2867 -0.7707
 5199TIP3    H237013   2.109   3.290  14.629 -1.0769  1.4092  0.6061
 5200TIP3   OH237014   2.687   1.462   3.300 -0.4145  0.5344 -0.4378
 5200TIP3    H137015   2.715   1.371   3.297 -0.2226  0.5248  1.0029
 5200TIP3    H237016   2.689   1.491   3.209  0.8412 -0.5037 -0.7714
 5201TIP3   OH237017   2.823   6.121   5.923  0.4640 -0.0437 -0.5281
 5201TIP3    H137018   2.772   6.139   6.002 -0.8007 -1.2665 -1.0259
 5201TIP3    H237019   2.899   6.073   5.955  0.4101  0.2354  0.0374
 5202TIP3   OH237020   1.157   0.389  16.707  0.0735 -0.6387 -0.9913
 5202TIP3    H137021   1.225   0.400  16.640 -0.1515 -0.0879 -1.1335
 5202TIP3    H237022   1.106   0.314  16.677 -0.4902  0.0701 -1.8380
 5203TIP3   OH237023   5.993   1.377  15.334 -0.0969  0.1500 -0.1387
 5203TIP3    H137024   6.043   1.458  15.322 -0.4699  0.4905  0.5339
 5203TIP3    H237025   6.005   1.329  15.252  0.8340  0.4936 -0.2213
 5204TIP3   OH237026   5.548   0.104  12.053 -0.5383 -0.0225 -0.4918
 5204TIP3    H137027   5.522   0.020  12.015  0.0732 -0.3682 -0.1551
 5204TIP3    H237028   5.507   0.169  11.996 -2.8080 -0.5277  0.4634
 5205TIP3   OH237029   1.238   3.642  11.702 -0.2323 -0.1007 -0.1299
 5205TIP3    H137030   1.155   3.679  11.732  0.4871  1.4972 -0.0038
 5205TIP3    H237031   1.251   3.680  11.615  0.2135 -0.6029 -0.2873
 5206TIP3   OH237032   2.776   5.133   1.113 -0.3320  0.1105  0.1672
 5206TIP3    H137033   2.808   5.194   1.179  0.0229  1.0398 -0.8444
 5206TIP3    H237034   2.744   5.058   1.164  1.8572 -0.1456  1.3230
 5207TIP3   OH237035   5.055   3.478  13.551 -0.2765 -0.2903 -0.1716
 5207TIP3    H137036   5.009   3.501  13.632 -0.0309 -0.3178 -0.0244
 5207TIP3    H237037   5.113   3.406  13.576  0.0176 -0.1006 -0.3046
 5208TIP3   OH237038   4.558   6.504  11.645 -0.6194  0.0319 -0.2048
 5208TIP3    H137039   4.613   6.426  11.636  0.2895  0.8174 -2.0816
 5208TIP3    H237040   4.509   6.490  11.726  2.6561 -0.5128  1.8545
 5209TIP3   OH237041   1.691   3.731  11.648 -0.8850  0.0972 -0.0609
 5209TIP3    H137042   1.689   3.705  11.557  0.0124 -2.5013  0.5883
 5209TIP3    H237043   1.783   3.752  11.666 -0.8740 -0.3877  0.4863
 5210TIP3   OH237044   3.511   2.327   3.946  0.0366 -0.5878 -0.1188
 5210TIP3    H137045   3.585   2.297   3.894 -0.3042  0.9464 -1.5762
 5210TIP3    H237046   3.437   2.275   3.915  0.0758 -0.5246 -0.3243
 5211TIP3   OH237047   5.918   1.832  11.818  0.4338  0.3876  0.9058
 5211TIP3    H137048   5.864   1.790  11.884  0.7336  1.3542  1.7864
 5211TIP3    H237049   5.864   1.831  11.739 -0.2746  0.0226  1.3837
 5212TIP3   OH237050   3.392   6.510  15.168 -0.1859  0.6893  0.2573
 5212TIP3    H137051   3.447   6.438  15.198 -2.2072 -1.3179 -0.5748
 5212TIP3    H237052   3.350   6.543  15.247  0.0890  0.3661  0.5421
 5213TIP3   OH237053   0.165   5.787   1.385  0.2543  0.0282 -0.5178
 5213TIP3    H137054   0.229   5.846   1.346 -0.7977  0.2809 -1.9467
 5213TIP3    H237055   0.212   5.744   1.456  0.7073  3.4396  1.4195
 5214TIP3   OH237056   3.176   2.523  10.831  0.1878  0.0004  0.3486
 5214TIP3    H137057   3.255   2.474  10.809  1.4793  1.1789  2.0971
 5214TIP3    H237058   3.108   2.457  10.841  0.7386 -0.9864 -1.8677
 5215TIP3   OH237059   4.086   0.327  12.049  0.5042 -0.4531 -0.0485
 5215TIP3    H137060   4.129   0.258  12.100 -0.7351 -1.0837  0.1631
 5215TIP3    H237061   4.089   0.404  12.107 -0.4625 -1.0369  0.8167
 5216TIP3   OH237062   4.204   6.044   0.273 -0.3409  0.3164 -0.7534
 5216TIP3    H137063   4.187   6.087   0.189 -0.8253  0.5530 -0.5393
 5216TIP3    H237064   4.290   6.076   0.300 -0.0154 -0.0442 -1.3294
 5217TIP3   OH237065   0.592   0.486  10.815 -0.3291  0.7016  0.2441
 5217TIP3    H137066   0.685   0.498  10.833 -0.1693  2.2722 -1.3683
 5217TIP3    H237067   0.549   0.512  10.897  0.6057  0.4929  0.8205
 5218TIP3   OH237068   5.654   3.893  16.261 -0.3934 -0.1881  0.0483
 5218TIP3    H137069   5.584   3.934  16.210  0.6746  0.6740 -0.7773
 5218TIP3    H237070   5.627   3.801  16.268 -3.2978  0.6786  2.6926
 5219TIP3   OH237071   1.546   3.876   2.621  0.0735  0.1837 -0.6956
 5219TIP3    H137072   1.633   3.911   2.602  0.9666 -2.1294 -1.2429
 5219TIP3    H237073   1.562   3.786   2.649 -2.1449 -0.2742 -0.6946
 5220TIP3   OH237074   0.294   5.912  14.488  0.1309  0.2782 -0.1831
 5220TIP3    H137075   0.340   5.843  14.440 -0.1423  0.4521 -0.6981
 5220TIP3    H237076   0.270   5.976  14.421  1.5381  1.5283  0.4436
 5221TIP3   OH237077   2.210   4.511   2.964  0.3777  0.5794 -0.1989
 5221TIP3    H137078   2.162   4.431   2.985 -1.3489  1.2463 -1.3379
 5221TIP3    H237079   2.290   4.506   3.016 -0.2797 -1.2676  0.7152
 5222TIP3   OH237080   3.727   5.656   5.086  0.1661  0.4948 -0.8465
 5222TIP3    H137081   3.693   5.744   5.097 -0.6439  0.0717  0.1431
 5222TIP3    H237082   3.789   5.644   5.158 -0.6831 -0.1861 -0.2177
 5223TIP3   OH237083   3.338   6.210   5.200 -0.0136 -0.0425 -0.3984
 5223TIP3    H137084   3.279   6.284   5.191  1.3411  1.4368  1.8938
 5223TIP3    H237085   3.416   6.235   5.151  0.1318 -0.3381 -0.3234
 5224TIP3   OH237086   3.500   0.146  11.977  0.1577  0.4085  0.7676
 5224TIP3    H137087   3.434   0.104  12.032 -0.4634  1.3534  0.7645
 5224TIP3    H237088   3.449   0.193  11.911  0.8748 -0.4597 -0.4588
 5225TIP3   OH237089   1.499   4.411  12.914  1.0070 -0.6156 -0.1253
 5225TIP3    H137090   1.527   4.337  12.860  0.8010  0.7714 -2.2379
 5225TIP3    H237091   1.425   4.449  12.866  1.2117  1.0606  0.8159
 5226TIP3   OH237092   3.014   5.688  11.584 -0.3752  0.0458  0.1505
 5226TIP3    H137093   2.979   5.687  11.495  0.4911  2.6663 -0.3135
 5226TIP3    H237094   2.963   5.756  11.628  0.5853  0.2077  1.0288
 5227TIP3   OH237095   0.510   4.560   4.237  0.5498 -0.1988 -0.3627
 5227TIP3    H137096   0.462   4.483   4.267  0.6349  0.2068  0.8907
 5227TIP3    H237097   0.466   4.587   4.157 -0.0590 -1.0106 -0.3087
 5228TIP3   OH237098   2.937   0.691  14.526  0.0128 -0.5827  0.3064
 5228TIP3    H137099   2.937   0.688  14.430  1.6185 -0.1334  0.2536
 5228TIP3    H237100   2.855   0.734  14.549 -0.2736 -0.4553 -0.8792
 5229TIP3   OH237101   1.224   2.818   4.797 -0.0437  0.3824 -0.1132
 5229TIP3    H137102   1.137   2.859   4.801  0.2706  1.2710 -1.4680
 5229TIP3    H237103   1.267   2.844   4.878 -0.1665  2.1047 -0.5503
 5230TIP3   OH237104   6.659   3.123   3.959  0.1828 -0.5925 -0.4293
 5230TIP3    H137105   6.722   3.127   4.030  0.7136 -0.8456 -0.8759
 5230TIP3    H237106   6.708   3.087   3.885 -0.1084  0.4883 -1.1787
 5231TIP3   OH237107   0.118   1.542   4.341  0.2707  0.9647 -0.1298
 5231TIP3    H137108   0.100   1.474   4.276  1.7772  0.7893 -0.3979
 5231TIP3    H237109   0.032   1.565   4.377 -0.4853  0.4246 -1.5404
 5232TIP3   OH237110   6.211   4.910   5.909 -0.1715 -0.6099 -0.2665
 5232TIP3    H137111   6.134   4.957   5.940 -0.2565 -1.5722  1.0393
 5232TIP3    H237112   6.199   4.904   5.814 -1.2520  0.0201 -0.1796
 5233TIP3   OH237113   4.651   5.565   0.160 -0.7150 -0.2249 -0.2463
 5233TIP3    H137114   4.559   5.549   0.138 -1.2523  1.5188  0.5976
 5233TIP3    H237115   4.658   5.660   0.168  0.7673 -0.4224  1.3144
 5234TIP3   OH237116   2.354   3.839   3.401  0.5833 -0.1804 -0.5382
 5234TIP3    H137117   2.421   3.783   3.440  0.2451  0.0854  0.4580
 5234TIP3    H237118   2.353   3.917   3.456  1.3059  1.0001 -2.1183
 5235TIP3   OH237119   6.063   1.928   5.511 -0.1694  0.8518  0.0027
 5235TIP3    H137120   6.029   2.003   5.462  0.0462  0.9435 -0.0067
 5235TIP3    H237121   6.158   1.942   5.513 -0.1119  0.4817 -0.1590
 5236TIP3   OH237122   3.380   5.277  16.828  0.1091  0.7141  0.2050
 5236TIP3    H137123   3.396   5.254  16.919  0.4925 -0.0698 -0.0490
 5236TIP3    H237124   3.352   5.195  16.787 -0.0683  1.0607 -0.3824
 5237TIP3   OH237125   1.566   0.886   6.110  0.1851 -0.0823  0.0520
 5237TIP3    H137126   1.537   0.968   6.070  1.8432  0.2943 -0.4659
 5237TIP3    H237127   1.512   0.877   6.189 -1.6271  0.2732 -1.1103
 5238TIP3   OH237128   5.352   2.772  11.270 -0.2460 -0.1461 -0.1496
 5238TIP3    H137129   5.272   2.724  11.292  0.8751 -1.9158  0.2468
 5238TIP3    H237130   5.420   2.705  11.269  1.1072  1.1940 -1.2705
 5239TIP3   OH237131   4.111   5.936   5.366  0.0837 -0.0869  0.1298
 5239TIP3    H137132   4.179   5.883   5.406  1.1858  0.6873 -0.6705
 5239TIP3    H237133   4.139   6.026   5.378 -0.7355  0.2483 -0.3154
 5240TIP3   OH237134   1.440   3.327  10.984  0.0019  0.3210 -0.2254
 5240TIP3    H137135   1.381   3.308  10.911 -0.1141 -0.8496  0.1592
 5240TIP3    H237136   1.453   3.243  11.027 -1.5494  1.2690  2.3280
 5241TIP3   OH237137   0.742   5.481  16.684 -0.2632 -0.3248  0.0933
 5241TIP3    H137138   0.780   5.524  16.761 -0.7987 -2.7449  1.8307
 5241TIP3    H237139   0.809   5.419  16.656 -1.3598 -1.8555  0.7579
 5242TIP3   OH237140   1.256   3.539  13.132 -0.2540  0.1002 -0.5077
 5242TIP3    H137141   1.229   3.475  13.197  1.4862 -1.3447 -1.0998
 5242TIP3    H237142   1.200   3.614  13.146 -0.6290 -0.5719  1.9447
 5243TIP3   OH237143   1.425   6.072  16.625  0.5770  0.1559 -0.3821
 5243TIP3    H137144   1.389   6.028  16.702  1.2799  0.9478  0.4126
 5243TIP3    H237145   1.516   6.044  16.622 -0.1700 -2.5574 -2.9065
 5244TIP3   OH237146   4.756   6.324   0.659 -0.3198  0.0507 -0.3607
 5244TIP3    H137147   4.781   6.383   0.731 -0.0239 -0.8015  0.2573
 5244TIP3    H237148   4.726   6.382   0.590 -1.6849  0.8678  0.8586
 5245TIP3   OH237149   5.937   3.186   4.276 -0.5648  0.4042 -0.4046
 5245TIP3    H137150   6.002   3.122   4.308 -1.3562  0.2896  1.0489
 5245TIP3    H237151   5.867   3.132   4.240 -0.1626  0.5229 -1.4130
 5246TIP3   OH237152   3.625   6.253  13.060 -0.5133 -0.1430  0.0728
 5246TIP3    H137153   3.660   6.188  13.121 -0.5719  1.0244  1.4003
 5246TIP3    H237154   3.702   6.287  13.014 -0.4941 -1.2014 -0.7410
 5247TIP3   OH237155   3.720   5.760  13.264 -0.6608 -0.0198  0.0106
 5247TIP3    H137156   3.640   5.778  13.315 -0.0750  0.6973  0.6937
 5247TIP3    H237157   3.791   5.769  13.327 -0.0780 -1.4653 -0.3982
 5248TIP3   OH237158   1.179   0.938   1.465  0.3732  0.2195 -0.2575
 5248TIP3    H137159   1.250   0.881   1.495  0.8610  1.2057  0.5173
 5248TIP3    H237160   1.109   0.924   1.529  0.6342  0.7495  0.1564
 5249TIP3   OH237161   1.263   3.155   4.864  0.4510 -0.5589 -0.1265
 5249TIP3    H137162   1.244   3.169   4.771  2.0126 -1.1135 -0.5633
 5249TIP3    H237163   1.347   3.198   4.878  0.0952 -0.2321  1.1119
 5250TIP3   OH237164   3.075   4.510  13.254 -0.2620  0.1119 -0.3775
 5250TIP3    H137165   3.002   4.450  13.242 -0.6287  0.3825  0.4018
 5250TIP3    H237166   3.054   4.558  13.335  0.4860  0.6081 -0.4613
 5251TIP3   OH237167   4.355   5.610  13.080  0.1981 -0.2165 -0.3038
 5251TIP3    H137168   4.406   5.529  13.081 -0.1522 -0.4370  0.3825
 5251TIP3    H237169   4.416   5.676  13.113 -0.4833 -0.8408  2.4823
 5252TIP3   OH237170   6.330   5.004  14.080  0.0142  0.7736  0.5787
 5252TIP3    H137171   6.252   4.957  14.112  0.0544 -0.3482 -0.8560
 5252TIP3    H237172   6.304   5.036  13.994  1.5765 -0.8863 -0.5774
 5253TIP3   OH237173   3.258   5.865  12.425  0.3508  0.3126 -0.4104
 5253TIP3    H137174   3.273   5.801  12.355  0.9076  0.0820 -0.0839
 5253TIP3    H237175   3.168   5.850  12.452  0.6153 -0.6648 -0.0146
 5254TIP3   OH237176   0.218   2.223   5.229 -0.0535  0.5612 -0.4268
 5254TIP3    H137177   0.255   2.246   5.144 -0.4471  1.7550 -0.2854
 5254TIP3    H237178   0.295   2.217   5.287  0.1396  0.5691 -0.6804
 5255TIP3   OH237179   1.168   0.785  12.104 -0.1523 -0.1687  0.2182
 5255TIP3    H137180   1.141   0.857  12.046  1.2895 -0.7067 -1.2077
 5255TIP3    H237181   1.146   0.705  12.055  1.1518 -0.6386  0.3625
 5256TIP3   OH237182   2.848   4.009  10.549 -0.2647  0.0585 -0.1936
 5256TIP3    H137183   2.906   4.061  10.605  1.0854  0.2723 -1.7148
 5256TIP3    H237184   2.764   4.056  10.552 -0.2427  0.0260  1.6485
 5257TIP3   OH237185   4.032   2.321  16.646  0.0265 -0.3120  0.0119
 5257TIP3    H137186   4.022   2.230  16.673 -1.0222 -0.0349  0.6387
 5257TIP3    H237187   3.947   2.344  16.607  0.4191  0.2747 -0.5158
 5258TIP3   OH237188   1.288   2.198   0.361  0.5376 -0.3371  0.8331
 5258TIP3    H137189   1.192   2.199   0.362  0.4901  1.7479 -0.6264
 5258TIP3    H237190   1.312   2.164   0.448 -1.5237  1.6861  2.3201
 5259TIP3   OH237191   2.507   1.016   3.251  0.0896 -0.6912 -0.1001
 5259TIP3    H137192   2.428   1.054   3.289  0.2533 -0.2066 -0.2451
 5259TIP3    H237193   2.489   1.013   3.157  0.3041 -0.4341 -0.1507
 5260TIP3   OH237194   4.793   1.911  10.479 -0.0801  0.2959 -0.7285
 5260TIP3    H137195   4.849   1.848  10.524  0.3688 -0.9561 -2.8766
 5260TIP3    H237196   4.739   1.857  10.421 -0.9277  1.7684 -1.3741
 5261TIP3   OH237197   5.909   4.625  13.521 -0.1695 -0.3985 -0.6784
 5261TIP3    H137198   5.924   4.698  13.582  1.5424  0.4778 -2.0438
 5261TIP3    H237199   5.819   4.637  13.491 -0.4724  0.1392  0.4152
 5262TIP3   OH237200   0.960   4.350  14.957 -0.0057 -0.5644  0.0845
 5262TIP3    H137201   1.043   4.395  14.971  0.6118 -1.4653 -0.6349
 5262TIP3    H237202   0.899   4.420  14.932  1.1180 -0.1789 -1.7869
 5263TIP3   OH237203   2.000   3.164  16.726 -0.0883  1.0484 -0.0354
 5263TIP3    H137204   1.919   3.197  16.766 -0.0267  0.0912  0.9298
 5263TIP3    H237205   2.067   3.179  16.793  0.1707  0.1371 -0.0830
 5264TIP3   OH237206   1.915   5.215   3.875 -0.4623 -0.0657 -0.0696
 5264TIP3    H137207   1.860   5.228   3.797 -0.4047 -1.1914 -0.3110
 5264TIP3    H237208   1.916   5.120   3.887 -0.3768  0.0951  1.2425
 5265TIP3   OH237209   4.225   3.325  13.303  0.2679 -0.3411 -0.0308
 5265TIP3    H137210   4.222   3.266  13.379  1.9630  0.7768  0.9802
 5265TIP3    H237211   4.149   3.300  13.251 -1.2517 -0.8692  2.2585
 5266TIP3   OH237212   0.686   1.116  11.433 -0.1608 -0.0464 -0.1622
 5266TIP3    H137213   0.746   1.153  11.369  1.2408 -2.3557 -0.2797
 5266TIP3    H237214   0.707   1.162  11.515  2.1990 -1.1365 -0.0784
 5267TIP3   OH237215   3.882   6.370  13.621 -0.5655  0.0507 -0.4025
 5267TIP3    H137216   3.978   6.375  13.624 -0.5265 -0.7672  2.7810
 5267TIP3    H237217   3.865   6.284  13.582 -0.0242  0.2173 -1.0293
 5268TIP3   OH237218   3.528   0.424  13.187  0.3489  0.0172  0.2943
 5268TIP3    H137219   3.604   0.473  13.217  0.4775 -0.0489  0.0769
 5268TIP3    H237220   3.473   0.414  13.265  1.4695 -1.6523  0.9175
 5269TIP3   OH237221   4.575   4.104  11.635  0.6699  0.3970  0.1495
 5269TIP3    H137222   4.671   4.104  11.628  0.7325  0.1812  0.9168
 5269TIP3    H237223   4.551   4.012  11.634  0.4853  0.4468  0.1003
 5270TIP3   OH237224   2.449   0.979   0.845  0.1495  0.2439 -0.1415
 5270TIP3    H137225   2.478   1.016   0.929  1.1413  2.0620 -1.2330
 5270TIP3    H237226   2.357   1.006   0.837 -0.0924 -0.3407  0.5526
 5271TIP3   OH237227   0.113   3.831   1.921 -0.1725  0.7559  0.0752
 5271TIP3    H137228   0.062   3.873   1.991 -0.6440  0.4901 -0.1013
 5271TIP3    H237229   0.147   3.751   1.962 -1.0357  0.2370 -0.1893
 5272TIP3   OH237230   6.743   1.935   1.516 -0.5050 -0.0159  0.0647
 5272TIP3    H137231   6.731   2.025   1.488  3.1801  0.6512  0.1506
 5272TIP3    H237232   6.710   1.933   1.606 -2.6666  0.5794 -0.6574
 5273TIP3   OH237233   1.281   0.763  16.677  0.8079  1.1130  0.1567
 5273TIP3    H137234   1.366   0.723  16.658  1.5829  0.6338  3.8678
 5273TIP3    H237235   1.302   0.846  16.718 -0.1946 -0.3054  3.9817
 5274TIP3   OH237236   5.745   1.894  15.088 -0.6566  0.7456 -0.2156
 5274TIP3    H137237   5.788   1.890  15.003 -0.4837 -0.8580 -0.0842
 5274TIP3    H237238   5.772   1.814  15.133 -0.3945  1.7525  1.5344
 5275TIP3   OH237239   2.088   4.677   0.444  0.3176  0.1669 -0.2142
 5275TIP3    H137240   2.028   4.709   0.377 -0.4074 -0.3494  0.1735
 5275TIP3    H237241   2.078   4.738   0.517  0.1813  0.0133 -0.1050
 5276TIP3   OH237242   2.034   5.560  17.238  0.0030 -0.1030 -0.0055
 5276TIP3    H137243   2.084   5.601  17.167 -2.7274  2.6143 -0.5776
 5276TIP3    H237244   1.982   5.632  17.276 -1.3876 -2.1643  2.3509
 5277TIP3   OH237245   3.541   2.363   1.413  0.0546  0.4441 -0.7518
 5277TIP3    H137246   3.538   2.353   1.509  0.5494 -1.9959 -0.9235
 5277TIP3    H237247   3.470   2.424   1.393  0.1084  1.2227  1.1820
 5278TIP3   OH237248   0.494   0.596  16.213 -0.0989  0.1135  0.3839
 5278TIP3    H137249   0.575   0.545  16.223  0.4519  0.7167 -0.7056
 5278TIP3    H237250   0.511   0.677  16.261  1.3721  1.7253 -2.5380
 5279TIP3   OH237251   0.495   5.507  13.507 -0.1547 -0.0216 -0.0846
 5279TIP3    H137252   0.490   5.523  13.601 -1.6290 -0.4059 -0.0876
 5279TIP3    H237253   0.450   5.424  13.493 -0.0075  0.0517 -1.1499
 5280TIP3   OH237254   5.314   5.220   4.376 -0.1816 -0.2132  0.0762
 5280TIP3    H137255   5.349   5.132   4.362  0.8852  0.3817 -1.2577
 5280TIP3    H237256   5.392   5.276   4.378 -0.8997  0.8125 -0.0566
 5281TIP3   OH237257   5.810   2.748   3.090 -0.4172  0.0760  0.2441
 5281TIP3    H137258   5.839   2.772   3.002 -1.1833 -0.5538 -0.1958
 5281TIP3    H237259   5.830   2.654   3.097  1.0351  0.4264  1.3244
 5282TIP3   OH237260   4.308   3.625  11.539 -0.1269 -0.4697  0.0093
 5282TIP3    H137261   4.401   3.649  11.541  0.4656 -2.5058  1.9143
 5282TIP3    H237262   4.268   3.689  11.481  1.9195  2.4023  1.4565
 5283TIP3   OH237263   2.912   5.338   4.525 -0.3334 -0.4282 -0.5065
 5283TIP3    H137264   2.873   5.277   4.588 -1.9425 -1.0738 -2.0189
 5283TIP3    H237265   2.840   5.395   4.499  0.4342  0.2166 -1.2744
 5284TIP3   OH237266   2.510   4.458  11.945  0.0995 -0.4935  0.1127
 5284TIP3    H137267   2.549   4.484  12.028  1.0616 -1.6671  0.0517
 5284TIP3    H237268   2.416   4.452  11.964  0.2668 -0.3888  1.0145
 5285TIP3   OH237269   4.601   0.454  12.918 -0.4243 -0.2051 -0.1150
 5285TIP3    H137270   4.532   0.465  12.984 -0.0900 -0.1046  0.2244
 5285TIP3    H237271   4.676   0.420  12.968 -0.0513  0.2166 -0.3752
 5286TIP3   OH237272   2.946   1.718   2.210 -0.1142  0.1988 -0.3555
 5286TIP3    H137273   2.881   1.787   2.225  0.8665  0.8758  0.9257
 5286TIP3    H237274   3.030   1.764   2.208  0.3382 -0.5692 -2.6583
 5287TIP3   OH237275   6.147   4.408   3.548  0.3906  0.3789 -0.0450
 5287TIP3    H137276   6.222   4.352   3.569 -0.3243 -0.8758 -0.7214
 5287TIP3    H237277   6.147   4.413   3.452  0.3238  1.3907 -0.0009
 5288TIP3   OH237278   6.009   3.196   2.182 -0.3443 -0.1603 -0.1301
 5288TIP3    H137279   6.074   3.254   2.143 -0.4465 -0.8510 -1.4122
 5288TIP3    H237280   6.060   3.129   2.227 -0.1317 -0.7695 -1.2355
 5289TIP3   OH237281   2.737   4.490  11.779  0.6298  0.1677  0.0907
 5289TIP3    H137282   2.711   4.484  11.687 -0.2735 -0.2292  0.3595
 5289TIP3    H237283   2.665   4.449  11.827  1.2830 -0.0012  0.9494
 5290TIP3   OH237284   5.625   2.061  13.135 -0.6310 -1.1611 -0.0443
 5290TIP3    H137285   5.558   2.098  13.193 -1.3189 -1.7201 -0.4609
 5290TIP3    H237286   5.691   2.025  13.194 -0.6595 -0.5465  0.3739
 5291TIP3   OH237287   2.575   2.705  14.060  0.0375 -0.4610 -0.0281
 5291TIP3    H137288   2.541   2.701  13.970  2.6758  0.3403 -1.1740
 5291TIP3    H237289   2.616   2.619  14.073  0.0740 -0.4052  0.2194
 5292TIP3   OH237290   0.770   5.031   2.390 -0.0207  0.4223  0.6188
 5292TIP3    H137291   0.771   4.936   2.381  0.5681  0.4682  0.1729
 5292TIP3    H237292   0.825   5.049   2.466  1.0956  0.4876 -0.1796
 5293TIP3   OH237293   5.407   0.394  15.231  0.1394  0.4336  0.0424
 5293TIP3    H137294   5.456   0.336  15.290 -1.7051 -0.5714  0.6814
 5293TIP3    H237295   5.325   0.348  15.216 -1.1389  2.5994  0.0188
 5294TIP3   OH237296   1.361   1.757  12.385  0.2415  0.4774  0.2587
 5294TIP3    H137297   1.341   1.675  12.341 -0.0082  0.9304 -0.4932
 5294TIP3    H237298   1.331   1.744  12.475  1.0213 -0.5601  0.3760
 5295TIP3   OH237299   5.480   3.728  13.060  0.4156 -0.2576 -0.0128
 5295TIP3    H137300   5.536   3.652  13.078 -0.9415 -1.7159 -1.5634
 5295TIP3    H237301   5.508   3.759  12.974 -0.1880 -0.1029 -0.1602
 5296TIP3   OH237302   0.404   3.908  14.493  0.1516 -0.4180  0.0875
 5296TIP3    H137303   0.399   3.959  14.413 -0.5664 -0.6351 -0.0119
 5296TIP3    H237304   0.497   3.890  14.504  0.3368  0.3156 -0.2486
 5297TIP3   OH237305   1.871   0.102  12.934  0.2957 -0.7421 -0.1119
 5297TIP3    H137306   1.875   0.175  12.995  1.2949 -0.6372 -0.2793
 5297TIP3    H237307   1.907   0.028  12.984 -1.7196 -1.4355  0.4396
 5298TIP3   OH237308   3.212   4.590   5.621  0.1126  0.0991  0.0375
 5298TIP3    H137309   3.218   4.496   5.599 -1.6033 -0.2069  0.7514
 5298TIP3    H237310   3.126   4.617   5.588  1.2741  1.9036 -1.7536
 5299TIP3   OH237311   5.650   5.607   5.583 -0.1489 -0.1368 -0.3488
 5299TIP3    H137312   5.723   5.549   5.560  0.6642  0.5910  0.3311
 5299TIP3    H237313   5.647   5.604   5.679 -0.4178  0.5494 -0.3338
 5300TIP3   OH237314   6.520   3.134   3.440  0.4517  0.0767 -0.1573
 5300TIP3    H137315   6.474   3.204   3.394  2.1039  1.6679  0.4743
 5300TIP3    H237316   6.612   3.149   3.420  1.0741 -0.3093  2.1411
 5301TIP3   OH237317   4.034   2.899   1.577 -0.1620  0.1617 -0.1485
 5301TIP3    H137318   4.031   2.987   1.539 -0.3449  0.7216  1.1301
 5301TIP3    H237319   4.126   2.873   1.571 -0.4205 -0.5246 -2.5792
 5302TIP3   OH237320   1.276   5.681  14.165  0.2616  0.7656  0.3478
 5302TIP3    H137321   1.238   5.693  14.078 -0.1287 -0.6369  0.2977
 5302TIP3    H237322   1.370   5.692  14.151  0.4127 -1.3154 -0.6664
 5303TIP3   OH237323   3.692   1.028  15.877  0.2584  0.1297  0.0065
 5303TIP3    H137324   3.754   1.047  15.947 -0.7526 -0.6028  1.1420
 5303TIP3    H237325   3.694   1.106  15.821  1.9836  0.2241  0.1466
 5304TIP3   OH237326   5.673   3.221   5.552  0.1394 -0.4655  0.4404
 5304TIP3    H137327   5.660   3.245   5.644 -0.5318  0.7169  0.0587
 5304TIP3    H237328   5.740   3.153   5.554 -0.4829 -1.0576  1.8693
 5305TIP3   OH237329   6.543   4.123   2.517 -0.3210  0.0999  0.3284
 5305TIP3    H137330   6.466   4.069   2.502  1.2042 -2.0297 -0.3114
 5305TIP3    H237331   6.523   4.173   2.596 -1.6364 -1.7831  1.2368
 5306TIP3   OH237332   5.507   0.421  11.297 -0.1070 -0.1746  0.4054
 5306TIP3    H137333   5.567   0.476  11.247 -1.8839 -0.1887 -1.9603
 5306TIP3    H237334   5.426   0.472  11.302 -1.0098 -1.5282  0.3629
 5307TIP3   OH237335   5.227   4.187   4.516  0.4258  0.1384  0.4916
 5307TIP3    H137336   5.269   4.115   4.564 -1.6708 -1.5777 -0.1026
 5307TIP3    H237337   5.226   4.158   4.425 -0.6148  0.8258  0.2717
 5308TIP3   OH237338   4.744   5.337  11.658  0.1420 -0.3041  0.4890
 5308TIP3    H137339   4.663   5.292  11.683 -0.8980  0.8952 -0.5640
 5308TIP3    H237340   4.753   5.319  11.564  2.1766 -1.9915  0.9135
 5309TIP3   OH237341   0.630   5.240   1.307 -0.0705 -0.2206  0.1679
 5309TIP3    H137342   0.587   5.155   1.318 -3.0020  1.0044 -0.8807
 5309TIP3    H237343   0.669   5.236   1.220  1.1704 -0.9879  0.7314
 5310TIP3   OH237344   3.399   1.023  15.897  0.2736  0.1908  0.5236
 5310TIP3    H137345   3.495   1.024  15.894  0.2948  1.4405  1.2341
 5310TIP3    H237346   3.376   1.077  15.972 -1.0191  1.4954 -0.7348
 5311TIP3   OH237347   5.595   5.926   1.121  0.3844 -0.8023  0.4024
 5311TIP3    H137348   5.611   6.019   1.101 -0.4526 -0.6858  0.2603
 5311TIP3    H237349   5.649   5.909   1.198 -0.2802  0.0884  1.0758
 5312TIP3   OH237350   2.809   2.542  15.643 -0.2698  0.0010  0.7324
 5312TIP3    H137351   2.771   2.611  15.588 -0.1853 -0.3604  0.2058
 5312TIP3    H237352   2.902   2.542  15.620  0.4675  2.0622  3.2745
 5313TIP3   OH237353   4.945   1.307   3.573 -0.3404  0.0181 -0.1263
 5313TIP3    H137354   4.874   1.243   3.581  0.2619 -0.9180 -1.8138
 5313TIP3    H237355   5.006   1.283   3.644 -1.5947  0.7351  1.2343
 5314TIP3   OH237356   1.523   5.050  14.818  0.3220 -0.1311  0.3411
 5314TIP3    H137357   1.562   4.972  14.778  2.9395  1.7253 -1.0601
 5314TIP3    H237358   1.480   5.095  14.745 -2.3484 -0.7886  1.3804
 5315TIP3   OH237359   3.200   5.234   0.086 -1.1035  0.3985  0.4345
 5315TIP3    H137360   3.213   5.257   0.178 -1.8027 -0.9802  0.9116
 5315TIP3    H237361   3.173   5.142   0.088 -0.9762  0.2953 -1.1661
 5316TIP3   OH237362   2.743   1.008   4.387 -0.6995 -0.2236  0.4074
 5316TIP3    H137363   2.772   1.061   4.461 -0.2269  0.0635  0.0234
 5316TIP3    H237364   2.652   0.986   4.407 -0.4003 -0.6567  1.3577
 5317TIP3   OH237365   0.840   4.236  15.634  0.3190 -0.1076  0.4495
 5317TIP3    H137366   0.810   4.195  15.552  1.9553 -1.8989  0.6676
 5317TIP3    H237367   0.815   4.328  15.625 -1.0601 -0.5804 -1.3091
 5318TIP3   OH237368   0.719   2.984  15.133  0.0495 -0.3315 -0.0083
 5318TIP3    H137369   0.641   3.034  15.157  0.2477  0.0614 -0.1550
 5318TIP3    H237370   0.691   2.893  15.130 -0.5195 -0.1426 -0.5307
 5319TIP3   OH237371   2.766   3.961   2.956  0.3267  0.2412  0.4474
 5319TIP3    H137372   2.856   3.928   2.955  0.8956  1.5103  2.6741
 5319TIP3    H237373   2.712   3.884   2.976  1.0429 -0.3178  0.2576
 5320TIP3   OH237374   0.137   1.663   5.243  0.0952 -0.0197 -0.0165
 5320TIP3    H137375   0.123   1.576   5.206  0.8752 -0.2913  0.3229
 5320TIP3    H237376   0.232   1.671   5.254  0.2179  1.5580 -1.6883
 5321TIP3   OH237377   3.674   4.106  11.423 -0.3527 -0.3239 -0.4004
 5321TIP3    H137378   3.651   4.141  11.337  0.8289  1.0030 -0.2023
 5321TIP3    H237379   3.731   4.032  11.404 -0.2445 -0.1504 -0.7532
 5322TIP3   OH237380   6.151   4.759   4.774 -0.6424 -0.0868  0.1430
 5322TIP3    H137381   6.160   4.747   4.869 -0.3612  2.6558  0.5589
 5322TIP3    H237382   6.182   4.849   4.759  0.5611 -0.8808 -2.7487
 5323TIP3   OH237383   4.948   2.781   3.126 -0.7117 -0.0206  0.2150
 5323TIP3    H137384   4.940   2.845   3.055 -3.9485  0.2732  0.6811
 5323TIP3    H237385   5.035   2.743   3.115 -0.4072  1.2926 -2.7823
 5324TIP3   OH237386   2.639   2.318  11.137  0.1024  0.3851 -0.3441
 5324TIP3    H137387   2.718   2.358  11.173  0.6075  0.2422 -1.2704
 5324TIP3    H237388   2.568   2.353  11.191  0.9263 -0.7894  1.6118
 5325TIP3   OH237389   4.658   5.124  12.561 -0.4530 -0.5571 -0.4494
 5325TIP3    H137390   4.718   5.166  12.622 -0.6409 -0.3685 -0.3950
 5325TIP3    H237391   4.713   5.097  12.488 -0.5456  1.0085 -1.1257
 5326TIP3   OH237392   6.515   2.462   6.013  0.2615  0.5080  0.3894
 5326TIP3    H137393   6.494   2.528   5.947  0.2154  1.5086  1.3795
 5326TIP3    H237394   6.609   2.470   6.026  0.3336  0.0463  0.1726
 5327TIP3   OH237395   2.207   2.790   5.427  0.1709 -0.8915  0.1570
 5327TIP3    H137396   2.166   2.727   5.369 -1.0171 -0.2014  0.2157
 5327TIP3    H237397   2.258   2.847   5.370 -1.2159 -0.0438 -0.2556
 5328TIP3   OH237398   3.134   5.647   1.045  0.1621 -0.7611  0.5608
 5328TIP3    H137399   3.147   5.588   1.119  0.7291 -0.4927  0.6814
 5328TIP3    H237400   3.042   5.673   1.051  0.0803 -1.1214  0.8862
 5329TIP3   OH237401   5.170   0.167   5.596 -0.1690  0.0980  0.5305
 5329TIP3    H137402   5.151   0.123   5.678 -0.8954  0.3968  0.5351
 5329TIP3    H237403   5.124   0.115   5.530 -0.4091  0.4192  0.4427
 5330TIP3   OH237404   3.802   0.479   5.222  0.0773  0.4780 -0.2552
 5330TIP3    H137405   3.708   0.471   5.235  0.0003 -0.4287 -1.2835
 5330TIP3    H237406   3.821   0.571   5.241 -0.6682  0.2333  1.9484
 5331TIP3   OH237407   6.079   2.622   4.113  0.7182  0.0610 -0.3645
 5331TIP3    H137408   6.039   2.587   4.033  1.0857  3.4404 -2.1750
 5331TIP3    H237409   6.154   2.565   4.129 -0.3863 -1.7664 -1.3165
 5332TIP3   OH237410   6.623   3.801   0.497 -0.0137  0.7235  0.2190
 5332TIP3    H137411   6.646   3.826   0.587  0.0163  0.9430  0.1509
 5332TIP3    H237412   6.630   3.882   0.447  0.2965  0.5302 -0.0502
 5333TIP3   OH237413   4.795   0.997  15.015  0.2684  0.1553 -0.3760
 5333TIP3    H137414   4.795   0.954  15.100 -0.7363 -0.0636 -0.4657
 5333TIP3    H237415   4.884   1.031  15.004  0.9580 -1.5128 -0.1184
 5334TIP3   OH237416   3.305   0.141  12.351  0.2145 -0.1039 -0.4294
 5334TIP3    H137417   3.290   0.049  12.329  2.1282 -0.3269 -0.9579
 5334TIP3    H237418   3.232   0.188  12.308 -0.0431 -1.2401 -1.2828
 5335TIP3   OH237419   3.087   6.175  13.035  0.5016  0.7085 -0.2521
 5335TIP3    H137420   3.089   6.134  13.121  0.0000  0.5164 -0.3300
 5335TIP3    H237421   3.010   6.232  13.037  0.2001  0.3291 -0.7379
 5336TIP3   OH237422   4.530   1.006  11.790  0.2431  0.9079 -0.0559
 5336TIP3    H137423   4.593   0.970  11.728  0.3851  1.3582 -0.1744
 5336TIP3    H237424   4.444   0.980  11.755  0.2983  1.6148 -0.7295
 5337TIP3   OH237425   6.194   1.460  14.117 -0.1323 -0.0997  0.3115
 5337TIP3    H137426   6.122   1.524  14.117  1.2488  1.5144 -0.0594
 5337TIP3    H237427   6.272   1.512  14.135  0.9643 -1.8169  0.6959
 5338TIP3   OH237428   5.669   5.749   3.825  0.7004  0.4963  0.5570
 5338TIP3    H137429   5.626   5.726   3.743 -0.8284  0.6946  1.2501
 5338TIP3    H237430   5.614   5.819   3.861  1.2782  0.3461  1.7818
 5339TIP3   OH237431   1.522   2.335  14.196  0.1344 -0.2457 -0.0807
 5339TIP3    H137432   1.511   2.317  14.289  0.6182 -1.8964 -0.3102
 5339TIP3    H237433   1.439   2.375  14.170 -0.2830 -0.4298  0.9045
 5340TIP3   OH237434   4.479   3.507   5.653 -0.7614  0.6210 -1.0157
 5340TIP3    H137435   4.550   3.571   5.647 -0.6016  0.4422 -1.0255
 5340TIP3    H237436   4.399   3.559   5.643 -0.7541  1.1437  1.2409
 5341TIP3   OH237437   3.454   5.666  14.323 -0.1049 -0.8057 -0.0622
 5341TIP3    H137438   3.539   5.711  14.315 -0.5851  0.2153  0.4432
 5341TIP3    H237439   3.461   5.616  14.404 -0.4340  0.2911  0.6588
 5342TIP3   OH237440   4.855   4.145  11.826  0.2300  0.3188  0.0928
 5342TIP3    H137441   4.786   4.182  11.882 -0.1741 -0.6620  0.2532
 5342TIP3    H237442   4.923   4.213  11.825 -0.6178  1.1904  0.1438
 5343TIP3   OH237443   0.082   6.237   3.948 -0.2361  0.0438 -0.0084
 5343TIP3    H137444   0.056   6.301   3.882  0.9290  0.1227 -0.4145
 5343TIP3    H237445   0.010   6.237   4.011 -0.7319  0.9826 -0.5530
 5344TIP3   OH237446   6.268   0.106  11.742  0.4715 -0.6584 -0.1918
 5344TIP3    H137447   6.231   0.184  11.701  0.0475 -0.1605  1.0866
 5344TIP3    H237448   6.352   0.136  11.777  1.6695 -1.5197 -2.1520
 5345TIP3   OH237449   3.234   5.372   4.944 -0.8519 -0.1565 -0.0483
 5345TIP3    H137450   3.311   5.316   4.955 -1.3551 -1.0535 -0.9909
 5345TIP3    H237451   3.193   5.372   5.031  0.7196  1.1445  0.7402
 5346TIP3   OH237452   1.390   3.570   1.555 -0.1773 -0.0065  0.2472
 5346TIP3    H137453   1.425   3.487   1.589 -0.8662 -0.5627 -0.3847
 5346TIP3    H237454   1.309   3.583   1.604 -1.4809 -1.1020 -1.4830
 5347TIP3   OH237455   4.090   1.516  12.395  0.0694 -0.0632 -0.0452
 5347TIP3    H137456   4.129   1.506  12.308  1.3830 -0.3570  0.5553
 5347TIP3    H237457   4.162   1.499  12.455 -1.3288 -2.1410  1.1541
 5348TIP3   OH237458   5.492   5.505  13.559  0.6445  0.0270  0.4362
 5348TIP3    H137459   5.495   5.495  13.655  1.4520  0.3228  0.4516
 5348TIP3    H237460   5.478   5.598  13.545 -1.6027 -0.2873  0.2569
 5349TIP3   OH237461   5.609   3.895   5.895 -0.0816 -0.1546 -0.3433
 5349TIP3    H137462   5.515   3.907   5.910 -0.8101 -1.0317 -3.3727
 5349TIP3    H237463   5.631   3.812   5.938 -0.2604  0.8271  1.7313
 5350TIP3   OH237464   6.093   2.883  11.145 -0.0754 -0.3881 -0.0267
 5350TIP3    H137465   6.009   2.907  11.105  0.3177  0.5825 -0.3079
 5350TIP3    H237466   6.098   2.939  11.223 -0.7435 -2.1156  1.3208
 5351TIP3   OH237467   0.319   3.120   3.572  0.6262 -1.1060 -0.2254
 5351TIP3    H137468   0.370   3.057   3.623  0.3548 -0.6627  0.6140
 5351TIP3    H237469   0.320   3.200   3.625  0.6004 -0.5373 -1.0694
 5352TIP3   OH237470   3.322   2.609  12.301 -0.5723 -0.2312  0.4580
 5352TIP3    H137471   3.276   2.541  12.253  0.2642  1.2480 -2.7176
 5352TIP3    H237472   3.257   2.645  12.360 -1.7904 -1.9591  0.2477
 5353TIP3   OH237473   0.449   1.676  13.894  0.1991 -1.1518  0.1395
 5353TIP3    H137474   0.362   1.712  13.876  0.1059 -1.2660  0.3605
 5353TIP3    H237475   0.433   1.605  13.956  0.7772  1.3273  3.4480
 5354TIP3   OH237476   6.746   2.926   0.462 -0.1556  0.3484 -0.2357
 5354TIP3    H137477   6.745   2.976   0.381  2.6158  0.8665 -0.0507
 5354TIP3    H237478   6.769   2.989   0.530 -0.3951 -0.4580  0.6254
 5355TIP3   OH237479   6.265   5.651   2.495 -0.2546  0.1696 -0.2459
 5355TIP3    H137480   6.279   5.637   2.589  0.8099  2.0851 -0.0564
 5355TIP3    H237481   6.208   5.728   2.490 -1.9514 -1.0784 -1.1960
 5356TIP3   OH237482   4.395   5.706  15.758  0.9040  0.7282 -0.7708
 5356TIP3    H137483   4.456   5.755  15.704 -0.6292  1.5708 -1.8159
 5356TIP3    H237484   4.323   5.767  15.774  0.1426 -0.3528  0.0819
 5357TIP3   OH237485   6.723   2.635  13.419 -1.0056 -0.3082  0.1785
 5357TIP3    H137486   6.675   2.670  13.495 -3.3046  1.7159 -2.0433
 5357TIP3    H237487   6.777   2.708  13.390 -3.2466  0.4764 -2.4512
 5358TIP3   OH237488   0.389   5.965   6.005  0.5010 -0.6758  0.0343
 5358TIP3    H137489   0.473   5.969   5.960 -0.2095 -1.4215 -1.4255
 5358TIP3    H237490   0.345   5.890   5.966 -1.4881  0.6513 -0.3846
 5359TIP3   OH237491   4.796   6.663   4.608 -0.3811 -0.1571 -0.3363
 5359TIP3    H137492   4.821   6.572   4.597  0.4847  0.0757 -0.4328
 5359TIP3    H237493   4.858   6.712   4.553 -0.0031  0.5700  0.6965
 5360TIP3   OH237494   3.979   0.861   0.716 -0.1350 -0.3513 -0.2809
 5360TIP3    H137495   4.055   0.906   0.752  0.5503 -0.9485 -0.9512
 5360TIP3    H237496   3.967   0.785   0.773 -0.4669 -0.0612  0.0443
 5361TIP3   OH237497   1.706   6.597   6.791 -0.5493  0.1127  0.2142
 5361TIP3    H137498   1.686   6.510   6.757 -1.4539  0.6439 -0.6662
 5361TIP3    H237499   1.640   6.654   6.751 -0.1583  1.1528  1.0141
 5362TIP3   OH237500   0.672   5.102   4.246 -0.2593 -0.3406  0.1521
 5362TIP3    H137501   0.759   5.068   4.224 -0.6556 -1.5895  0.4175
 5362TIP3    H237502   0.612   5.032   4.220 -1.0043 -0.4706  2.0234
 5363TIP3   OH237503   1.992   1.573  12.049  0.4253 -0.1970 -0.4551
 5363TIP3    H137504   2.043   1.613  12.119 -0.2043 -1.2501  0.6395
 5363TIP3    H237505   1.917   1.632  12.037 -1.2030 -1.5582  2.0569
 5364TIP3   OH237506   4.301   3.168  12.527  1.0172  0.2976  0.1323
 5364TIP3    H137507   4.378   3.148  12.581  0.5555 -0.8296  0.3791
 5364TIP3    H237508   4.239   3.098  12.546 -0.0140  1.0968 -0.2093
 5365TIP3   OH237509   3.111   6.372   2.905 -0.0876  0.0154 -0.1493
 5365TIP3    H137510   3.191   6.391   2.953 -0.2258 -2.5172  1.2504
 5365TIP3    H237511   3.042   6.417   2.953  0.0077 -1.1177  1.1232
 5366TIP3   OH237512   1.121   0.847  14.239 -0.0655 -0.2805  0.0157
 5366TIP3    H137513   1.166   0.906  14.301  1.4074  0.9659 -2.1024
 5366TIP3    H237514   1.188   0.784  14.214  0.3296  1.0152 -2.4623
 5367TIP3   OH237515   3.841   3.134  15.453 -0.5603  0.6059  0.2412
 5367TIP3    H137516   3.893   3.146  15.374 -0.4782  1.7878  0.4699
 5367TIP3    H237517   3.771   3.074  15.426 -0.0034  0.2675 -0.4802
 5368TIP3   OH237518   1.426   5.005  13.493  0.4992 -0.1203 -0.3419
 5368TIP3    H137519   1.359   4.965  13.438  0.6825 -0.5951 -0.2250
 5368TIP3    H237520   1.424   5.098  13.470  0.0162 -0.1825 -0.5594
 5369TIP3   OH237521   5.802   3.386  14.626  1.2489 -0.6837 -0.3616
 5369TIP3    H137522   5.874   3.389  14.689  2.4635  1.4444 -1.7208
 5369TIP3    H237523   5.727   3.420  14.673  1.3493 -1.9607  0.7799
 5370TIP3   OH237524   3.821   6.100  12.619 -0.2539 -0.1397 -0.2532
 5370TIP3    H137525   3.884   6.057  12.562  1.0484 -0.6796  1.5144
 5370TIP3    H237526   3.736   6.074  12.584  0.4927 -1.0885 -1.4537
 5371TIP3   OH237527   2.530   1.164  16.761 -0.2727 -0.2250 -0.3949
 5371TIP3    H137528   2.524   1.085  16.814  1.2468  1.0605  1.8576
 5371TIP3    H237529   2.610   1.152  16.709  1.0786  0.5362  1.3831
 5372TIP3   OH237530   2.773   0.236  15.299  0.0036 -0.2365 -0.3303
 5372TIP3    H137531   2.782   0.242  15.203  0.3615 -0.5547 -0.3157
 5372TIP3    H237532   2.703   0.298  15.319 -1.0213 -1.1402 -0.9533
 5373TIP3   OH237533   3.681   1.498   0.644  0.3544 -0.2840 -0.1920
 5373TIP3    H137534   3.709   1.411   0.671 -2.4629 -1.1156  0.4244
 5373TIP3    H237535   3.687   1.551   0.723  1.0778 -0.1756 -0.3130
 5374TIP3   OH237536   2.251   5.211  12.544  0.4089 -0.0593 -0.0571
 5374TIP3    H137537   2.164   5.198  12.583 -0.0219  1.1536 -0.5575
 5374TIP3    H237538   2.263   5.137  12.485  0.9305 -1.7651  2.0540
 5375TIP3   OH237539   4.162   3.034  13.392  0.1826  0.0654 -0.2769
 5375TIP3    H137540   4.124   3.039  13.304 -0.5685 -0.7555 -0.0090
 5375TIP3    H237541   4.183   2.941  13.404 -0.2986  0.0660  0.6509
 5376TIP3   OH237542   4.944   2.131   0.124  0.4414  0.8447 -0.0372
 5376TIP3    H137543   4.960   2.121   0.030  0.3494  2.5720 -0.2812
 5376TIP3    H237544   5.023   2.097   0.166  0.8579  0.8523 -0.7933
 5377TIP3   OH237545   6.622   4.550  12.344  0.1592 -0.4607 -0.2040
 5377TIP3    H137546   6.626   4.604  12.265  0.0758 -1.9250 -1.2439
 5377TIP3    H237547   6.650   4.609  12.414 -1.7022  1.4848 -0.9803
 5378TIP3   OH237548   3.586   2.932   5.185  0.3684 -1.0460  0.2088
 5378TIP3    H137549   3.507   2.985   5.180 -0.3338 -2.1196 -0.6350
 5378TIP3    H237550   3.658   2.995   5.185 -0.4747 -0.0615  0.8841
 5379TIP3   OH237551   2.680   2.515  11.940 -0.0320  0.3961  0.4779
 5379TIP3    H137552   2.754   2.457  11.926 -0.2758  0.7117 -2.7002
 5379TIP3    H237553   2.603   2.461  11.924 -0.3075  1.1134 -0.7681
 5380TIP3   OH237554   5.926   3.592   3.591 -0.2807  0.0954  0.0860
 5380TIP3    H137555   5.833   3.610   3.607 -0.7764 -2.0605 -0.0341
 5380TIP3    H237556   5.949   3.525   3.655  1.2365  0.6712  0.1755
 5381TIP3   OH237557   1.455   2.451   5.412 -0.4916  0.4534 -0.2833
 5381TIP3    H137558   1.540   2.464   5.454 -0.2536  0.2552 -0.6955
 5381TIP3    H237559   1.476   2.409   5.329 -1.1565 -1.6340  0.5405
 5382TIP3   OH237560   4.156   2.848  17.081 -0.1232 -0.7344 -0.9461
 5382TIP3    H137561   4.246   2.817  17.096  0.7940  1.4707 -1.4451
 5382TIP3    H237562   4.122   2.864  17.169  1.3839  1.9411 -0.7386
 5383TIP3   OH237563   4.692   2.216   2.683 -0.0319 -0.4427 -0.1708
 5383TIP3    H137564   4.619   2.155   2.690 -0.0017 -0.3355  1.4752
 5383TIP3    H237565   4.666   2.291   2.735  1.0114 -0.1484 -0.0418
 5384TIP3   OH237566   5.535   1.015   4.797  0.3791 -0.0305  0.4215
 5384TIP3    H137567   5.612   0.958   4.801 -0.8437 -1.6892  1.4957
 5384TIP3    H237568   5.471   0.966   4.746 -0.2828  0.9586  0.2709
 5385TIP3   OH237569   3.124   1.149  13.395 -0.5765 -0.0847  0.4449
 5385TIP3    H137570   3.104   1.057  13.377 -2.8622  0.8643 -2.6055
 5385TIP3    H237571   3.077   1.168  13.477 -1.9165 -1.1130 -0.0445
 5386TIP3   OH237572   4.234   5.328   2.811  0.5695 -0.2495  0.0526
 5386TIP3    H137573   4.140   5.313   2.802  0.3042  2.5361 -3.5443
 5386TIP3    H237574   4.241   5.411   2.858  1.3675 -0.8902  1.1412
 5387TIP3   OH237575   6.748   6.012   4.726 -0.1487 -0.4169  0.0661
 5387TIP3    H137576   6.683   6.082   4.713  1.2340  0.7492 -0.9330
 5387TIP3    H237577   6.801   6.042   4.799  1.3668  0.3792 -1.2801
 5388TIP3   OH237578   5.486   1.277   4.751  0.5374  0.2486  0.0818
 5388TIP3    H137579   5.518   1.186   4.754  1.4073  0.5059 -0.8266
 5388TIP3    H237580   5.392   1.270   4.770  0.5758 -0.8524 -0.0618
 5389TIP3   OH237581   3.057   4.659  12.684  0.3479 -0.7845  0.5565
 5389TIP3    H137582   3.052   4.664  12.588  0.8575  1.8709  0.6072
 5389TIP3    H237583   2.986   4.714  12.715  0.9998 -0.5493  1.6899
 5390TIP3   OH237584   5.224   6.097   0.788 -0.1318 -0.2822 -0.6737
 5390TIP3    H137585   5.215   6.127   0.698 -0.8389 -0.9139 -0.8213
 5390TIP3    H237586   5.285   6.159   0.828 -0.6523  0.6369 -1.2893
 5391TIP3   OH237587   1.541   5.851  15.781 -0.1570 -0.8674 -0.4201
 5391TIP3    H137588   1.560   5.866  15.873  0.1206  0.5805 -0.6936
 5391TIP3    H237589   1.624   5.820  15.744  0.4365  0.9204 -0.6598
 5392TIP3   OH237590   2.737   0.226  13.091 -0.7514  0.3393  0.6269
 5392TIP3    H137591   2.689   0.301  13.127 -0.0528  0.9485  0.3200
 5392TIP3    H237592   2.822   0.228  13.136  0.1604  1.1317 -0.9993
 5393TIP3   OH237593   0.480   5.050  14.213  0.0034  0.3947 -0.5449
 5393TIP3    H137594   0.573   5.039  14.233 -0.2312  1.6163  1.3678
 5393TIP3    H237595   0.459   5.138  14.241 -1.9487 -0.1546 -0.1451
 5394TIP3   OH237596   0.806   3.735   0.502 -0.3930 -0.1703 -0.2316
 5394TIP3    H137597   0.858   3.815   0.511 -0.4556  0.2125 -2.6327
 5394TIP3    H237598   0.836   3.697   0.420  0.4877 -3.3117  1.3721
 5395TIP3   OH237599   1.747   1.904   2.084 -0.0066  0.2820 -0.0539
 5395TIP3    H137600   1.814   1.867   2.025  1.1586 -1.1953  2.0635
 5395TIP3    H237601   1.670   1.850   2.069  0.1290  0.2181 -0.5473
 5396TIP3   OH237602   5.381   3.038  13.315  0.1917 -0.1461  0.4276
 5396TIP3    H137603   5.449   3.103  13.329 -0.8522  0.4238  3.5755
 5396TIP3    H237604   5.428   2.954  13.315  1.1704  0.3800 -0.3366
 5397TIP3   OH237605   6.292   3.758  11.539  0.3221 -0.1694 -0.1609
 5397TIP3    H137606   6.252   3.684  11.586  1.1610 -1.1395 -0.9287
 5397TIP3    H237607   6.374   3.723  11.505  0.5100  0.9938 -0.9473
 5398TIP3   OH237608   1.314   1.496  13.130 -1.2253 -0.4347 -0.8725
 5398TIP3    H137609   1.344   1.560  13.194  1.6276 -1.7996 -0.7054
 5398TIP3    H237610   1.260   1.435  13.180  0.9493 -1.4741  0.3279
 5399TIP3   OH237611   0.244   5.209   3.223  0.0572 -0.1528 -0.4817
 5399TIP3    H137612   0.298   5.149   3.171  0.9600  1.6680 -1.7673
 5399TIP3    H237613   0.193   5.257   3.159 -0.5169  0.5813  0.4984
 5400TIP3   OH237614   6.495   4.881   2.403  0.0213 -0.1070  0.2766
 5400TIP3    H137615   6.446   4.799   2.408  0.9231 -0.5633  2.3794
 5400TIP3    H237616   6.537   4.890   2.488  1.8759  1.3592 -0.7119
 5401TIP3   OH237617   3.777   4.705   5.018 -0.0057  0.4117 -0.4637
 5401TIP3    H137618   3.802   4.726   5.108 -1.8481  1.5053 -0.1494
 5401TIP3    H237619   3.848   4.650   4.985  1.0171  0.5189  1.4387
 5402TIP3   OH237620   4.055   2.649   0.060  0.1554  0.0850  0.1991
 5402TIP3    H137621   4.117   2.608   0.001  0.1907  1.4537 -0.7594
 5402TIP3    H237622   4.108   2.682   0.133  0.3127 -0.3078  0.2603
 5403TIP3   OH237623   1.462   4.133  16.724  0.0045 -0.1234  0.2306
 5403TIP3    H137624   1.506   4.177  16.652  0.0877  0.2378  0.5018
 5403TIP3    H237625   1.368   4.142  16.704  0.0396 -0.8065 -0.2930
 5404TIP3   OH237626   5.476   2.778  15.325  0.3872  0.0640  0.5572
 5404TIP3    H137627   5.465   2.803  15.417 -1.2664 -0.6459  0.5897
 5404TIP3    H237628   5.430   2.846  15.276  0.0287 -0.3182  0.3566
 5405TIP3   OH237629   1.651   1.338  12.023 -0.4487  0.5425 -0.2421
 5405TIP3    H137630   1.678   1.408  11.964  1.3140 -0.4017 -0.6225
 5405TIP3    H237631   1.607   1.275  11.967  0.4665  0.0454 -0.4135
 5406TIP3   OH237632   0.962   5.854   4.516  0.4812 -0.2892  0.0071
 5406TIP3    H137633   0.934   5.763   4.529  1.3348 -0.5157  0.3953
 5406TIP3    H237634   1.040   5.847   4.461  0.1639  0.2666 -0.5236
 5407TIP3   OH237635   3.153   4.220  15.744  0.1251 -0.2558 -0.0385
 5407TIP3    H137636   3.085   4.165  15.705 -0.3863 -0.0344  0.5326
 5407TIP3    H237637   3.235   4.185  15.708 -0.2753 -0.6132 -0.6185
 5408TIP3   OH237638   5.973   3.434  16.706 -0.3337 -0.3328  0.5490
 5408TIP3    H137639   5.915   3.418  16.631  1.1129  0.7250 -0.8830
 5408TIP3    H237640   6.026   3.354  16.713 -0.1739 -0.2661  0.1385
 5409TIP3   OH237641   5.315   3.391   5.180  0.1676 -0.1517  0.1176
 5409TIP3    H137642   5.390   3.372   5.123 -1.1323 -1.0389 -1.3500
 5409TIP3    H237643   5.323   3.327   5.251  0.4558 -0.6717 -0.3756
 5410TIP3   OH237644   4.635   3.770   3.487 -0.0614  0.4014  0.0620
 5410TIP3    H137645   4.557   3.726   3.522 -0.2788 -0.4521 -1.3864
 5410TIP3    H237646   4.601   3.831   3.422  0.4224  0.8195  0.1942
 5411TIP3   OH237647   4.817   6.729   3.324 -0.4791 -0.1233  0.0205
 5411TIP3    H137648   4.802   6.821   3.345 -1.4723  0.0022 -1.1192
 5411TIP3    H237649   4.730   6.689   3.329 -0.2365 -0.7500 -0.6158
 5412TIP3   OH237650   0.003   4.838  13.482 -0.1239  1.0992 -0.4692
 5412TIP3    H137651   0.002   4.752  13.525 -0.9782  1.2088 -0.2578
 5412TIP3    H237652   0.017   4.818  13.389 -1.5944  0.6387 -0.6065
 5413TIP3   OH237653   4.453   5.192  15.454 -0.1613 -0.0209  0.5583
 5413TIP3    H137654   4.516   5.146  15.511 -0.7111 -2.5528 -0.7552
 5413TIP3    H237655   4.425   5.126  15.391 -0.1662  2.4418 -2.2353
 5414TIP3   OH237656   5.023   0.243  12.408  0.0560  0.0520  0.2379
 5414TIP3    H137657   5.101   0.250  12.462  0.8716 -3.1470 -0.2753
 5414TIP3    H237658   5.043   0.295  12.330  1.4629 -0.2606  0.3582
 5415TIP3   OH237659   6.217   6.047  15.681  0.2396  0.2437  0.2523
 5415TIP3    H137660   6.231   5.963  15.636 -1.0125 -0.3271  0.8859
 5415TIP3    H237661   6.266   6.038  15.763  1.3249  0.7256 -0.3215
 5416TIP3   OH237662   5.647   5.982  16.978  0.0706 -0.6722  0.1892
 5416TIP3    H137663   5.560   6.021  16.979 -0.0421 -0.9150  0.1057
 5416TIP3    H237664   5.652   5.931  17.058 -0.5704 -2.1574 -0.6769
 5417TIP3   OH237665   4.987   2.557   1.748  0.2103  0.0951  0.0745
 5417TIP3    H137666   4.957   2.644   1.772  0.1857  0.1392 -0.1168
 5417TIP3    H237667   5.081   2.557   1.766  0.5279  0.6928 -1.4584
 5418TIP3   OH237668   4.756   5.450   5.646  0.0604 -0.2114  0.1137
 5418TIP3    H137669   4.730   5.449   5.554 -1.6658 -0.8757  0.5757
 5418TIP3    H237670   4.786   5.540   5.661  0.2807 -0.0707 -1.0604
 5419TIP3   OH237671   0.525   1.384  12.830 -0.1772 -0.0359  0.3191
 5419TIP3    H137672   0.451   1.403  12.772 -0.4649 -0.3076  0.5956
 5419TIP3    H237673   0.579   1.322  12.781  1.0137  1.7571 -0.7924
 5420TIP3   OH237674   0.531   0.484   5.224  0.0144  0.2978 -0.3183
 5420TIP3    H137675   0.571   0.566   5.252 -1.3430  1.1921 -0.8762
 5420TIP3    H237676   0.443   0.486   5.262 -0.0589 -0.8819 -0.3836
 5421TIP3   OH237677   1.981   0.754   4.339  0.1835  0.2330 -0.0030
 5421TIP3    H137678   1.971   0.695   4.265  0.9647  2.0925 -1.6521
 5421TIP3    H237679   1.893   0.789   4.354 -0.2621 -1.1898  0.9154
 5422TIP3   OH237680   5.224   6.456   5.493 -0.6120 -0.0870  0.4324
 5422TIP3    H137681   5.196   6.435   5.404 -0.0817  1.0969 -0.0400
 5422TIP3    H237682   5.284   6.385   5.516  0.0825  0.1366 -0.5843
 5423TIP3   OH237683   1.722   1.191  13.574 -0.0116 -0.0001 -0.5092
 5423TIP3    H137684   1.650   1.253  13.581  1.1019  1.4209 -0.9780
 5423TIP3    H237685   1.791   1.228  13.629 -0.4355 -2.6634  2.0749
 5424TIP3   OH237686   6.368   1.652   4.187 -0.0702 -0.8111  0.7074
 5424TIP3    H137687   6.459   1.639   4.160 -0.5740 -0.7544 -1.1847
 5424TIP3    H237688   6.343   1.568   4.226  0.7998 -0.8011  1.3173
 5425TIP3   OH237689   3.404   3.112   5.266  0.2450  0.0806 -0.1681
 5425TIP3    H137690   3.319   3.122   5.308 -0.7138  0.6223 -2.1228
 5425TIP3    H237691   3.425   3.199   5.234  1.0152 -0.2799 -0.6677
 5426TIP3   OH237692   5.823   0.425  12.717  0.3864  0.7073 -0.5076
 5426TIP3    H137693   5.776   0.353  12.760  3.5817 -1.1134  0.2585
 5426TIP3    H237694   5.790   0.425  12.627 -0.6163 -0.8460 -0.1801
 5427TIP3   OH237695   1.175   1.940   4.087  0.2031  0.6996  0.1642
 5427TIP3    H137696   1.130   1.976   4.010  0.1756  0.4535  0.0648
 5427TIP3    H237697   1.236   1.875   4.051 -0.9127 -0.5525  0.4564
 5428TIP3   OH237698   2.269   4.572  16.419 -0.5001  0.0024  0.3295
 5428TIP3    H137699   2.210   4.504  16.387 -0.7777 -0.0216  0.8652
 5428TIP3    H237700   2.287   4.627  16.343 -1.5624  0.2575  0.2410
 5429TIP3   OH237701   1.211   3.177   4.171  0.3089 -0.3031  0.4306
 5429TIP3    H137702   1.131   3.125   4.177  0.9859 -1.2718  1.5911
 5429TIP3    H237703   1.210   3.231   4.250  0.0002  0.9196 -0.3788
 5430TIP3   OH237704   5.331   0.674  12.683  0.5021 -0.8591  0.4204
 5430TIP3    H137705   5.276   0.609  12.640  0.2447 -1.0880  1.0846
 5430TIP3    H237706   5.274   0.712  12.751  0.7389 -0.1444  0.2288
 5431TIP3   OH237707   4.456   3.533   6.008  0.1224  0.1118 -0.2419
 5431TIP3    H137708   4.432   3.462   5.949 -1.0866 -0.2095  0.5942
 5431TIP3    H237709   4.514   3.589   5.957  1.1853 -1.5160 -0.8868
 5432TIP3   OH237710   4.370   2.670  15.976 -0.0934  0.1557 -0.2901
 5432TIP3    H137711   4.328   2.616  16.043 -0.9571 -1.1020 -1.7950
 5432TIP3    H237712   4.307   2.672  15.904 -0.4440  3.8036 -0.0700
 5433TIP3   OH237713   4.683   3.374  16.889  0.0924 -0.0654 -0.4075
 5433TIP3    H137714   4.677   3.466  16.862  0.4344 -0.1277 -0.7073
 5433TIP3    H237715   4.622   3.367  16.962 -1.9705 -0.2128 -2.0113
 5434TIP3   OH237716   1.139   2.496  15.517 -0.9317  0.1861 -0.1568
 5434TIP3    H137717   1.203   2.429  15.492 -0.9440 -0.2192  0.8534
 5434TIP3    H237718   1.070   2.489  15.450 -0.3367  0.0410 -0.7603
 5435TIP3   OH237719   0.720   0.473   4.455 -0.3321  0.2323  0.6093
 5435TIP3    H137720   0.672   0.439   4.530  1.1964  0.4278  1.7311
 5435TIP3    H237721   0.735   0.396   4.399  0.0023 -0.2639  1.3642
 5436TIP3   OH237722   0.511   5.623  13.112  0.3900  0.0350 -0.3156
 5436TIP3    H137723   0.478   5.542  13.074 -1.8600  1.2351 -1.1197
 5436TIP3    H237724   0.455   5.692  13.075  2.9648  2.1377 -0.6476
 5437TIP3   OH237725   4.151   1.596   5.910 -0.0441  0.0214 -0.2526
 5437TIP3    H137726   4.160   1.658   5.837 -2.5159  1.2658  0.3923
 5437TIP3    H237727   4.178   1.646   5.987 -0.2516 -0.3180  0.0437
 5438TIP3   OH237728   2.793   3.802   3.842 -0.3473 -0.2117  0.0029
 5438TIP3    H137729   2.800   3.832   3.933  0.4804  0.3977 -0.2570
 5438TIP3    H237730   2.805   3.707   3.847 -1.4850 -0.3423  0.6542
 5439TIP3   OH237731   3.961   2.560  11.795 -0.3396 -0.3583 -0.1757
 5439TIP3    H137732   3.877   2.518  11.814  0.0771 -0.8779  0.6073
 5439TIP3    H237733   3.983   2.607  11.876 -0.9077  1.6172 -1.1147
 5440TIP3   OH237734   6.624   6.168  16.034 -0.9151  0.2238  0.2895
 5440TIP3    H137735   6.632   6.093  16.093 -2.2842 -1.3730 -1.4446
 5440TIP3    H237736   6.701   6.221  16.053  1.2346 -2.6387  0.1840
 5441TIP3   OH237737   2.396   2.606   1.643  0.0478  0.1829  0.9156
 5441TIP3    H137738   2.460   2.535   1.648  0.8809  0.9090  0.8326
 5441TIP3    H237739   2.390   2.637   1.733  0.3934  0.6079  0.7958
 5442TIP3   OH237740   5.616   5.966  14.442 -0.0867  0.1852 -0.1311
 5442TIP3    H137741   5.703   6.006  14.449  1.2197 -2.2326 -1.2307
 5442TIP3    H237742   5.602   5.957  14.347 -0.2327 -1.9109  0.0321
 5443TIP3   OH237743   6.656   1.664   0.165 -1.2507  0.4776  0.1875
 5443TIP3    H137744   6.745   1.699   0.169 -1.0852  0.0011  0.8149
 5443TIP3    H237745   6.663   1.586   0.111 -1.0370 -0.2455  1.2196
 5444TIP3   OH237746   2.903   3.552  16.042 -0.3307  0.3779  0.0793
 5444TIP3    H137747   2.984   3.588  16.006 -0.2428  0.1803  0.0814
 5444TIP3    H237748   2.922   3.541  16.136  0.3052 -1.5111 -0.2437
 5445TIP3   OH237749   3.879   4.101   2.888 -0.4308 -0.4455  0.3078
 5445TIP3    H137750   3.836   4.024   2.925  0.3550 -1.3070 -0.5065
 5445TIP3    H237751   3.969   4.096   2.920 -0.3387  0.0509  0.1267
 5446TIP3   OH237752   5.432   5.275  15.848 -0.0074 -0.0870  0.4767
 5446TIP3    H137753   5.367   5.311  15.789  0.1900  0.4109  0.5492
 5446TIP3    H237754   5.504   5.339  15.846 -0.8844  1.1423  2.9101
 5447TIP3   OH237755   4.114   1.331  11.321  0.4257  0.7883 -0.4181
 5447TIP3    H137756   4.158   1.415  11.336  0.3884  1.2259 -2.4229
 5447TIP3    H237757   4.155   1.296  11.242  1.8040 -2.0749  1.4096
 5448TIP3   OH237758   4.560   2.660  10.802  0.0486 -0.1672  1.0788
 5448TIP3    H137759   4.611   2.621  10.730 -2.2955 -2.0046  0.2744
 5448TIP3    H237760   4.599   2.624  10.881  1.0165 -0.2194  0.5976
 5449TIP3   OH237761   3.523   6.454  16.777 -0.2190 -0.2810 -0.8848
 5449TIP3    H137762   3.540   6.548  16.769 -1.1767 -0.0731 -0.6040
 5449TIP3    H237763   3.435   6.449  16.815  0.2534 -1.2887  0.0937
 5450TIP3   OH237764   3.455   4.098  11.561 -0.7257  0.4752 -0.3232
 5450TIP3    H137765   3.551   4.098  11.550 -0.7832  0.5460 -0.8369
 5450TIP3    H237766   3.421   4.111  11.473 -1.2102  0.6492 -0.1118
 5451TIP3   OH237767   0.398   3.714   3.370  0.3337  0.1803  0.2348
 5451TIP3    H137768   0.489   3.737   3.350  1.0653 -1.9625  0.8419
 5451TIP3    H237769   0.392   3.721   3.465  0.3140 -1.1539  0.3419
 5452TIP3   OH237770   3.774   3.530   0.981 -0.5745 -0.5038  0.6082
 5452TIP3    H137771   3.830   3.598   1.019 -0.0785 -0.9949  0.7639
 5452TIP3    H237772   3.819   3.448   0.999  0.1500 -0.7056 -1.8150
 5453TIP3   OH237773   5.774   5.944   4.208 -1.2565 -0.8903 -0.3075
 5453TIP3    H137774   5.748   6.035   4.200  0.0269 -0.4735 -0.0323
 5453TIP3    H237775   5.740   5.916   4.293 -0.6040 -0.2779  0.1669
 5454TIP3   OH237776   4.065   2.880   0.923  0.2513 -0.4199  0.1632
 5454TIP3    H137777   4.141   2.837   0.883  1.5965  1.0672  0.9933
 5454TIP3    H237778   4.075   2.865   1.017  0.3931  1.0957  0.4082
 5455TIP3   OH237779   3.830   5.014  11.599 -0.2179 -0.2423  0.1486
 5455TIP3    H137780   3.855   4.922  11.591  1.1366  0.1253 -0.2302
 5455TIP3    H237781   3.879   5.046  11.675 -0.3204  0.2735  0.0054
 5456TIP3   OH237782   2.895   1.072  10.274  0.1320 -0.0316  0.5629
 5456TIP3    H137783   2.838   1.006  10.315 -0.4300  0.0573 -0.0597
 5456TIP3    H237784   2.982   1.033  10.277 -0.3829 -1.3743 -0.9416
 5457TIP3   OH237785   5.407   1.232   5.643  0.6170  0.3507  0.2806
 5457TIP3    H137786   5.377   1.315   5.680  0.6323 -0.2248  1.6438
 5457TIP3    H237787   5.376   1.166   5.705  2.3078 -0.5058  0.2709
 5458TIP3   OH237788   1.145   5.445  11.970  0.2591 -1.0343  0.3560
 5458TIP3    H137789   1.224   5.496  11.948 -0.0994 -0.3359  0.6360
 5458TIP3    H237790   1.150   5.433  12.065 -0.6148  0.1714  0.5892
 5459TIP3   OH237791   6.339   4.289   4.354  0.3656  0.3689 -0.0063
 5459TIP3    H137792   6.260   4.302   4.406 -0.3156  0.4961 -1.0444
 5459TIP3    H237793   6.365   4.377   4.326  1.3501  0.4123  0.9888
 5460TIP3   OH237794   4.605   2.144   3.261  0.1117  0.1243  0.2746
 5460TIP3    H137795   4.559   2.228   3.262 -0.8485 -0.3521 -1.2776
 5460TIP3    H237796   4.539   2.079   3.282  0.4021 -0.4299 -0.4805
 5461TIP3   OH237797   1.755   1.814  15.525 -0.2902  0.1058  0.3001
 5461TIP3    H137798   1.738   1.906  15.548 -0.5394  0.7925 -2.3331
 5461TIP3    H237799   1.851   1.807  15.525 -0.2688 -0.3121  2.7376
 5462TIP3   OH237800   4.988   3.448   0.324 -0.3228 -0.6859 -0.5729
 5462TIP3    H137801   4.932   3.375   0.297 -0.9819 -0.6782  0.6970
 5462TIP3    H237802   4.976   3.514   0.256  0.3936 -1.7870 -1.8209
 5463TIP3   OH237803   3.317   4.764   4.479  0.7529  0.1156 -0.2771
 5463TIP3    H137804   3.307   4.693   4.415  1.3111 -0.3572  0.1490
 5463TIP3    H237805   3.411   4.768   4.495  0.5111 -0.8658  1.7045
 5464TIP3   OH237806   5.057   6.277  15.547  1.2195 -0.0453  0.5302
 5464TIP3    H137807   5.137   6.236  15.514  1.2240 -0.5200  1.1247
 5464TIP3    H237808   5.082   6.315  15.631  1.0146  0.5137  0.3497
 5465TIP3   OH237809   1.447   5.732   2.130 -0.2641 -0.5596  0.2332
 5465TIP3    H137810   1.483   5.665   2.189 -0.0158 -0.4497  0.2059
 5465TIP3    H237811   1.467   5.700   2.042  0.0932 -0.3189  0.2245
 5466TIP3   OH237812   3.053   3.474   3.638 -0.4953  0.3435  0.4281
 5466TIP3    H137813   3.095   3.553   3.671  1.7146 -0.6221  0.0925
 5466TIP3    H237814   2.968   3.472   3.683  0.4243  1.5772  2.3743
 5467TIP3   OH237815   4.602   0.171  14.108  0.0454  0.3804 -0.1263
 5467TIP3    H137816   4.578   0.189  14.017 -2.1102 -0.0952  0.2907
 5467TIP3    H237817   4.697   0.180  14.110 -0.0534  2.7666 -1.8960
 5468TIP3   OH237818   3.978   4.197  12.597  0.3358  0.1967  0.1604
 5468TIP3    H137819   3.975   4.274  12.654  1.8426 -1.2258  2.2889
 5468TIP3    H237820   4.048   4.216  12.535 -0.1444  1.0360 -0.1448
 5469TIP3   OH237821   4.314   5.590   0.349 -0.3643 -0.4693 -0.6055
 5469TIP3    H137822   4.327   5.661   0.286  0.9283 -0.0051  0.1406
 5469TIP3    H237823   4.382   5.527   0.330  1.8882  0.9546  1.9708
 5470TIP3   OH237824   1.575   5.405  14.639 -0.1351 -0.0573 -0.3956
 5470TIP3    H137825   1.611   5.462  14.706  1.2000 -0.6825 -0.5514
 5470TIP3    H237826   1.499   5.364  14.680  1.1449 -1.0746  1.0654
 5471TIP3   OH237827   3.139   3.078  12.969  0.4702 -0.1784 -0.0282
 5471TIP3    H137828   3.135   2.985  12.988  0.0128 -0.0763  0.3963
 5471TIP3    H237829   3.051   3.101  12.938  0.6562  0.0581 -0.3992
 5472TIP3   OH237830   3.832   5.636   3.616 -0.2033  0.1161  0.1409
 5472TIP3    H137831   3.899   5.596   3.672 -1.0021  0.3112  1.2618
 5472TIP3    H237832   3.752   5.635   3.669 -1.3238 -0.9163 -1.5113
 5473TIP3   OH237833   4.918   3.209   3.398 -0.4826  0.2330 -0.0428
 5473TIP3    H137834   5.004   3.243   3.421 -1.0748  1.4061  0.5271
 5473TIP3    H237835   4.931   3.114   3.392  1.6672  0.5690 -3.6765
 5474TIP3   OH237836   4.439   2.253  16.806  0.4970  0.4274 -0.4206
 5474TIP3    H137837   4.397   2.176  16.846 -0.2692  0.0136 -1.9336
 5474TIP3    H237838   4.527   2.252  16.842 -0.7662  1.5654  3.2201
 5475TIP3   OH237839   0.353   4.764   4.965 -0.0295  0.5198 -0.1480
 5475TIP3    H137840   0.448   4.767   4.972 -0.1591  2.3475  1.5556
 5475TIP3    H237841   0.332   4.671   4.954  1.7905 -0.2334  2.1156
 5476TIP3   OH237842   1.825   2.277   5.438 -0.0726 -0.2330 -0.2644
 5476TIP3    H137843   1.771   2.279   5.359  2.9734  0.3327 -2.4922
 5476TIP3    H237844   1.890   2.347   5.425  3.5866 -3.1964  0.3547
 5477TIP3   OH237845   3.161   0.530   3.905 -0.1630 -0.1205 -0.7638
 5477TIP3    H137846   3.195   0.444   3.928 -1.1379 -1.1194 -2.7915
 5477TIP3    H237847   3.216   0.558   3.831  1.5151  2.0112  1.1513
 5478TIP3   OH237848   1.579   2.499   3.373 -0.1771  0.1361 -0.6879
 5478TIP3    H137849   1.545   2.419   3.411 -2.0270  0.8059 -0.8122
 5478TIP3    H237850   1.622   2.544   3.445 -2.3622  0.7137  0.3382
 5479TIP3   OH237851   2.344   2.692   2.714 -0.2169 -0.0539 -0.2485
 5479TIP3    H137852   2.300   2.692   2.799 -1.3337  1.9517 -0.7586
 5479TIP3    H237853   2.421   2.747   2.728  0.8764 -1.6137  0.0280
 5480TIP3   OH237854   5.734   2.677  15.890 -0.2349 -0.3708 -0.2418
 5480TIP3    H137855   5.792   2.734  15.939 -1.2280  0.9415 -0.5205
 5480TIP3    H237856   5.695   2.620  15.956  0.6866 -0.6663  0.0597
 5481TIP3   OH237857   6.569   3.498  15.188 -0.0517 -0.1704 -0.2791
 5481TIP3    H137858   6.549   3.418  15.237  1.3497 -0.1305  0.3947
 5481TIP3    H237859   6.595   3.561  15.254 -0.6074  0.6862 -0.8646
 5482TIP3   OH237860   2.726   0.178  12.824  0.3175 -0.0038 -0.1823
 5482TIP3    H137861   2.813   0.183  12.785  0.5022 -0.3315  0.1898
 5482TIP3    H237862   2.741   0.178  12.918 -0.1039  0.3043 -0.1089
 5483TIP3   OH237863   2.866   0.430   5.121 -0.6101 -0.8750 -0.4613
 5483TIP3    H137864   2.776   0.459   5.105 -0.1083  0.2214 -1.4834
 5483TIP3    H237865   2.858   0.336   5.136 -1.9511 -0.7651 -0.2936
 5484TIP3   OH237866   3.545   6.641   0.762  0.4229  0.0039  0.3917
 5484TIP3    H137867   3.586   6.683   0.838  1.0098 -1.1883  0.7596
 5484TIP3    H237868   3.609   6.576   0.734 -0.5319 -0.7597 -0.0475
 5485TIP3   OH237869   2.910   6.632   0.227 -0.0816 -0.1579  0.0657
 5485TIP3    H137870   3.004   6.634   0.208  0.1580 -0.5751  1.1271
 5485TIP3    H237871   2.879   6.719   0.203  0.5522 -0.0630 -0.4261
 5486TIP3   OH237872   0.818   2.838   3.752  0.0353 -0.4556 -0.0273
 5486TIP3    H137873   0.796   2.805   3.665  1.1850  0.9630 -0.9007
 5486TIP3    H237874   0.912   2.826   3.760  0.3787  1.7452 -0.0729
 5487TIP3   OH237875   0.999   2.511   2.326  0.6389  0.1231  0.0979
 5487TIP3    H137876   1.092   2.500   2.345  0.7945  0.9988 -0.0806
 5487TIP3    H237877   0.954   2.454   2.388  1.2754  0.0826  0.5292
 5488TIP3   OH237878   5.207   0.472  15.508  0.4927 -0.1756  0.8411
 5488TIP3    H137879   5.243   0.557  15.533  1.6869 -0.9548  1.8573
 5488TIP3    H237880   5.219   0.417  15.585 -0.3553 -1.2449  0.2305
 5489TIP3   OH237881   1.021   2.647   3.891 -0.4788  0.2904 -0.0276
 5489TIP3    H137882   1.115   2.652   3.909 -0.5594 -1.2523  1.0171
 5489TIP3    H237883   1.000   2.554   3.896 -1.7066  0.3693 -2.3662
 5490TIP3   OH237884   1.287   4.722  13.129 -0.1888  0.5914  0.2999
 5490TIP3    H137885   1.223   4.719  13.200 -0.3490  1.6370  0.2128
 5490TIP3    H237886   1.265   4.647  13.074  0.2135 -0.5090  1.5644
 5491TIP3   OH237887   3.750   4.307   3.062 -0.1750 -0.2580  0.4541
 5491TIP3    H137888   3.796   4.343   2.986  0.0755 -0.6436  0.4207
 5491TIP3    H237889   3.694   4.239   3.027 -0.4197 -0.1105  0.5561
 5492TIP3   OH237890   0.657   4.770   4.709  0.0644 -0.0051  0.1059
 5492TIP3    H137891   0.711   4.849   4.709 -0.0955  0.1126  1.2489
 5492TIP3    H237892   0.648   4.748   4.616  0.1843  1.2664 -0.2343
 5493TIP3   OH237893   1.951   4.453   2.129 -0.3394  0.1430  0.0042
 5493TIP3    H137894   1.969   4.439   2.222 -0.2146 -0.0014 -0.0427
 5493TIP3    H237895   1.928   4.367   2.095  1.1157 -0.1027 -0.4366
 5494TIP3   OH237896   2.156   1.033   4.473  0.1255 -0.3639 -0.3900
 5494TIP3    H137897   2.147   1.016   4.379 -2.0843  1.6055 -0.6055
 5494TIP3    H237898   2.069   1.019   4.509  0.8982 -0.9422  1.3971
 5495TIP3   OH237899   2.627   6.316  11.174  0.1859 -0.4194  0.1053
 5495TIP3    H137900   2.570   6.261  11.120 -0.0541 -0.8010  0.7294
 5495TIP3    H237901   2.712   6.272  11.172 -0.1599 -1.1864  1.1062
 5496TIP3   OH237902   2.055   3.006   0.425 -0.7758 -0.5505  0.0143
 5496TIP3    H137903   2.128   3.033   0.368  0.5758 -1.1658  1.3721
 5496TIP3    H237904   1.980   3.056   0.393  0.3133  0.3756 -1.2345
 5497TIP3   OH237905   6.445   2.996  14.786  0.0929  0.1297 -0.0269
 5497TIP3    H137906   6.523   2.974  14.735 -0.4483 -1.0723 -0.3624
 5497TIP3    H237907   6.427   3.087  14.763  0.9746  0.1968 -0.4986
 5498TIP3   OH237908   3.248   6.266  11.379 -0.0146  0.1891  0.2299
 5498TIP3    H137909   3.243   6.333  11.447 -0.5679 -0.4307  0.8208
 5498TIP3    H237910   3.205   6.305  11.303 -1.9493 -0.1112  1.1051
 5499TIP3   OH237911   4.797   4.116   0.455 -0.8223  0.5525  0.1140
 5499TIP3    H137912   4.718   4.100   0.507 -0.8912 -2.4349 -0.6974
 5499TIP3    H237913   4.835   4.028   0.443  1.7047  1.7021 -0.9517
 5500TIP3   OH237914   4.917   1.240  15.914  0.1860  0.2914  0.0825
 5500TIP3    H137915   4.893   1.332  15.899  0.4122  0.2335 -0.6398
 5500TIP3    H237916   4.836   1.191  15.896  0.3709  0.2512 -0.6898
 5501TIP3   OH237917   4.867   2.975  14.023 -0.2213 -0.2410  0.2251
 5501TIP3    H137918   4.933   3.012  13.963  0.7141  0.6478  1.7245
 5501TIP3    H237919   4.802   2.935  13.966  0.7724  0.3274 -1.3695
 5502TIP3   OH237920   5.578   1.572   3.147  0.0594  0.0214 -0.3558
 5502TIP3    H137921   5.645   1.534   3.203  0.7034  2.0435  0.3470
 5502TIP3    H237922   5.578   1.517   3.068  2.3471 -0.2065 -0.2646
 5503TIP3   OH237923   2.338   1.290  11.814 -0.2779  0.1953  0.3328
 5503TIP3    H137924   2.252   1.298  11.855 -0.2322  0.4374  0.3841
 5503TIP3    H237925   2.393   1.250  11.881 -0.4048 -0.1589  0.2244
 5504TIP3   OH237926   3.503   3.369   5.183  0.2040  0.5402  0.3127
 5504TIP3    H137927   3.529   3.369   5.091 -0.4912  0.3188  0.1143
 5504TIP3    H237928   3.584   3.388   5.230  0.9589 -1.1371 -0.2280
 5505TIP3   OH237929   0.199   3.547  11.415  0.1559  0.0547  0.3939
 5505TIP3    H137930   0.231   3.579  11.500 -2.0621  1.1157  0.9098
 5505TIP3    H237931   0.263   3.580  11.352  1.2947  0.1441  1.5422
 5506TIP3   OH237932   1.093   1.959  13.716 -0.3035 -0.5158 -0.3337
 5506TIP3    H137933   1.030   2.001  13.658 -1.1625  0.9681  1.5844
 5506TIP3    H237934   1.152   2.029  13.743 -0.4755 -0.9633  1.2781
 5507TIP3   OH237935   6.550   1.232  13.094 -0.2319 -0.8435  0.3261
 5507TIP3    H137936   6.637   1.212  13.130 -0.6745 -0.2428  1.8200
 5507TIP3    H237937   6.531   1.158  13.036  1.4629 -0.7565 -0.4266
 5508TIP3   OH237938   3.912   0.797  11.621 -0.3959  0.1286  0.1567
 5508TIP3    H137939   3.875   0.811  11.709 -0.4291 -1.2477  0.3745
 5508TIP3    H237940   3.949   0.709  11.624  1.2962  0.7772 -0.6351
 5509TIP3   OH237941   2.772   1.844   5.989 -0.4761 -0.4657 -0.0263
 5509TIP3    H137942   2.755   1.938   5.989  1.1893 -0.1490  0.2497
 5509TIP3    H237943   2.688   1.805   6.014 -1.0491  0.9552  0.3640
 5510TIP3   OH237944   2.455   2.765  12.615 -0.4836  0.5016 -0.0967
 5510TIP3    H137945   2.497   2.805  12.539 -2.6215  2.2862 -0.4160
 5510TIP3    H237946   2.380   2.718  12.579 -0.7707  0.2544  0.8031
 5511TIP3   OH237947   6.768   4.308   3.420  0.4130 -0.4072  0.9074
 5511TIP3    H137948   6.694   4.359   3.453  0.9340  0.9003  0.1345
 5511TIP3    H237949   6.780   4.238   3.484 -0.5719  0.2086  1.7932
 5512TIP3   OH237950   1.375   3.968  12.172  0.0200 -0.7973  0.5131
 5512TIP3    H137951   1.292   4.014  12.181  0.9594  1.1318 -0.2112
 5512TIP3    H237952   1.410   3.963  12.261 -0.5945 -1.1395  0.7442
 5513TIP3   OH237953   2.626   1.179   1.163 -0.1817  0.2066 -0.2431
 5513TIP3    H137954   2.595   1.091   1.145 -0.1921  0.1251  0.1685
 5513TIP3    H237955   2.713   1.183   1.122 -0.3947  0.1733 -0.6995
 5514TIP3   OH237956   4.158   0.357  12.723 -0.6784 -0.3466 -0.3476
 5514TIP3    H137957   4.067   0.333  12.740  0.1207 -2.3588  1.6103
 5514TIP3    H237958   4.203   0.337  12.804  1.2298  2.5204 -0.5615
 5515TIP3   OH237959   1.877   1.268   5.695  0.0220  0.4342 -0.0446
 5515TIP3    H137960   1.799   1.214   5.680  0.6791 -0.2382 -1.1342
 5515TIP3    H237961   1.841   1.355   5.714 -1.0014  0.1231 -0.4557
 5516TIP3   OH237962   2.701   0.891   2.944  0.2315 -0.3242 -0.4894
 5516TIP3    H137963   2.747   0.924   2.867 -1.7901 -0.0026 -1.6175
 5516TIP3    H237964   2.718   0.797   2.943 -0.2088 -0.4032 -1.6448
 5517TIP3   OH237965   1.443   0.356   2.973  0.2434 -0.2409 -0.3943
 5517TIP3    H137966   1.527   0.312   2.961  0.8812  0.2599  1.9078
 5517TIP3    H237967   1.460   0.447   2.948 -0.3581 -0.6246 -2.4394
 5518TIP3   OH237968   2.138   2.927   0.082 -0.0535 -0.1413  0.2002
 5518TIP3    H137969   2.082   2.888   0.149  0.8066  0.4154  1.2808
 5518TIP3    H237970   2.080   2.986   0.034 -0.5101  0.0516  0.9654
 5519TIP3   OH237971   0.628   3.954   0.978  0.0171 -0.1285  0.2462
 5519TIP3    H137972   0.715   3.980   1.009 -0.7131  0.3663  1.9477
 5519TIP3    H237973   0.568   4.018   1.016 -1.2707 -1.3894  0.4279
 5520TIP3   OH237974   0.586   6.708   4.493  0.1885 -0.2582 -0.1066
 5520TIP3    H137975   0.675   6.676   4.508 -0.4757 -2.5952 -0.6121
 5520TIP3    H237976   0.532   6.652   4.549 -0.9245  1.7788  0.9586
 5521TIP3   OH237977   2.592   3.185  12.957 -0.1994  0.3516 -0.3298
 5521TIP3    H137978   2.542   3.191  13.038 -1.4774  1.7104 -1.1675
 5521TIP3    H237979   2.546   3.243  12.896  0.0281 -1.4559 -2.3788
 5522TIP3   OH237980   2.546   6.613  15.721 -0.4452 -0.7229 -0.3617
 5522TIP3    H137981   2.454   6.636  15.734 -0.5658 -1.7179  0.7796
 5522TIP3    H237982   2.574   6.579  15.806  1.3898  0.8496 -0.2482
 5523TIP3   OH237983   2.646   2.646  11.565 -0.2527  1.4065  0.2730
 5523TIP3    H137984   2.614   2.680  11.481  0.8828  1.1985 -0.2639
 5523TIP3    H237985   2.739   2.627  11.549 -0.3467  0.0832  1.1856
 5524TIP3   OH237986   1.638   4.839   0.224 -0.1914  0.6601 -0.2078
 5524TIP3    H137987   1.617   4.897   0.150 -0.4917  0.4215 -0.3110
 5524TIP3    H237988   1.553   4.818   0.263 -0.3326 -1.4926 -1.5065
 5525TIP3   OH237989   6.635   0.149   0.194 -0.0197 -0.3738 -0.4122
 5525TIP3    H137990   6.598   0.218   0.250 -1.3904 -2.0328  0.8159
 5525TIP3    H237991   6.730   0.156   0.208 -0.0653  1.6309 -0.7991
 5526TIP3   OH237992   5.982   1.748  16.736 -0.0802 -0.6205  0.1141
 5526TIP3    H137993   6.006   1.743  16.643  0.6603 -2.4903  0.3541
 5526TIP3    H237994   6.055   1.794  16.777 -0.7117  0.7936 -0.2954
 5527TIP3   OH237995   2.073   5.748  15.020  0.5553 -0.2185  0.1636
 5527TIP3    H137996   1.978   5.748  15.014  0.4039  1.1264  1.9296
 5527TIP3    H237997   2.100   5.828  14.975  0.8330 -0.3575  0.0802
 5528TIP3   OH237998   0.598   6.093   1.083 -0.5261 -0.0005 -0.1679
 5528TIP3    H137999   0.585   6.178   1.125 -0.6629  0.3873 -0.9806
 5528TIP3    H238000   0.686   6.068   1.110 -0.8566 -0.0785  0.8899
 5529TIP3   OH238001   4.919   3.719   5.011 -0.3968  0.0362 -0.3148
 5529TIP3    H138002   5.006   3.707   5.048 -0.2878  0.0752 -0.5545
 5529TIP3    H238003   4.933   3.718   4.916 -0.6416  0.1610 -0.3531
 5530TIP3   OH238004   0.524   4.706  14.807 -0.4448 -0.2350  0.6337
 5530TIP3    H138005   0.501   4.649  14.733  3.0393  0.4817 -1.1955
 5530TIP3    H238006   0.458   4.775  14.805 -0.5462 -0.3088 -1.7793
 5531TIP3   OH238007   2.852   5.840   6.076 -0.2150  0.6085  0.1533
 5531TIP3    H138008   2.802   5.850   6.157 -0.3878  1.4328 -0.0462
 5531TIP3    H238009   2.944   5.836   6.104 -0.1510  2.3873  0.3129
 5532TIP3   OH238010   4.529   2.112   5.517 -0.6403 -0.1290  0.3726
 5532TIP3    H138011   4.551   2.141   5.605 -0.5385  1.5552 -0.1551
 5532TIP3    H238012   4.453   2.055   5.527 -0.6836  0.1259  1.5278
 5533TIP3   OH238013   1.558   2.198   2.952  0.2248 -0.0402 -0.0279
 5533TIP3    H138014   1.608   2.280   2.950  0.4107 -0.0752  1.6795
 5533TIP3    H238015   1.610   2.140   3.008 -0.1038 -1.1938 -0.8983
 5534TIP3   OH238016   6.466   2.642  17.043  0.0486  0.3938  0.5134
 5534TIP3    H138017   6.538   2.649  16.981 -1.1852 -1.5837 -1.2573
 5534TIP3    H238018   6.484   2.561  17.092 -1.1852 -0.4481 -0.3496
 5535TIP3   OH238019   6.590   2.761   4.047 -0.0200 -0.0712  0.1929
 5535TIP3    H138020   6.569   2.668   4.061  1.9732 -0.5765  0.1515
 5535TIP3    H238021   6.683   2.767   4.068  0.1022  1.7428 -0.7488
 5536TIP3   OH238022   5.929   5.549  12.003  0.1502 -0.1539 -0.6028
 5536TIP3    H138023   5.920   5.524  12.095 -0.7858  0.4976 -0.5115
 5536TIP3    H238024   5.942   5.466  11.957 -1.9114 -0.7684 -0.1812
 5537TIP3   OH238025   6.373   1.340  17.258 -0.1637 -0.6131 -0.8320
 5537TIP3    H138026   6.465   1.360  17.242 -0.6594  1.3554 -1.5421
 5537TIP3    H238027   6.370   1.312  17.349  1.1614 -0.8533 -0.8433
 5538TIP3   OH238028   0.929   6.153  12.672 -0.4618  0.0892  0.1750
 5538TIP3    H138029   0.925   6.133  12.766  0.6578  0.2275  0.2596
 5538TIP3    H238030   0.977   6.080  12.634  2.1885  1.6752  0.2468
 5539TIP3   OH238031   3.378   2.650   3.384  0.1543 -0.0564  0.3186
 5539TIP3    H138032   3.405   2.601   3.306 -1.0669  0.4881 -0.4715
 5539TIP3    H238033   3.312   2.711   3.352 -0.5981 -0.0333  1.8446
 5540TIP3   OH238034   3.138   4.729   0.746  0.2248  0.2079  0.3321
 5540TIP3    H138035   3.143   4.791   0.819  1.3523  0.2164  0.2599
 5540TIP3    H238036   3.097   4.651   0.783 -1.0709  0.9158  0.4628
 5541TIP3   OH238037   3.094   2.811  13.036  0.3603 -0.2375 -0.5321
 5541TIP3    H138038   3.008   2.808  13.079 -0.2131  1.5938 -1.4241
 5541TIP3    H238039   3.076   2.788  12.945  0.4869  1.7161 -1.0912
 5542TIP3   OH238040   6.414   3.800  12.970 -0.4884 -0.0572  0.2032
 5542TIP3    H138041   6.391   3.716  12.931 -0.9191 -0.4514  1.2557
 5542TIP3    H238042   6.489   3.830  12.920  0.4489 -1.6570  0.5841
 5543TIP3   OH238043   5.030   6.340  13.804 -0.0308 -0.2095  0.5942
 5543TIP3    H138044   5.034   6.391  13.723 -1.5285 -1.4300 -0.3022
 5543TIP3    H238045   5.045   6.250  13.777 -0.4338 -0.6307  1.7024
 5544TIP3   OH238046   4.172   6.200   5.922 -0.0792  0.4002  0.2742
 5544TIP3    H138047   4.157   6.278   5.975 -0.3904 -0.4392  1.4675
 5544TIP3    H238048   4.268   6.192   5.918 -0.0485  0.8968  0.0751
 5545TIP3   OH238049   1.198   2.677  16.169  0.1297  0.0167 -1.0845
 5545TIP3    H138050   1.106   2.689  16.143  0.1390  0.8683 -0.7587
 5545TIP3    H238051   1.244   2.661  16.087 -0.1910  0.3641 -1.3353
 5546TIP3   OH238052   3.784   2.840  11.459 -0.1474 -0.0508  0.1772
 5546TIP3    H138053   3.855   2.788  11.420 -0.7805 -0.0008 -1.0813
 5546TIP3    H238054   3.760   2.903  11.391  0.1678  1.5057  1.4396
 5547TIP3   OH238055   2.330   1.070  12.889  0.1237  0.2657 -0.0479
 5547TIP3    H138056   2.413   1.086  12.845  0.7885 -1.2495  0.5517
 5547TIP3    H238057   2.356   1.041  12.977 -0.9562 -1.4691 -0.2481
 5548TIP3   OH238058   0.616   1.691  13.246  0.1460  0.1375 -0.6873
 5548TIP3    H138059   0.557   1.739  13.304 -0.7025 -0.8474 -0.7101
 5548TIP3    H238060   0.639   1.613  13.295  0.9946  0.2431 -0.9105
 5549TIP3   OH238061   5.492   1.605   5.500 -0.0342  0.4195 -0.0595
 5549TIP3    H138062   5.517   1.527   5.452  0.0452  0.5907 -0.2943
 5549TIP3    H238063   5.422   1.575   5.559 -1.0400  0.4712 -1.1762
 5550TIP3   OH238064   1.931   3.411  10.719  0.4166 -0.0229 -0.3773
 5550TIP3    H138065   1.994   3.356  10.764 -0.5396 -0.1652  0.8158
 5550TIP3    H238066   1.846   3.370  10.736 -0.1248  0.8233 -0.9612
 5551TIP3   OH238067   3.944   3.750  12.552 -0.6278  0.3391 -0.8456
 5551TIP3    H138068   3.982   3.790  12.631 -1.4487 -0.7755  0.1367
 5551TIP3    H238069   3.887   3.818  12.517 -1.8240  0.1880  0.6734
 5552TIP3   OH238070   6.559   3.964  12.535  0.6184 -0.1166  0.4349
 5552TIP3    H138071   6.544   4.024  12.608  0.7464 -1.6772  1.8137
 5552TIP3    H238072   6.471   3.939  12.506  0.4342  2.8579 -2.1298
 5553TIP3   OH238073   2.081   4.210   2.930  0.0834 -0.3192  0.0448
 5553TIP3    H138074   2.132   4.130   2.940 -3.0068 -2.1965  3.5652
 5553TIP3    H238075   2.075   4.246   3.018 -2.0660  1.4276 -0.7143
 5554TIP3   OH238076   6.775   4.267   5.360  0.3673  0.2973  0.1297
 5554TIP3    H138077   6.870   4.253   5.361  0.6232  1.8636  0.8519
 5554TIP3    H238078   6.739   4.184   5.328  2.0241  0.0159 -1.1369
 5555TIP3   OH238079   0.488   1.972  15.271 -0.4163 -0.5580  0.3654
 5555TIP3    H138080   0.456   2.037  15.333  0.8061  1.6429 -1.1567
 5555TIP3    H238081   0.503   1.894  15.324 -0.9145  0.7159  2.5094
 5556TIP3   OH238082   5.409   5.068   3.566  0.3410  0.3262  0.0192
 5556TIP3    H138083   5.358   5.147   3.548 -0.7909 -0.6381 -1.2556
 5556TIP3    H238084   5.444   5.042   3.481 -2.2352 -2.4321 -0.4109
 5557TIP3   OH238085   0.444   5.373   0.770 -0.0421  0.3807  0.2820
 5557TIP3    H138086   0.363   5.418   0.796  0.1366  1.0770 -0.3228
 5557TIP3    H238087   0.514   5.436   0.791  0.3390 -0.2049  0.7769
 5558TIP3   OH238088   2.240   6.296  16.983 -0.1277  0.1851 -0.2666
 5558TIP3    H138089   2.266   6.388  16.998  1.7465 -0.4669  0.8815
 5558TIP3    H238090   2.301   6.246  17.037 -0.6307 -1.7918 -1.4596
 5559TIP3   OH238091   2.530   1.015  14.221 -0.2357  0.0704  0.2598
 5559TIP3    H138092   2.573   0.942  14.175 -0.6404  0.0849 -0.1586
 5559TIP3    H238093   2.592   1.040  14.289  1.0305  0.9605 -1.1408
 5560TIP3   OH238094   0.763   2.282  13.748  0.0918 -0.0066  0.5168
 5560TIP3    H138095   0.739   2.273  13.841  0.5627  1.9571  0.8750
 5560TIP3    H238096   0.752   2.194  13.712  0.2571 -0.9051  2.5217
 5561TIP3   OH238097   4.161   1.234  14.541  0.3013 -0.0451  0.2215
 5561TIP3    H138098   4.141   1.292  14.614 -0.2926  1.8932 -1.4053
 5561TIP3    H238099   4.120   1.275  14.465 -0.4855 -2.8177 -0.9718
 5562TIP3   OH238100   6.318   0.304   2.340 -0.0914  0.1263  0.3544
 5562TIP3    H138101   6.320   0.225   2.394  1.2326 -0.6960 -0.8219
 5562TIP3    H238102   6.391   0.357   2.372 -1.5345  1.3661  1.7626
 5563TIP3   OH238103   6.011   1.981   4.174 -0.1191 -0.0001  0.6739
 5563TIP3    H138104   6.080   2.027   4.126  0.7681 -1.2746  0.6554
 5563TIP3    H238105   5.950   1.953   4.106 -0.1076  0.2578  0.5591
 5564TIP3   OH238106   1.774   2.634  10.390 -0.5247 -0.5325 -0.0414
 5564TIP3    H138107   1.714   2.700  10.355 -0.7246 -0.9008 -0.4169
 5564TIP3    H238108   1.717   2.558  10.407 -0.2355 -0.7426 -0.0051
 5565TIP3   OH238109   5.530   0.581   2.480 -0.1858 -0.2386 -0.3033
 5565TIP3    H138110   5.457   0.625   2.524 -1.0425 -0.3460 -1.5639
 5565TIP3    H238111   5.596   0.649   2.467 -0.5051  0.1080 -0.0932
 5566TIP3   OH238112   0.618   3.413  11.544 -0.2838  0.4711 -0.3745
 5566TIP3    H138113   0.684   3.470  11.505  1.7136 -1.6826 -0.3710
 5566TIP3    H238114   0.580   3.365  11.470 -1.7414  1.5160 -0.3490
 5567TIP3   OH238115   3.466   4.200   0.896 -0.0491 -0.3753  0.0523
 5567TIP3    H138116   3.542   4.158   0.856 -1.1476 -3.4903  0.9696
 5567TIP3    H238117   3.449   4.150   0.976 -1.0530  2.3796  1.6985
 5568TIP3   OH238118   6.257   4.804   3.485 -0.3306 -0.1946  0.3934
 5568TIP3    H138119   6.318   4.733   3.507  0.5387  0.8978  1.7166
 5568TIP3    H238120   6.189   4.798   3.552 -0.7737 -0.3766 -0.0754
 5569TIP3   OH238121   4.245   0.905  15.112 -0.0705  0.5486  0.6801
 5569TIP3    H138122   4.185   0.973  15.084 -0.0595  0.0463 -0.6182
 5569TIP3    H238123   4.189   0.840  15.156 -0.6128 -0.1989 -1.0250
 5570TIP3   OH238124   6.005   4.581  12.281  0.0024 -0.0590  0.3132
 5570TIP3    H138125   6.097   4.563  12.263  0.5331  1.9888  0.6183
 5570TIP3    H238126   5.975   4.630  12.205 -0.3887  0.5545  0.8438
 5571TIP3   OH238127   3.094   3.333  15.283 -0.1283  0.4100  0.9061
 5571TIP3    H138128   3.106   3.242  15.312  2.5231 -0.1100 -1.3583
 5571TIP3    H238129   3.017   3.330  15.226 -0.2955 -0.3336  1.1568
 5572TIP3   OH238130   4.853   0.049  13.568 -0.1994  0.1362 -0.1397
 5572TIP3    H138131   4.782  -0.006  13.535 -0.7595  1.5233 -1.3371
 5572TIP3    H238132   4.839   0.053  13.663 -0.6646 -1.0223 -0.1455
 5573TIP3   OH238133   0.010   6.729   4.151  0.5394 -0.4292 -0.1785
 5573TIP3    H138134   0.030   6.726   4.058  1.3588  1.4743 -0.1242
 5573TIP3    H238135   0.074   6.791   4.187 -1.6580  1.2740  1.0887
 5574TIP3   OH238136   3.259   6.371   2.170  0.5555  0.1870 -0.0197
 5574TIP3    H138137   3.297   6.283   2.168  0.8842  0.3293 -0.0965
 5574TIP3    H238138   3.188   6.368   2.106 -1.5409 -0.9669  2.1880
 5575TIP3   OH238139   3.517   2.832   2.241 -0.0092  0.2222 -0.2447
 5575TIP3    H138140   3.603   2.870   2.220  2.3002 -3.9429  0.6267
 5575TIP3    H238141   3.502   2.855   2.332 -0.5020  1.9279 -0.7089
 5576TIP3   OH238142   5.497   5.081   1.569  0.9906  0.1811  0.8135
 5576TIP3    H138143   5.456   5.101   1.485  3.6797 -2.4213 -1.2905
 5576TIP3    H238144   5.471   4.991   1.588  2.7920 -0.2902  1.2121
 5577TIP3   OH238145   1.310   1.797   1.737  0.3852  0.7014  0.1968
 5577TIP3    H138146   1.236   1.817   1.794 -0.2347  1.7388 -0.9333
 5577TIP3    H238147   1.350   1.882   1.718  0.8322  0.3372 -0.5702
 5578TIP3   OH238148   6.645   4.088  15.789 -0.3060 -0.3655  0.2895
 5578TIP3    H138149   6.736   4.060  15.791 -0.5031 -0.9932  1.8094
 5578TIP3    H238150   6.607   4.040  15.716  1.0524  1.6603 -1.9176
 5579TIP3   OH238151   1.488   2.694  16.584 -0.7286 -0.3560 -0.3950
 5579TIP3    H138152   1.564   2.637  16.596 -1.0564 -0.5762  0.7767
 5579TIP3    H238153   1.481   2.705  16.489  1.1610  0.2043 -0.5192
 5580TIP3   OH238154   4.674   5.790   5.274 -0.1076 -0.2931 -0.4155
 5580TIP3    H138155   4.683   5.883   5.252 -1.0174 -0.2675 -0.7184
 5580TIP3    H238156   4.749   5.748   5.233  1.3357  0.5334  1.2363
 5581TIP3   OH238157   1.120   4.361  12.379  0.3143 -0.1418 -0.0731
 5581TIP3    H138158   1.104   4.385  12.288  0.2264 -0.5285 -0.1598
 5581TIP3    H238159   1.033   4.343  12.414  0.2770  0.6693  0.2787
 5582TIP3   OH238160   1.488   5.620  17.003  0.2673  0.0456 -0.0792
 5582TIP3    H138161   1.538   5.599  16.924  2.0328 -0.2132  1.0681
 5582TIP3    H238162   1.503   5.713  17.017 -2.8504  0.9872 -1.8885
 5583TIP3   OH238163   2.446   1.023  13.152  0.0225  0.0891  0.4497
 5583TIP3    H138164   2.397   0.944  13.174 -0.4480 -0.0459 -0.9971
 5583TIP3    H238165   2.537   0.995  13.145 -0.3269 -0.6954 -1.5857
 5584TIP3   OH238166   1.351   1.607  12.142 -0.2348  0.6607  0.1620
 5584TIP3    H138167   1.407   1.561  12.079 -0.4367 -0.4952  0.8146
 5584TIP3    H238168   1.279   1.640  12.089 -1.1147 -1.4529 -0.0533
 5585TIP3   OH238169   0.524   2.442  13.841 -0.2755 -0.0318 -0.3082
 5585TIP3    H138170   0.572   2.471  13.918 -0.4686  0.5903 -0.4126
 5585TIP3    H238171   0.580   2.465  13.767  0.4984 -1.7982 -0.3118
 5586TIP3   OH238172   5.331   1.181  11.246  0.1901  0.1986 -0.1724
 5586TIP3    H138173   5.381   1.159  11.168  0.7576 -1.1291  0.5333
 5586TIP3    H238174   5.248   1.135  11.236  1.0644 -1.7468  0.9256
 5587TIP3   OH238175   0.128   4.135   5.926 -0.4550  0.3829 -1.0198
 5587TIP3    H138176   0.096   4.204   5.985  0.1192  0.3104 -0.6222
 5587TIP3    H238177   0.125   4.175   5.839 -1.1745  0.5376 -0.9319
 5588TIP3   OH238178   5.501   6.346   0.534  0.9060  0.0085  0.5257
 5588TIP3    H138179   5.541   6.337   0.447 -0.5175  1.9157 -0.4006
 5588TIP3    H238180   5.407   6.345   0.517  0.5622 -1.2011  2.2761
 5589TIP3   OH238181   6.219   4.767  11.511  0.0716  0.5133 -0.4501
 5589TIP3    H138182   6.251   4.828  11.445  0.1349  0.5736 -0.3636
 5589TIP3    H238183   6.139   4.730  11.473  0.5005  0.0020 -0.8676
 5590TIP3   OH238184   4.904   3.344  13.982  0.0097  0.2419 -0.5818
 5590TIP3    H138185   4.914   3.284  14.055  2.1829 -0.9912 -1.7727
 5590TIP3    H238186   4.869   3.290  13.911  0.4893  0.7602 -1.2251
 5591TIP3   OH238187   4.663   0.211  12.406  0.2915 -0.5162 -0.2122
 5591TIP3    H138188   4.741   0.261  12.430  0.6650 -0.3693 -1.6930
 5591TIP3    H238189   4.590   0.272  12.420  0.4291 -0.5756  0.9297
 5592TIP3   OH238190   0.109   5.763  13.267 -0.2083  0.3282  0.4728
 5592TIP3    H138191   0.115   5.687  13.209 -0.5961  0.6543 -0.0058
 5592TIP3    H238192   0.199   5.781  13.293 -0.1236 -0.3627  0.6840
 5593TIP3   OH238193   3.604   2.750  13.037  0.5015 -0.1766 -0.3535
 5593TIP3    H138194   3.536   2.705  12.986  0.2086 -2.6713  1.9854
 5593TIP3    H238195   3.555   2.805  13.099  0.4480 -2.2827  1.6065
 5594TIP3   OH238196   3.374   0.991   0.290 -0.4912 -1.1212  0.0115
 5594TIP3    H138197   3.298   0.949   0.252 -0.3497 -1.5616  0.2066
 5594TIP3    H238198   3.342   1.076   0.322 -0.2979 -0.0718 -2.3855
 5595TIP3   OH238199   2.486   0.087   6.733  0.0387  0.3885  0.2839
 5595TIP3    H138200   2.398   0.123   6.745 -0.0451  0.0613  0.7136
 5595TIP3    H238201   2.524   0.138   6.662 -0.2270  1.0347  0.5946
 5596TIP3   OH238202   1.248   2.968  10.608 -0.3009  0.0327 -0.5606
 5596TIP3    H138203   1.278   2.896  10.664 -1.8405 -1.0085 -0.9984
 5596TIP3    H238204   1.178   3.010  10.660 -0.0433  0.6297 -0.6932
 5597TIP3   OH238205   0.500   4.099   3.750  0.4788 -0.0673  0.4023
 5597TIP3    H138206   0.527   4.088   3.841  0.7559 -3.1851  0.0654
 5597TIP3    H238207   0.581   4.122   3.704  1.1764 -2.2332  0.4525
 5598TIP3   OH238208   0.176   1.556  15.278  0.5603 -0.3811  0.0198
 5598TIP3    H138209   0.201   1.464  15.269  2.1074 -0.1599  1.4967
 5598TIP3    H238210   0.197   1.578  15.368  2.4321  2.0227 -0.8773
 5599TIP3   OH238211   0.820   0.443  16.192  0.3189 -0.0354 -0.1774
 5599TIP3    H138212   0.812   0.434  16.287 -0.7803  0.2016 -0.2390
 5599TIP3    H238213   0.789   0.360  16.157  1.9676 -0.6351 -0.3040
 5600TIP3   OH238214   0.984   3.636  13.696  0.2862 -0.0801  0.5524
 5600TIP3    H138215   1.032   3.683  13.628  1.2619  0.4650  1.5740
 5600TIP3    H238216   0.941   3.706  13.746 -0.2514 -0.4550  0.6130
 5601TIP3   OH238217   4.640   1.111   1.257 -0.1182  0.0788  0.7459
 5601TIP3    H138218   4.580   1.179   1.227  0.0348  0.2703  0.8732
 5601TIP3    H238219   4.592   1.065   1.326  0.3450  1.0383  1.7339
 5602TIP3   OH238220   0.549   4.732   3.640 -0.0823  0.2574 -0.0988
 5602TIP3    H138221   0.583   4.678   3.568  1.3767  1.6241 -0.4823
 5602TIP3    H238222   0.484   4.789   3.598  0.7183  1.0060 -0.3502
 5603TIP3   OH238223   3.085   2.459   2.801  0.4880  0.3808 -0.0114
 5603TIP3    H138224   3.133   2.380   2.776  0.4400 -0.3686  2.1032
 5603TIP3    H238225   3.152   2.526   2.811  0.7655  0.0927  0.0743
 5604TIP3   OH238226   2.523   2.105  14.380 -0.2870  0.4013  0.4763
 5604TIP3    H138227   2.548   2.127  14.290  1.0970  2.7086  1.3562
 5604TIP3    H238228   2.431   2.132  14.386 -0.7160 -0.7651 -0.5166
 5605TIP3   OH238229   4.239   4.016  12.808  0.2854 -0.0772  0.0966
 5605TIP3    H138230   4.249   3.923  12.830 -2.0556 -0.4680 -0.1996
 5605TIP3    H238231   4.235   4.060  12.893  2.9261  0.0250  0.2474
 5606TIP3   OH238232   6.726   4.556   1.535  0.3980 -0.0160 -0.4181
 5606TIP3    H138233   6.756   4.470   1.564  2.9857  1.3117  1.2437
 5606TIP3    H238234   6.794   4.586   1.474 -1.0944  0.4150 -1.9531
 5607TIP3   OH238235   1.013   1.637  15.505  0.2547  0.3575 -0.9416
 5607TIP3    H138236   0.922   1.623  15.530  0.2539  1.0340 -0.5462
 5607TIP3    H238237   1.016   1.615  15.411 -0.0397 -0.8510 -0.6923
 5608TIP3   OH238238   2.716   6.570  14.511  0.2455 -0.3144  0.5827
 5608TIP3    H138239   2.775   6.643  14.490  1.5986 -0.9425  1.9066
 5608TIP3    H238240   2.775   6.496  14.524 -1.0895 -1.6098 -0.5258
 5609TIP3   OH238241   6.270   3.742  17.172  1.0489  0.0305 -0.3626
 5609TIP3    H138242   6.188   3.772  17.210  0.4385 -1.7287 -0.1966
 5609TIP3    H238243   6.317   3.700  17.245  1.7997  0.4099 -0.6105
 5610TIP3   OH238244   3.213   6.427   4.111 -0.0120 -0.1061  0.2725
 5610TIP3    H138245   3.148   6.430   4.181  0.1716 -0.0258  0.4395
 5610TIP3    H238246   3.280   6.490   4.137 -2.0144  3.3624 -2.0688
 5611TIP3   OH238247   2.199   6.722   4.015 -0.1200  0.4197 -0.2540
 5611TIP3    H138248   2.207   6.687   4.104 -0.4132  0.7368 -0.1025
 5611TIP3    H238249   2.210   6.646   3.959 -0.6981  0.0915  0.0740
 5612TIP3   OH238250   5.918   1.200  16.849 -0.1326  0.3475  0.0184
 5612TIP3    H138251   5.838   1.232  16.807  0.3857  0.5021 -0.8740
 5612TIP3    H238252   5.961   1.279  16.883 -0.4403  0.2460  0.6529
 5613TIP3   OH238253   6.178   1.078  12.994 -0.2106 -0.8653  0.0218
 5613TIP3    H138254   6.199   0.986  13.014  0.4458 -0.2987  2.2544
 5613TIP3    H238255   6.097   1.094  13.043  0.2218  0.0025  0.4622
 5614TIP3   OH238256   4.242   6.360   2.819 -0.4816 -0.0972 -0.0002
 5614TIP3    H138257   4.220   6.402   2.902 -0.7198 -0.7349  0.2664
 5614TIP3    H238258   4.159   6.321   2.790  0.2196 -2.5947  1.0390
 5615TIP3   OH238259   6.442   5.982   2.999  0.0038  0.6770 -0.4365
 5615TIP3    H138260   6.465   5.973   2.907  1.2271 -2.4311  0.0455
 5615TIP3    H238261   6.347   5.972   3.001  0.0751 -0.3598 -1.2969
 5616TIP3   OH238262   4.072   1.591   5.305  0.0636 -0.1501 -0.2197
 5616TIP3    H138263   3.991   1.557   5.266 -0.3793 -1.0000  1.3721
 5616TIP3    H238264   4.046   1.621   5.392  1.0083  1.8404 -0.5892
 5617TIP3   OH238265   1.640   3.769   5.489  0.7918 -0.4838 -0.9424
 5617TIP3    H138266   1.679   3.689   5.454  1.5821  0.0888 -1.3992
 5617TIP3    H238267   1.636   3.829   5.414  0.3778 -0.0281 -0.5666
 5618TIP3   OH238268   1.380   3.980  13.159 -0.3144  0.0225 -0.6675
 5618TIP3    H138269   1.422   4.062  13.132  0.9489 -0.1153  0.7528
 5618TIP3    H238270   1.397   3.920  13.086  3.7775 -0.6009  0.5318
 5619TIP3   OH238271   4.325   4.112   1.716 -0.2051 -0.1050 -0.1378
 5619TIP3    H138272   4.416   4.133   1.736 -0.6759  0.4482  1.6368
 5619TIP3    H238273   4.330   4.040   1.653  1.4406  0.4034 -0.6403
 5620TIP3   OH238274   1.285   4.484   5.908  0.6699  0.0345 -0.5328
 5620TIP3    H138275   1.328   4.566   5.885  0.0070  0.1508 -1.4117
 5620TIP3    H238276   1.352   4.434   5.956  0.8512  1.3742  0.6793
 5621TIP3   OH238277   5.478   5.324  14.188 -0.2661 -0.0312 -0.3769
 5621TIP3    H138278   5.473   5.381  14.265 -0.4564  0.9140 -1.0639
 5621TIP3    H238279   5.393   5.282  14.183 -0.8858  1.2465 -1.0496
 5622TIP3   OH238280   2.534   4.464   5.734  0.2032 -0.1279  0.0467
 5622TIP3    H138281   2.537   4.522   5.810 -1.4186 -0.1820  0.1866
 5622TIP3    H238282   2.555   4.520   5.660  0.9592  0.1095  0.4300
 5623TIP3   OH238283   2.878   0.229   0.458  0.2370  0.8643  0.6727
 5623TIP3    H138284   2.903   0.257   0.546 -0.1977 -1.4921  1.6164
 5623TIP3    H238285   2.933   0.152   0.441 -0.4680  0.6286 -0.6631
 5624TIP3   OH238286   5.590   2.333   4.658  0.2006 -0.0359  0.5878
 5624TIP3    H138287   5.665   2.384   4.689  0.7378 -0.8713  0.6699
 5624TIP3    H238288   5.542   2.311   4.738 -1.0622  1.8684  0.4328
 5625TIP3   OH238289   0.474   4.376  15.297 -0.5877  0.0408  0.3146
 5625TIP3    H138290   0.458   4.428  15.376  0.2922  3.1484 -1.3597
 5625TIP3    H238291   0.569   4.373  15.289 -0.6638 -0.1519 -0.6346
 5626TIP3   OH238292   3.772   1.230  11.305 -0.3384  0.7285  0.7400
 5626TIP3    H138293   3.751   1.204  11.215 -2.1128  0.6685  1.1316
 5626TIP3    H238294   3.694   1.276  11.336  0.0713  0.3899  2.3898
 5627TIP3   OH238295   5.209   3.041   0.896 -0.4709  0.2902  0.2673
 5627TIP3    H138296   5.281   2.978   0.898 -0.1652  0.6252 -0.0448
 5627TIP3    H238297   5.231   3.100   0.824 -1.6007 -0.2375 -0.5312
 5628TIP3   OH238298   2.270   1.086  12.277 -0.8705  0.0195  0.4790
 5628TIP3    H138299   2.335   1.154  12.256 -0.1147 -0.8115  0.0358
 5628TIP3    H238300   2.248   1.102  12.368  1.0422 -0.5097  1.0923
 5629TIP3   OH238301   0.808   0.987  12.287 -0.1243  0.4639 -0.2550
 5629TIP3    H138302   0.860   1.045  12.343  1.0267 -0.1480 -0.6469
 5629TIP3    H238303   0.739   1.043  12.252  0.9332  1.6052 -0.5971
 5630TIP3   OH238304   5.414   3.670  10.720 -0.2070 -0.7508  0.1360
 5630TIP3    H138305   5.413   3.743  10.781 -0.0337 -2.4790  2.3287
 5630TIP3    H238306   5.447   3.707  10.638 -3.7964  2.4765 -0.1318
 5631TIP3   OH238307   4.401   6.455   0.115 -0.1300  1.0694  0.5572
 5631TIP3    H138308   4.494   6.442   0.092  0.2047 -0.0837  2.3639
 5631TIP3    H238309   4.359   6.476   0.032  1.4157 -0.3859 -0.6735
 5632TIP3   OH238310   4.525   2.623   0.810 -0.5578 -0.0756  0.2460
 5632TIP3    H138311   4.498   2.539   0.847  0.1097  0.1277  1.2242
 5632TIP3    H238312   4.607   2.604   0.764 -0.6688 -0.0569  0.0393
 5633TIP3   OH238313   5.552   1.980   1.616  0.3017 -0.0819 -0.0431
 5633TIP3    H138314   5.536   2.072   1.638  2.0065  0.1752  0.2916
 5633TIP3    H238315   5.591   1.943   1.695 -1.3413 -1.4141  0.2065
 5634TIP3   OH238316   1.635   1.540   3.226  0.1510 -0.1958  0.1253
 5634TIP3    H138317   1.673   1.565   3.310 -0.9182 -1.5580  1.0656
 5634TIP3    H238318   1.690   1.468   3.195  1.4024  1.1999 -1.1000
 5635TIP3   OH238319   5.646   6.259  16.425  0.4529 -0.1538  0.4947
 5635TIP3    H138320   5.736   6.279  16.451  0.2273  0.4917  0.8054
 5635TIP3    H238321   5.628   6.321  16.354  0.5196 -0.8209 -0.1166
 5636TIP3   OH238322   4.218   3.121   4.812 -0.1059 -0.1430 -0.0939
 5636TIP3    H138323   4.203   3.045   4.868  0.6951  0.1448  0.5336
 5636TIP3    H238324   4.310   3.114   4.786  0.2790  1.1614  0.8456
 5637TIP3   OH238325   6.762   5.622   5.408  0.6533  0.0616 -0.0093
 5637TIP3    H138326   6.762   5.532   5.442 -1.7653  0.4814  1.3463
 5637TIP3    H238327   6.779   5.676   5.485 -3.3305  0.9535  0.4886
 5638TIP3   OH238328   2.541   1.370  12.864  0.1581  0.0542 -0.2237
 5638TIP3    H138329   2.549   1.292  12.810  0.4144  0.7421 -1.2168
 5638TIP3    H238330   2.630   1.406  12.868 -0.3873  1.8048 -2.1462
 5639TIP3   OH238331   3.404   6.450  12.245  0.6951  0.1776 -0.1849
 5639TIP3    H138332   3.425   6.494  12.163  1.6928 -0.0423 -0.0678
 5639TIP3    H238333   3.330   6.499  12.280 -1.8072 -1.5583 -2.6514
 5640TIP3   OH238334   6.689   2.486  13.984  0.3339 -0.0875  0.3293
 5640TIP3    H138335   6.650   2.492  14.071  1.0115 -0.1141  0.6447
 5640TIP3    H238336   6.628   2.432  13.934  0.0588 -0.2812  0.8629
 5641TIP3   OH238337   2.848   1.858   5.538  0.5120  0.3024 -0.8720
 5641TIP3    H138338   2.754   1.850   5.522 -0.0103  0.0489  1.7773
 5641TIP3    H238339   2.866   1.951   5.526 -0.4941  0.6750  0.3087
 5642TIP3   OH238340   4.148   1.415   3.641  0.3641 -0.2054  0.0567
 5642TIP3    H138341   4.237   1.448   3.658  1.0372 -1.2849 -1.1768
 5642TIP3    H238342   4.143   1.408   3.546 -1.6352  1.3226 -0.0089
 5643TIP3   OH238343   5.394   5.011   4.686 -0.5041  0.0641  0.0849
 5643TIP3    H138344   5.317   5.016   4.742 -0.2540 -0.9815  0.5565
 5643TIP3    H238345   5.360   4.991   4.599 -0.8463  0.9706  0.0010
 5644TIP3   OH238346   0.736   0.352   0.826 -0.0117  0.6166 -0.1072
 5644TIP3    H138347   0.667   0.374   0.887 -1.1570 -1.5413 -0.5182
 5644TIP3    H238348   0.799   0.424   0.833 -1.5747  1.9175  1.3328
 5645TIP3   OH238349   5.383   1.009  12.106  0.1554  0.5529 -0.2253
 5645TIP3    H138350   5.456   1.055  12.149 -0.0128  0.8388 -0.2431
 5645TIP3    H238351   5.310   1.071  12.109  0.6213  1.3382 -2.5249
 5646TIP3   OH238352   0.695   0.430   1.858  0.4327  0.5438 -0.3556
 5646TIP3    H138353   0.700   0.355   1.799 -1.0763  0.7278 -0.7591
 5646TIP3    H238354   0.645   0.399   1.933  0.6421  0.8776 -0.0722
 5647TIP3   OH238355   2.851   2.370  15.879  0.5511  0.2479  0.0464
 5647TIP3    H138356   2.825   2.408  15.796  2.0825  0.8416 -0.1714
 5647TIP3    H238357   2.940   2.401  15.895  1.2374 -1.8412  0.6895
 5648TIP3   OH238358   1.794   5.033   6.802  0.7338 -0.4103 -0.1933
 5648TIP3    H138359   1.873   5.013   6.851  1.6248  3.2689  0.1054
 5648TIP3    H238360   1.814   5.008   6.712  2.2658  0.4585 -0.1143
 5649TIP3   OH238361   3.153   2.174   3.218 -0.1629  0.2571  0.2826
 5649TIP3    H138362   3.169   2.248   3.277 -0.3740 -0.5286  1.3578
 5649TIP3    H238363   3.197   2.100   3.260  0.6076 -0.1087 -1.1154
 5650TIP3   OH238364   5.727   0.392  15.494 -0.1953 -0.1075  0.3057
 5650TIP3    H138365   5.695   0.412  15.582 -0.4641 -0.6552  0.3320
 5650TIP3    H238366   5.788   0.319  15.507  0.0083  0.0195  0.0754
 5651TIP3   OH238367   5.102   6.276   1.136  0.1652 -0.0691 -0.0843
 5651TIP3    H138368   5.150   6.206   1.180  0.2315 -0.9767 -1.5204
 5651TIP3    H238369   5.073   6.236   1.054 -1.6464  0.9601  0.0183
 5652TIP3   OH238370   4.231   6.661  16.186 -0.2206 -0.3756 -0.1027
 5652TIP3    H138371   4.275   6.590  16.138  0.3024 -1.7666  2.2735
 5652TIP3    H238372   4.138   6.645  16.171 -0.0700 -0.7288 -0.7105
 5653TIP3   OH238373   1.047   3.723  13.449 -0.4350  0.0471  0.2751
 5653TIP3    H138374   1.077   3.813  13.435 -1.1590  0.1439 -0.8374
 5653TIP3    H238375   1.031   3.689  13.360 -2.3087 -0.4003  0.7234
 5654TIP3   OH238376   3.987   5.400  11.696 -0.0151  0.0303 -0.3599
 5654TIP3    H138377   4.052   5.434  11.759  0.9307 -1.3426 -0.5573
 5654TIP3    H238378   3.903   5.413  11.740  0.6251 -1.0474  1.3146
 5655TIP3   OH238379   1.852   6.146   0.424 -0.0979  0.3823 -0.0878
 5655TIP3    H138380   1.946   6.160   0.435  0.1813 -0.3388 -1.3352
 5655TIP3    H238381   1.820   6.226   0.383 -0.1443  0.8442  0.8185
 5656TIP3   OH238382   5.399   5.910   3.595  0.5258  0.3055 -0.3466
 5656TIP3    H138383   5.331   5.935   3.533 -0.9249 -1.4962  0.4465
 5656TIP3    H238384   5.428   5.824   3.566  0.3946 -0.2096  0.9975
 5657TIP3   OH238385   5.054   4.732  14.398  0.5928 -0.1656 -0.4266
 5657TIP3    H138386   5.038   4.678  14.321  0.5614 -0.2177 -0.3837
 5657TIP3    H238387   5.051   4.822  14.365  0.0231 -0.1646 -0.3922
 5658TIP3   OH238388   0.377   6.216  15.435 -0.0348  0.4674  0.4008
 5658TIP3    H138389   0.466   6.232  15.466  0.9611  1.2489 -2.5156
 5658TIP3    H238390   0.337   6.302  15.429 -0.3928  0.2816  0.0849
 5659TIP3   OH238391   0.836   4.771   1.430 -0.3412 -0.4429  0.3864
 5659TIP3    H138392   0.857   4.743   1.519 -0.6810 -0.3759  0.4900
 5659TIP3    H238393   0.848   4.693   1.376  3.4811  0.3060 -0.1392
 5660TIP3   OH238394   4.893   3.864   0.428 -0.1010 -0.4722 -0.8695
 5660TIP3    H138395   4.987   3.849   0.416 -0.2029 -0.2217 -2.1004
 5660TIP3    H238396   4.851   3.811   0.360 -0.7247  1.1667 -1.8337
 5661TIP3   OH238397   3.303   3.128   4.793  0.3645  0.5013 -0.3962
 5661TIP3    H138398   3.366   3.067   4.834 -2.1606 -1.4727  0.8423
 5661TIP3    H238399   3.279   3.188   4.863 -0.9686 -0.3622 -0.0786
 5662TIP3   OH238400   1.304   1.022   1.181 -0.6838  0.4575 -0.0974
 5662TIP3    H138401   1.365   1.046   1.111 -1.4197  0.2206 -0.8254
 5662TIP3    H238402   1.361   0.990   1.252 -0.0524 -2.0922 -1.6430
 5663TIP3   OH238403   4.166   2.299  12.890  0.3493  0.1678 -0.1196
 5663TIP3    H138404   4.145   2.306  12.797  1.1416 -1.9847 -0.5165
 5663TIP3    H238405   4.210   2.214  12.898 -2.6757 -1.3461  2.7402
 5664TIP3   OH238406   1.150   4.631  15.887 -0.7408 -0.5487 -0.9361
 5664TIP3    H138407   1.159   4.557  15.827 -0.0324 -2.2226  1.1056
 5664TIP3    H238408   1.141   4.591  15.973 -4.2465  1.6757 -0.0681
 5665TIP3   OH238409   4.278   3.659  14.123  0.1832 -0.0268  0.0171
 5665TIP3    H138410   4.284   3.700  14.210 -1.0910  0.7369 -0.2232
 5665TIP3    H238411   4.364   3.618  14.109 -0.2664 -2.2122  2.6405
 5666TIP3   OH238412   1.961   5.315  16.040 -0.6574 -0.0738 -0.4771
 5666TIP3    H138413   1.950   5.409  16.049 -1.0521 -0.2556  1.2323
 5666TIP3    H238414   1.889   5.288  15.982 -1.5865  0.4552  0.4041
 5667TIP3   OH238415   2.686   0.726  12.580  0.1540  0.3036  0.8023
 5667TIP3    H138416   2.648   0.639  12.585  0.2102  0.3027  5.3182
 5667TIP3    H238417   2.781   0.711  12.587  0.1685  0.7254  1.5334
 5668TIP3   OH238418   0.269   6.776   0.846  0.4414 -0.9861  0.0440
 5668TIP3    H138419   0.284   6.870   0.832  0.1446 -1.0876 -0.9927
 5668TIP3    H238420   0.185   6.772   0.892  0.0516 -0.7787 -0.6414
 5669TIP3   OH238421   4.622   2.956   1.388  0.8200 -0.6607  0.5449
 5669TIP3    H138422   4.597   2.896   1.318  0.2755 -0.4546  0.5567
 5669TIP3    H238423   4.695   2.913   1.432  0.9234 -0.9624  0.0822
 5670TIP3   OH238424   5.939   2.824  11.973  0.1096  0.3334  0.3217
 5670TIP3    H138425   5.920   2.833  12.067  0.6388 -0.0012  0.4691
 5670TIP3    H238426   6.032   2.801  11.970 -0.0283 -0.1698 -0.2624
 5671TIP3   OH238427   4.144   0.977   3.391 -0.5627 -0.3066 -0.1357
 5671TIP3    H138428   4.130   1.033   3.468  1.8668 -0.1491  0.2625
 5671TIP3    H238429   4.121   1.033   3.317  0.7911  0.9010  0.3099
 5672TIP3   OH238430   3.969   3.337   6.476  0.1019 -0.4230 -0.8476
 5672TIP3    H138431   4.018   3.384   6.409 -0.2348 -1.7634 -2.0835
 5672TIP3    H238432   4.027   3.266   6.503 -0.7762 -1.4822 -1.6715
 5673TIP3   OH238433   2.044   3.844  14.440 -0.4675 -0.0032  0.0535
 5673TIP3    H138434   2.067   3.752  14.428 -1.1219 -0.2374  0.6186
 5673TIP3    H238435   1.949   3.846  14.443 -0.4533  0.6626  0.3192
 5674TIP3   OH238436   0.003   2.929   3.803 -0.0253  0.0859  0.1933
 5674TIP3    H138437  -0.001   2.836   3.824  1.5295  0.4017  2.2622
 5674TIP3    H238438   0.086   2.940   3.758  0.1700  0.5955  0.6767
 5675TIP3   OH238439   5.873   6.572  13.002 -0.1560 -0.3946 -0.3124
 5675TIP3    H138440   5.855   6.648  13.057 -1.4343 -0.4881 -0.5813
 5675TIP3    H238441   5.967   6.579  12.982  0.1438  0.1326  1.1130
 5676TIP3   OH238442   6.392   5.862  15.827 -0.5505  0.2822  0.7399
 5676TIP3    H138443   6.382   5.802  15.902 -1.0821 -2.6996 -1.5208
 5676TIP3    H238444   6.445   5.813  15.764  0.5958  3.0098 -0.5642
 5677TIP3   OH238445   2.848   5.808  11.097  0.0219  0.3453  0.3130
 5677TIP3    H138446   2.763   5.767  11.083 -0.2381 -0.2257  2.9124
 5677TIP3    H238447   2.909   5.735  11.106  0.3778  0.6723  0.5873
 5678TIP3   OH238448   2.007   1.423   3.762  0.1555  0.3279  0.0920
 5678TIP3    H138449   1.953   1.495   3.794 -1.1616 -0.4802 -0.2317
 5678TIP3    H238450   2.015   1.438   3.668 -0.1639  0.0333  0.0158
 5679TIP3   OH238451   2.608   2.547  13.189  0.5717 -0.2436  0.0034
 5679TIP3    H138452   2.671   2.475  13.196  1.4634  0.2683 -1.8967
 5679TIP3    H238453   2.525   2.505  13.170  0.4283 -0.8973  1.8844
 5680TIP3   OH238454   6.290   5.678  16.864  0.5404  0.1226  0.2509
 5680TIP3    H138455   6.374   5.677  16.910  0.1061 -4.2083  1.4112
 5680TIP3    H238456   6.291   5.598  16.811 -2.7574 -0.0020  0.1998
 5681TIP3   OH238457   5.711   4.895   1.476 -0.1019  0.1184 -0.4242
 5681TIP3    H138458   5.627   4.937   1.495 -1.8128 -3.0349 -0.3306
 5681TIP3    H238459   5.739   4.859   1.560  0.8811  0.3422 -0.6484
 5682TIP3   OH238460   6.366   3.903   0.201 -0.7004 -0.1295 -0.1441
 5682TIP3    H138461   6.374   3.910   0.296  0.7462  0.4480 -0.2870
 5682TIP3    H238462   6.316   3.823   0.187 -0.4034 -0.5487  1.0926
 5683TIP3   OH238463   3.763   6.715   1.492  0.2236 -0.1770  0.1969
 5683TIP3    H138464   3.844   6.694   1.538 -0.2284  2.0086  2.2319
 5683TIP3    H238465   3.732   6.796   1.534 -0.8135  1.5030 -3.3669
 5684TIP3   OH238466   5.339   2.324   3.948  0.7219  0.5408  0.0072
 5684TIP3    H138467   5.346   2.250   3.889 -0.2728  0.3464  0.1219
 5684TIP3    H238468   5.359   2.289   4.034 -2.4759 -0.3139  0.5464
 5685TIP3   OH238469   1.109   5.167   6.329 -0.0944 -0.2579 -0.1156
 5685TIP3    H138470   1.074   5.112   6.399 -0.0362  0.9133  0.8681
 5685TIP3    H238471   1.062   5.250   6.338 -0.9804 -0.4543 -2.2598
 5686TIP3   OH238472   5.007   6.250  11.255  0.5254 -0.4205 -0.1135
 5686TIP3    H138473   5.090   6.206  11.235  0.0960 -0.8007 -1.0788
 5686TIP3    H238474   5.029   6.310  11.327  1.0965 -2.3238  1.3966
 5687TIP3   OH238475   2.196   5.811   4.965  0.0296 -0.4717  0.1285
 5687TIP3    H138476   2.273   5.858   4.997 -1.2631  2.5173 -0.8699
 5687TIP3    H238477   2.137   5.807   5.040  0.1043 -0.4424  0.1887
 5688TIP3   OH238478   3.185   0.384   6.505 -0.1800 -1.4633  0.8401
 5688TIP3    H138479   3.235   0.449   6.555 -0.9041 -0.2397  0.0229
 5688TIP3    H238480   3.252   0.330   6.463  0.5210  0.3847 -0.5559
 5689TIP3   OH238481   1.436   4.221   1.763  0.3921 -0.5326  0.0889
 5689TIP3    H138482   1.369   4.286   1.745  0.2313 -0.5974  0.4493
 5689TIP3    H238483   1.398   4.138   1.733  0.1790 -0.6194  0.5965
 5690TIP3   OH238484   3.613   4.701  16.751 -0.0543  0.6137 -0.0330
 5690TIP3    H138485   3.541   4.662  16.801 -1.3246  2.1528 -0.5924
 5690TIP3    H238486   3.597   4.674  16.660  0.6494  0.1591 -0.0349
 5691TIP3   OH238487   4.375   5.490   1.670 -0.7391 -0.1140 -0.0886
 5691TIP3    H138488   4.408   5.484   1.759  0.5050 -0.2869 -0.5394
 5691TIP3    H238489   4.403   5.408   1.628  0.4458  0.8156 -1.1849
 5692TIP3   OH238490   2.404   5.476   4.654  0.3934 -0.4994 -0.2095
 5692TIP3    H138491   2.310   5.487   4.642  0.6503  1.6842 -0.6832
 5692TIP3    H238492   2.413   5.447   4.745 -0.7432 -0.7157 -0.1543
 5693TIP3   OH238493   0.476   5.172  15.373  0.0069 -0.7677 -0.5361
 5693TIP3    H138494   0.451   5.208  15.459  1.4131 -2.0648  0.4648
 5693TIP3    H238495   0.565   5.204  15.359  0.8495 -2.8154 -0.1603
 5694TIP3   OH238496   6.405   2.049  10.527  0.6912 -0.3248  0.0533
 5694TIP3    H138497   6.451   2.132  10.514 -0.5893  0.3843 -0.0666
 5694TIP3    H238498   6.475   1.984  10.533  1.6896  0.6352 -0.7549
 5695TIP3   OH238499   4.324   0.132   3.364  0.1915  0.0869 -0.5735
 5695TIP3    H138500   4.242   0.181   3.357  0.5390  0.6553 -0.7099
 5695TIP3    H238501   4.301   0.055   3.416 -0.5322  0.0060 -1.0059
 5696TIP3   OH238502   4.081   3.818  15.779 -0.2642 -0.1520  0.5106
 5696TIP3    H138503   4.172   3.799  15.756 -0.0159  0.3821  1.0314
 5696TIP3    H238504   4.030   3.790  15.702  0.3866  0.0375  0.0058
 5697TIP3   OH238505   6.063   2.719  16.573 -0.1878  1.0523  0.3070
 5697TIP3    H138506   6.019   2.694  16.654  0.7854 -1.6865  0.0747
 5697TIP3    H238507   6.155   2.697  16.588 -0.0802 -0.1664 -1.7377
 5698TIP3   OH238508   5.958   0.363  13.774 -0.4002 -0.0234 -0.1226
 5698TIP3    H138509   5.911   0.380  13.693  0.6804  1.8751 -0.4195
 5698TIP3    H238510   6.049   0.384  13.753  0.1251 -0.8735  1.1974
 5699TIP3   OH238511   5.986   5.323  11.168  0.4310 -0.0058  0.2523
 5699TIP3    H138512   6.005   5.321  11.074  2.4391 -1.5570  0.6143
 5699TIP3    H238513   5.919   5.391  11.178 -0.2919 -0.2299 -2.3593
 5700TIP3   OH238514   5.791   0.411  13.522 -0.2610  0.0012 -0.1436
 5700TIP3    H138515   5.735   0.486  13.501  0.2389  0.7284  0.9705
 5700TIP3    H238516   5.878   0.437  13.491 -0.4276 -0.9284 -1.4479
 5701TIP3   OH238517   1.926   4.595   5.193  0.2620 -0.6664  0.1969
 5701TIP3    H138518   1.905   4.672   5.246  0.8663 -0.0374 -0.4594
 5701TIP3    H238519   2.007   4.618   5.147  0.0302 -1.3839 -0.6123
 5702TIP3   OH238520   1.067   6.233   0.938 -0.2699 -0.5794 -0.4863
 5702TIP3    H138521   1.098   6.270   0.855  0.8860  0.9793  0.5702
 5702TIP3    H238522   1.124   6.157   0.953  0.5543  0.0358 -0.4080
 5703TIP3   OH238523   5.619   3.419   4.612  0.1499 -0.1118 -0.0012
 5703TIP3    H138524   5.643   3.433   4.704 -1.2450  1.4825  0.1590
 5703TIP3    H238525   5.676   3.478   4.563  0.5552 -0.6049 -0.1320
 5704TIP3   OH238526   2.750   5.879   5.210  0.2987  0.2799 -0.2301
 5704TIP3    H138527   2.799   5.947   5.254  0.4737  1.2468 -1.8405
 5704TIP3    H238528   2.775   5.886   5.118 -2.2154  0.2914 -0.9960
 5705TIP3   OH238529   0.092   3.999  12.172  0.4157  0.0130 -0.5674
 5705TIP3    H138530   0.029   4.070  12.161  0.5050  0.0779 -0.6530
 5705TIP3    H238531   0.040   3.919  12.158  0.2198  0.0430 -0.0464
 5706TIP3   OH238532   6.177   2.784  12.289 -0.0280 -0.5990 -0.6477
 5706TIP3    H138533   6.094   2.813  12.252 -1.1998 -2.2262  0.5735
 5706TIP3    H238534   6.153   2.739  12.370  2.3149  2.2261  1.8915
 5707TIP3   OH238535   5.104   3.710  12.584  0.5919  0.0715 -0.4303
 5707TIP3    H138536   5.120   3.663  12.502  1.2481 -0.0906 -0.2176
 5707TIP3    H238537   5.019   3.677  12.613  0.9361 -0.8344 -0.4000
 5708TIP3   OH238538   2.034   5.839   4.297 -0.0193  0.4758 -0.0460
 5708TIP3    H138539   2.068   5.790   4.222 -1.0141 -0.4507  0.0719
 5708TIP3    H238540   2.029   5.774   4.367  0.3012  1.1832  0.6453
 5709TIP3   OH238541   1.786   0.495   0.267  0.5842  0.4281  0.5002
 5709TIP3    H138542   1.778   0.404   0.240  0.3832  0.6169 -0.0952
 5709TIP3    H238543   1.710   0.511   0.323 -0.3710  0.7161 -0.8251
 5710TIP3   OH238544   0.778   3.352  16.957  0.1555 -0.5663 -0.0373
 5710TIP3    H138545   0.828   3.433  16.946  0.3101 -0.7632 -0.8745
 5710TIP3    H238546   0.823   3.305  17.027  0.2402 -0.0574  0.2514
 5711TIP3   OH238547   6.387   4.879   1.633 -0.1691  0.2135  0.0802
 5711TIP3    H138548   6.353   4.915   1.715  0.2743  0.2601  0.2485
 5711TIP3    H238549   6.481   4.867   1.650  0.1129  1.1368 -0.7537
 5712TIP3   OH238550   5.877   4.999  17.070 -0.1445 -0.2864  0.0250
 5712TIP3    H138551   5.862   4.940  16.996  0.6712 -0.3850 -0.0680
 5712TIP3    H238552   5.791   5.008  17.111 -0.1939 -1.9682  0.3602
 5713TIP3   OH238553   4.071   0.937  14.580  0.2003  0.2976  0.5105
 5713TIP3    H138554   4.009   0.876  14.621  1.3520  0.0267  1.9259
 5713TIP3    H238555   4.024   1.020  14.579 -0.6913 -0.1864  0.2834
 5714TIP3   OH238556   0.209   6.307  14.046 -0.6708  0.6272  0.4531
 5714TIP3    H138557   0.268   6.381  14.029 -0.9489  0.7932  0.1935
 5714TIP3    H238558   0.164   6.293  13.962  1.2463 -1.5301 -0.3430
 5715TIP3   OH238559   3.507   4.787   1.035  0.1609  0.4723  0.5532
 5715TIP3    H138560   3.504   4.881   1.015  2.1596  0.2403 -1.2388
 5715TIP3    H238561   3.592   4.759   1.002 -0.8575 -2.1966 -0.0365
 5716TIP3   OH238562   6.640   4.243  17.166  0.2648 -0.0980 -0.8789
 5716TIP3    H138563   6.724   4.274  17.133 -0.0195  0.2165 -1.3077
 5716TIP3    H238564   6.579   4.259  17.095 -0.3301  0.4710 -0.2446
 5717TIP3   OH238565   5.524   3.769   0.887 -0.0827  0.0119 -0.1233
 5717TIP3    H138566   5.562   3.778   0.799  0.6004 -1.0614  0.0403
 5717TIP3    H238567   5.430   3.762   0.872  0.0797 -0.8513 -0.8341
 5718TIP3   OH238568   0.915   4.944   5.123  0.1775  0.1782 -0.5050
 5718TIP3    H138569   0.850   4.986   5.066 -0.9663 -1.7155 -0.6558
 5718TIP3    H238570   0.867   4.874   5.167  0.6516  2.2363  3.8074
 5719TIP3   OH238571   5.251   2.879   3.385  0.1406 -0.3073  0.0951
 5719TIP3    H138572   5.263   2.798   3.434 -2.6218 -1.7754 -1.4123
 5719TIP3    H238573   5.267   2.854   3.294 -1.4504  0.6275 -0.4786
 5720TIP3   OH238574   2.155   5.481   1.801  0.1919  0.2359 -0.6694
 5720TIP3    H138575   2.077   5.522   1.837  0.3126 -0.2611  0.1960
 5720TIP3    H238576   2.199   5.551   1.752 -0.6548  0.5832 -0.9399
 5721TIP3   OH238577   0.454   5.291  12.281  0.0446  0.4387 -0.0030
 5721TIP3    H138578   0.361   5.311  12.293 -0.1361 -0.2779 -0.1304
 5721TIP3    H238579   0.482   5.346  12.208 -0.4802  0.1031 -0.4708
 5722TIP3   OH238580   5.476   0.230   1.443  0.5499  0.0066 -0.1846
 5722TIP3    H138581   5.476   0.226   1.538  0.6613 -1.3493 -0.2310
 5722TIP3    H238582   5.439   0.147   1.415 -2.0936  1.4479 -1.3197
 5723TIP3   OH238583   0.341   5.846  13.622  0.1691 -0.4857  0.7173
 5723TIP3    H138584   0.317   5.767  13.671  0.5107 -0.0118  1.6767
 5723TIP3    H238585   0.308   5.830  13.534 -0.7739 -1.2220  1.1783
 5724TIP3   OH238586   2.131   3.086  15.788  0.3110  0.0266  0.4127
 5724TIP3    H138587   2.046   3.130  15.798 -0.0520 -0.8982  1.5589
 5724TIP3    H238588   2.110   3.001  15.749  0.6206 -0.4995  1.3755
 5725TIP3   OH238589   5.605   6.621  16.371  0.5374  0.4871 -0.0106
 5725TIP3    H138590   5.613   6.716  16.378 -2.3104  0.8268 -0.0614
 5725TIP3    H238591   5.512   6.604  16.385  0.9635 -2.3226  0.0201
 5726TIP3   OH238592   4.720   1.787  14.321 -0.2580  0.1019 -0.0085
 5726TIP3    H138593   4.653   1.811  14.385 -0.7966 -1.0484 -0.1236
 5726TIP3    H238594   4.707   1.694  14.307  0.5952  0.1156 -0.9499
 5727TIP3   OH238595   1.760   2.089  15.026  0.6868  0.4854 -0.1338
 5727TIP3    H138596   1.833   2.149  15.039  1.3227  0.3622 -2.5096
 5727TIP3    H238597   1.801   2.002  15.025  0.8781  0.4914 -2.8586
 5728TIP3   OH238598   6.733   1.335   4.645 -0.5037  0.0610  0.3292
 5728TIP3    H138599   6.786   1.337   4.565 -0.2600 -0.8497  0.4601
 5728TIP3    H238600   6.662   1.275   4.624 -1.7388  1.5484  0.0214
 5729TIP3   OH238601   2.675   1.751   5.048 -0.4484 -0.5233  0.2211
 5729TIP3    H138602   2.708   1.663   5.065 -0.2697 -0.3646  0.7080
 5729TIP3    H238603   2.622   1.772   5.126 -1.4804 -0.6701 -0.4203
 5730TIP3   OH238604   3.899   3.265  15.993  0.0937 -0.1350 -0.5769
 5730TIP3    H138605   3.810   3.288  16.019 -0.6638 -2.8214 -0.5415
 5730TIP3    H238606   3.889   3.217  15.911  1.4429 -0.9017 -0.3244
 5731TIP3   OH238607   6.508   0.099  16.851 -0.1721 -0.1269 -0.4126
 5731TIP3    H138608   6.462   0.046  16.786 -0.6996 -0.3948  0.1604
 5731TIP3    H238609   6.448   0.171  16.869 -0.8032 -0.9461  0.9876
 5732TIP3   OH238610   2.901   5.442  11.387  0.4862  0.2089 -0.3820
 5732TIP3    H138611   2.825   5.482  11.430 -0.1369  0.3228 -1.5579
 5732TIP3    H238612   2.943   5.514  11.340  0.8842 -0.0131 -0.3721
 5733TIP3   OH238613   2.876   2.163   5.560  0.0955 -0.1112  0.3136
 5733TIP3    H138614   2.875   2.249   5.519 -0.3091 -0.7490 -1.0606
 5733TIP3    H238615   2.793   2.158   5.608  0.9781  0.9968  2.0735
 5734TIP3   OH238616   2.649   6.602   0.344  0.1024 -0.2459 -0.0649
 5734TIP3    H138617   2.638   6.508   0.333 -1.8868 -0.0348 -0.0797
 5734TIP3    H238618   2.731   6.622   0.298  0.7691 -2.0004  0.2929
 5735TIP3   OH238619   2.964   4.667  11.793  0.0505  0.0340  0.0247
 5735TIP3    H138620   2.905   4.599  11.762  1.1272 -1.3341  0.8526
 5735TIP3    H238621   2.932   4.690  11.880 -0.4205  0.7478 -0.3260
 5736TIP3   OH238622   5.283   6.108  15.455  0.2660  0.1876 -0.2724
 5736TIP3    H138623   5.298   6.043  15.387 -2.4914 -2.8226  1.7393
 5736TIP3    H238624   5.364   6.109  15.506  0.7213 -0.9035 -0.9562
 5737TIP3   OH238625   6.359   5.200  13.352 -0.0654 -0.4138  0.2653
 5737TIP3    H138626   6.334   5.225  13.441 -0.0409 -0.9837  0.4317
 5737TIP3    H238627   6.297   5.132  13.327 -0.1960 -0.1229 -0.2307
 5738TIP3   OH238628   2.754   2.870   4.712  0.2123  0.0639  0.3169
 5738TIP3    H138629   2.669   2.914   4.719 -0.5268 -1.3204  0.4323
 5738TIP3    H238630   2.798   2.913   4.639 -0.9438  0.2457 -0.2952
 5739TIP3   OH238631   5.434   3.622   5.894 -0.3096  0.3569  0.2228
 5739TIP3    H138632   5.411   3.531   5.878  2.3793 -0.0287 -1.9954
 5739TIP3    H238633   5.515   3.619   5.944 -0.0060  1.5169 -0.1518
 5740TIP3   OH238634   3.229   2.050  15.240 -0.0128 -0.0880  0.2175
 5740TIP3    H138635   3.257   2.137  15.268 -0.6466  0.4800 -0.8762
 5740TIP3    H238636   3.134   2.055  15.237 -0.0057 -0.4328 -1.0218
 5741TIP3   OH238637   4.261   2.749   0.496  0.2996  0.7887 -0.1050
 5741TIP3    H138638   4.329   2.754   0.563  0.3644  0.0600 -0.1101
 5741TIP3    H238639   4.201   2.682   0.527 -0.0849  0.9899 -0.4044
 5742TIP3   OH238640   1.858   1.510   2.937  0.3294 -0.3297  0.3057
 5742TIP3    H138641   1.884   1.463   2.858  1.5959 -0.9590  1.0579
 5742TIP3    H238642   1.779   1.465   2.967  0.2663 -0.5552 -0.1947
 5743TIP3   OH238643   4.482   3.262   2.194  0.0557  0.0271  0.1401
 5743TIP3    H138644   4.564   3.214   2.208  0.1245 -0.0050 -0.3759
 5743TIP3    H238645   4.487   3.335   2.257  0.1508 -0.3773  0.6129
 5744TIP3   OH238646   5.075   0.404  16.766 -0.1410 -0.1629 -0.2770
 5744TIP3    H138647   5.013   0.331  16.762 -1.1437  0.5739  1.0197
 5744TIP3    H238648   5.024   0.480  16.740  0.4108  0.3439  0.0957
 5745TIP3   OH238649   5.303   6.035  12.348  0.1410 -0.4442 -0.2100
 5745TIP3    H138650   5.312   6.130  12.339  0.8184 -0.5430 -0.6872
 5745TIP3    H238651   5.349   6.015  12.430 -2.4417 -0.0487  1.4599
 5746TIP3   OH238652   6.576   2.547  16.754 -0.5269 -0.2923 -0.8554
 5746TIP3    H138653   6.542   2.490  16.823 -0.8363  0.7843 -0.0847
 5746TIP3    H238654   6.663   2.573  16.784 -1.2149  1.3200 -0.1268
 5747TIP3   OH238655   2.190   0.579  11.339 -0.7182 -0.3808 -0.3323
 5747TIP3    H138656   2.137   0.557  11.416  0.2127  1.1400  0.7968
 5747TIP3    H238657   2.152   0.661  11.307  0.7218  0.5887  0.3316
 5748TIP3   OH238658   6.519   5.998   1.347 -0.2663  0.2813  0.5012
 5748TIP3    H138659   6.586   5.954   1.398 -1.1377 -0.5778  0.9368
 5748TIP3    H238660   6.436   5.974   1.389 -0.8912  0.8634 -0.3476
 5749TIP3   OH238661   4.901   2.312  15.501  0.5539  0.2370  0.2173
 5749TIP3    H138662   4.912   2.235  15.557 -1.4621 -0.6745 -0.5488
 5749TIP3    H238663   4.848   2.372  15.552  0.3006  0.1974  0.0033
 5750TIP3   OH238664   0.994   4.249   4.286  0.2717  0.1417 -0.3662
 5750TIP3    H138665   0.971   4.165   4.246  2.4344 -0.0951 -1.2562
 5750TIP3    H238666   0.999   4.230   4.380 -0.3219 -0.4484 -0.4466
 5751TIP3   OH238667   3.641   4.751  12.058 -0.2761 -0.1582 -0.5416
 5751TIP3    H138668   3.706   4.809  12.018  0.2967 -1.1475 -1.0944
 5751TIP3    H238669   3.607   4.700  11.984 -0.0877 -1.1668  0.0586
 5752TIP3   OH238670   3.333   2.306  15.329  0.2994  0.1747 -0.5070
 5752TIP3    H138671   3.269   2.294  15.399 -0.7787  0.3640 -1.4231
 5752TIP3    H238672   3.370   2.393  15.346  0.9208 -0.2774  0.4963
 5753TIP3   OH238673   6.527   2.868  15.812  0.1396 -0.0765 -0.6255
 5753TIP3    H138674   6.521   2.827  15.725 -1.0764 -0.9616 -0.1596
 5753TIP3    H238675   6.598   2.821  15.856  0.4936  0.1043 -0.9953
 5754TIP3   OH238676   3.403   6.575  11.151 -0.3676 -0.0337 -0.0466
 5754TIP3    H138677   3.476   6.630  11.125 -0.1226  0.8286  2.2124
 5754TIP3    H238678   3.441   6.488  11.165 -0.0866  0.0339 -0.3921
 5755TIP3   OH238679   2.112   1.454   6.152 -0.1737 -0.2873  0.0193
 5755TIP3    H138680   2.070   1.452   6.066  1.4017  0.2294 -0.8007
 5755TIP3    H238681   2.191   1.401   6.141 -0.1123 -0.4604  1.2437
 5756TIP3   OH238682   4.157   5.992  16.504 -0.4664 -0.0851 -0.1743
 5756TIP3    H138683   4.146   6.034  16.419  1.0747  0.0792 -0.3247
 5756TIP3    H238684   4.126   6.057  16.567  0.7195  0.7930 -0.4795
 5757TIP3   OH238685   3.448   6.462   0.521 -0.6152  0.0169  0.2075
 5757TIP3    H138686   3.426   6.387   0.576 -1.4962 -0.5327 -0.8532
 5757TIP3    H238687   3.389   6.531   0.551 -0.4827 -0.0063  0.5289
 5758TIP3   OH238688   5.665   4.579  16.374 -0.3106  0.0814  0.0735
 5758TIP3    H138689   5.642   4.669  16.350 -2.0629  0.4520  2.7156
 5758TIP3    H238690   5.585   4.529  16.357  0.2321 -0.7374 -0.1228
 5759TIP3   OH238691   5.833   6.600   1.630 -0.0918 -0.3837  0.1547
 5759TIP3    H138692   5.901   6.667   1.621 -0.4358  0.0256  0.5233
 5759TIP3    H238693   5.753   6.650   1.648 -0.5125 -0.8535 -0.3894
 5760TIP3   OH238694   4.261   1.381  14.085 -0.1495 -0.0901 -0.3287
 5760TIP3    H138695   4.331   1.320  14.106  1.0660  1.3656 -0.0051
 5760TIP3    H238696   4.181   1.328  14.088  0.8303 -1.5937  0.1452
 5761TIP3   OH238697   2.437   3.577  12.249  0.7971 -0.0837  0.7710
 5761TIP3    H138698   2.426   3.482  12.250 -0.1336 -0.0197 -0.6235
 5761TIP3    H238699   2.361   3.610  12.298  0.5723 -0.0248  0.3834
 5762TIP3   OH238700   1.000   0.220  15.781 -0.0957  0.3713 -0.5239
 5762TIP3    H138701   1.015   0.130  15.752 -0.4269  0.0056  0.4009
 5762TIP3    H238702   1.003   0.215  15.876 -1.1113  1.1659 -0.4398
 5763TIP3   OH238703   0.797   0.002   4.211  0.4382  0.4170  0.7862
 5763TIP3    H138704   0.867  -0.052   4.249  0.3931 -1.5702 -1.6656
 5763TIP3    H238705   0.817   0.005   4.117 -1.7473  1.3852  0.2796
 5764TIP3   OH238706   2.237   6.013   2.335  0.1353  0.4882 -0.5195
 5764TIP3    H138707   2.146   6.041   2.341 -0.5202 -1.1650 -1.9119
 5764TIP3    H238708   2.280   6.055   2.409 -2.1683 -0.2333  1.3690
 5765TIP3   OH238709   0.736   2.302   3.908 -0.0076  0.5732  0.3426
 5765TIP3    H138710   0.813   2.350   3.878  0.2446  0.6635  1.1007
 5765TIP3    H238711   0.662   2.354   3.878  0.2571  1.3639  1.0010
 5766TIP3   OH238712   4.117   0.802   0.476  0.9848 -0.0829  0.8907
 5766TIP3    H138713   4.049   0.830   0.537 -0.0582 -0.3828 -0.1062
 5766TIP3    H238714   4.168   0.882   0.459 -0.5636  0.7400 -0.1496
 5767TIP3   OH238715   4.788   4.742  11.464  0.1627 -0.0045 -0.2658
 5767TIP3    H138716   4.739   4.662  11.479 -0.3169 -0.3512 -3.0166
 5767TIP3    H238717   4.727   4.812  11.487  0.1816 -0.3991  1.0504
 5768TIP3   OH238718   2.791   0.835  10.373  0.4610 -0.3094  0.5649
 5768TIP3    H138719   2.780   0.774  10.300 -1.7465 -0.2626  0.7855
 5768TIP3    H238720   2.708   0.882  10.377  1.2847  1.1160  1.8507
 5769TIP3   OH238721   0.923   1.767  16.301  0.6471 -0.2026  0.0312
 5769TIP3    H138722   0.979   1.801  16.231  0.4173 -0.2534 -0.1775
 5769TIP3    H238723   0.850   1.829  16.306  0.7219 -0.1348  0.3041
 5770TIP3   OH238724   3.653   5.558  11.519 -0.1765  0.4487  0.0619
 5770TIP3    H138725   3.687   5.469  11.530  0.3322  0.2994 -2.1503
 5770TIP3    H238726   3.719   5.614  11.560  0.5223 -0.0983 -0.2874
 5771TIP3   OH238727   0.557   5.640   0.280 -0.4815  0.3160 -0.4643
 5771TIP3    H138728   0.645   5.640   0.319 -0.9979 -2.2004  0.9559
 5771TIP3    H238729   0.498   5.632   0.355 -2.0860  3.1309 -1.2992
 5772TIP3   OH238730   5.424   2.609  12.349 -0.5590  0.5429 -0.2690
 5772TIP3    H138731   5.438   2.574  12.437  0.3777  0.7471 -0.3281
 5772TIP3    H238732   5.334   2.642  12.351 -1.0802 -0.8362  0.1304
 5773TIP3   OH238733   4.313   3.497  16.701 -0.6717 -0.0222  0.4371
 5773TIP3    H138734   4.272   3.445  16.632  1.4255 -1.8112  0.4142
 5773TIP3    H238735   4.245   3.505  16.768 -1.4224 -1.9906 -0.0170
 5774TIP3   OH238736   3.157   4.671   3.922  0.2551  0.0196 -0.7063
 5774TIP3    H138737   3.062   4.682   3.915  0.1601 -0.0317  0.3019
 5774TIP3    H238738   3.193   4.734   3.860 -0.4415 -0.1593 -1.3015
 5775TIP3   OH238739   0.368   4.902   5.425  0.4725 -0.3332  0.5129
 5775TIP3    H138740   0.362   4.830   5.363 -1.0035  0.8002 -0.7537
 5775TIP3    H238741   0.280   4.909   5.462  0.1421  1.6619 -0.4672
 5776TIP3   OH238742   1.126   6.241  11.022 -0.1646  0.0594  0.3003
 5776TIP3    H138743   1.057   6.177  11.045  0.4250 -1.3226 -1.5495
 5776TIP3    H238744   1.080   6.324  11.016 -1.6435 -0.7735 -0.5752
 5777TIP3   OH238745   2.120   2.484   0.021  0.0807 -0.4056 -0.6606
 5777TIP3    H138746   2.192   2.423   0.010  0.0161 -0.3615 -1.4028
 5777TIP3    H238747   2.063   2.467  -0.054  0.9925  1.7985 -1.9689
 5778TIP3   OH238748   1.644   5.984   0.847  0.8752 -0.2209  0.2798
 5778TIP3    H138749   1.661   5.890   0.854 -0.5843 -0.5787 -0.4839
 5778TIP3    H238750   1.690   6.023   0.921 -0.6583 -1.8660  2.2219
 5779TIP3   OH238751   5.604   6.147  10.697  0.1251 -0.0677  0.2599
 5779TIP3    H138752   5.656   6.098  10.633 -0.3313  1.6094 -1.5070
 5779TIP3    H238753   5.513   6.126  10.676 -0.0176 -0.5624  1.2945
 5780TIP3   OH238754   3.201   0.831  15.989 -0.5962 -0.4232  0.1452
 5780TIP3    H138755   3.260   0.904  15.968 -0.2979 -1.1158 -1.5420
 5780TIP3    H238756   3.132   0.871  16.042  0.2810  0.8198  0.3914
 5781TIP3   OH238757   6.598   1.274   3.827 -0.1205  0.2302  0.5233
 5781TIP3    H138758   6.557   1.342   3.880 -0.5586 -0.0870  0.5947
 5781TIP3    H238759   6.536   1.258   3.756 -0.1567 -0.2988  0.6689
 5782TIP3   OH238760   6.003   3.187  15.822 -0.2034  0.4322  0.1350
 5782TIP3    H138761   5.999   3.280  15.843 -0.5858  0.7642 -1.3024
 5782TIP3    H238762   5.934   3.174  15.757  0.8927 -0.5115 -0.8885
 5783TIP3   OH238763   4.859   2.641  13.093 -0.0212  0.2142  0.2325
 5783TIP3    H138764   4.826   2.681  13.013 -0.0035 -2.2743 -1.1165
 5783TIP3    H238765   4.819   2.554  13.095  0.8229 -0.1940  2.3730
 5784TIP3   OH238766   1.695   4.303   0.046  0.4558  0.4050 -0.3450
 5784TIP3    H138767   1.675   4.396   0.044  2.4281  0.8547 -0.4007
 5784TIP3    H238768   1.687   4.278   0.138 -0.1989  0.5837 -0.3493
 5785TIP3   OH238769   0.702   4.167  16.493  0.2062  0.0729  0.3412
 5785TIP3    H138770   0.717   4.166  16.588  1.8388 -1.2934  0.1311
 5785TIP3    H238771   0.782   4.206  16.457  0.2705 -0.8086 -0.5200
 5786TIP3   OH238772   4.908   0.008  17.020 -0.0343 -0.6190  0.6850
 5786TIP3    H138773   4.893  -0.063  16.957 -1.3887 -0.9108  1.3189
 5786TIP3    H238774   4.999   0.034  17.004 -0.3498 -0.6074 -1.4697
 5787TIP3   OH238775   0.039   0.401  13.188 -0.4194 -0.0363  0.4851
 5787TIP3    H138776   0.129   0.375  13.208 -0.8951 -1.8935  0.4065
 5787TIP3    H238777  -0.006   0.398  13.273 -0.6272 -0.1008  0.3745
 5788TIP3   OH238778   2.475   5.621  14.886  0.2464 -0.8211 -0.1016
 5788TIP3    H138779   2.420   5.542  14.891 -0.6042 -0.2224  0.2804
 5788TIP3    H238780   2.422   5.683  14.836  1.2360 -0.7383 -1.0872
 5789TIP3   OH238781   3.861   1.346   0.299  0.0430  0.9799  0.2710
 5789TIP3    H138782   3.830   1.342   0.389 -0.1793 -0.6562  0.1530
 5789TIP3    H238783   3.791   1.392   0.252 -0.3696  0.8387  0.7314
 5790TIP3   OH238784   5.368   2.223  14.069 -0.1284 -0.4638  0.5318
 5790TIP3    H138785   5.286   2.197  14.026 -1.2760  0.0152  2.3359
 5790TIP3    H238786   5.389   2.308  14.030 -0.3165 -0.7097 -0.1353
 5791TIP3   OH238787   4.099   6.780   4.619  1.3203  0.1659 -0.4353
 5791TIP3    H138788   4.102   6.782   4.715  1.0324 -0.7865 -0.3941
 5791TIP3    H238789   4.191   6.784   4.592  1.5029 -1.1328 -0.0618
 5792TIP3   OH238790   6.120   3.300  14.692 -1.0113  0.6851 -0.4558
 5792TIP3    H138791   6.200   3.273  14.646 -1.5663 -0.4614 -0.7641
 5792TIP3    H238792   6.076   3.218  14.714 -2.1135  1.3131 -0.2945
 5793TIP3   OH238793   1.268   0.588   1.276  0.4937  0.5352  0.2562
 5793TIP3    H138794   1.181   0.594   1.236  0.5570  0.9884  0.1852
 5793TIP3    H238795   1.326   0.564   1.204  0.3917 -0.0319  0.3541
 5794TIP3   OH238796   4.686   0.476  13.505 -0.0073  0.6986 -0.1521
 5794TIP3    H138797   4.606   0.424  13.515  0.5801 -0.5310 -1.4627
 5794TIP3    H238798   4.675   0.522  13.422  0.1096  1.5678  0.2976
 5795TIP3   OH238799   3.046   4.498   2.939  0.1663 -0.5017 -0.4101
 5795TIP3    H138800   3.076   4.411   2.912 -0.6574 -0.4199 -1.6724
 5795TIP3    H238801   2.961   4.482   2.979  0.9719 -0.5064  1.3673
 5796TIP3   OH238802   5.874   2.522  12.039  0.7840  0.2686  0.1503
 5796TIP3    H138803   5.935   2.536  12.112 -0.8189 -0.6929  1.7394
 5796TIP3    H238804   5.790   2.504  12.081 -0.4609  0.8597 -1.9784
 5797TIP3   OH238805   2.811   5.864   4.940  0.3327 -0.2302 -0.2783
 5797TIP3    H138806   2.801   5.780   4.895 -0.8784  0.0219 -0.5099
 5797TIP3    H238807   2.811   5.929   4.870  0.9620  0.0020 -0.0749
 5798TIP3   OH238808   3.998   2.569   1.362 -0.6170  0.1730 -0.2767
 5798TIP3    H138809   4.021   2.559   1.454 -0.4257 -0.6407 -0.4060
 5798TIP3    H238810   4.014   2.482   1.324 -1.1241  0.3815 -0.9773
 5799TIP3   OH238811   0.686   0.591   2.733 -0.7420  0.1556  0.4040
 5799TIP3    H138812   0.616   0.557   2.678 -1.8656  1.9413  0.6426
 5799TIP3    H238813   0.729   0.657   2.679 -0.0789 -0.0225  0.7122
 5800TIP3   OH238814   4.002   1.506  13.322  0.0183  0.0845  0.5178
 5800TIP3    H138815   4.035   1.475  13.406  1.5710  1.8964  0.6372
 5800TIP3    H238816   3.974   1.596  13.339  0.7268  0.6166 -0.9806
 5801TIP3   OH238817   2.815   1.897  15.974 -0.1896 -0.2043 -0.0441
 5801TIP3    H138818   2.776   1.822  15.930 -0.5440  0.4910 -0.9397
 5801TIP3    H238819   2.839   1.957  15.904  1.9639 -0.3351  0.5126
 5802TIP3   OH238820   1.025   2.558  11.327  0.0423 -0.0782 -0.2973
 5802TIP3    H138821   0.940   2.602  11.329  0.9263  1.8662 -1.8251
 5802TIP3    H238822   1.067   2.583  11.409 -0.3280  0.1142 -0.1628
 5803TIP3   OH238823   2.174   6.628  13.384  0.6591 -0.1729  0.1424
 5803TIP3    H138824   2.167   6.584  13.469  0.2125 -0.0361  0.1802
 5803TIP3    H238825   2.266   6.652  13.377  0.8131 -0.6777  0.3423
 5804TIP3   OH238826   4.350   6.325   3.382 -0.0744  0.4286  0.0779
 5804TIP3    H138827   4.381   6.382   3.452  1.6327  0.3551 -0.5879
 5804TIP3    H238828   4.422   6.265   3.365 -0.7187 -0.0220 -1.2512
 5805TIP3   OH238829   6.426   3.760  16.576 -0.0169 -0.3352  0.1708
 5805TIP3    H138830   6.375   3.712  16.511 -0.8518 -0.6254  1.0022
 5805TIP3    H238831   6.385   3.847  16.579  3.2582  1.6074 -3.4129
 5806TIP3   OH238832   0.422   2.639   5.011 -0.1518 -0.5216  0.0453
 5806TIP3    H138833   0.494   2.701   5.019 -1.6519  1.2554  0.3773
 5806TIP3    H238834   0.375   2.645   5.095 -0.2815 -2.2121  0.1356
 5807TIP3   OH238835   3.665   4.719  11.689 -0.0109  0.0265  0.5477
 5807TIP3    H138836   3.603   4.717  11.762 -1.5844 -1.1375 -0.7723
 5807TIP3    H238837   3.703   4.631  11.687  1.2510  0.5409  0.9450
 5808TIP3   OH238838   3.601   1.179   4.033 -0.4789  0.2051  0.1736
 5808TIP3    H138839   3.671   1.233   4.071  0.7557 -1.0178 -0.2890
 5808TIP3    H238840   3.616   1.092   4.069 -1.8152 -0.0770  0.1001
 5809TIP3   OH238841   4.524   4.419  13.857 -0.1113 -0.3985 -0.2358
 5809TIP3    H138842   4.614   4.401  13.828  0.4916  0.0848  1.2371
 5809TIP3    H238843   4.476   4.340  13.834  0.4963 -0.3487 -1.7762
 5810TIP3   OH238844   5.222   0.104   3.537 -0.6220  0.4228  0.2311
 5810TIP3    H138845   5.132   0.130   3.515 -1.4641 -0.5994  2.1743
 5810TIP3    H238846   5.227   0.114   3.632  1.0818 -0.2854  0.2541
 5811TIP3   OH238847   1.125   5.419  11.521  0.5238 -0.7398 -0.3750
 5811TIP3    H138848   1.129   5.442  11.428 -0.0952 -1.0683 -0.4832
 5811TIP3    H238849   1.051   5.469  11.555  0.7533 -0.6149 -0.0474
 5812TIP3   OH238850   6.659   6.249   5.154 -0.1619  1.3361 -0.4130
 5812TIP3    H138851   6.590   6.211   5.209  0.3596  1.1850  0.1483
 5812TIP3    H238852   6.620   6.253   5.067 -0.6021  0.5007 -0.2666
 5813TIP3   OH238853   6.698   2.892   0.948  0.0361  0.2013 -0.1133
 5813TIP3    H138854   6.609   2.928   0.957 -0.0568 -0.1299  0.3529
 5813TIP3    H238855   6.753   2.968   0.932 -0.5366  0.2702 -1.9462
 5814TIP3   OH238856   1.806   2.991  15.008  0.3152  0.6612 -0.1061
 5814TIP3    H138857   1.800   2.904  14.969  1.0677  0.9497 -0.8832
 5814TIP3    H238858   1.823   3.050  14.935  1.4452  1.2509  0.5945
 5815TIP3   OH238859   2.861   2.611   2.902  0.0358  0.1807  0.1782
 5815TIP3    H138860   2.940   2.573   2.863 -1.2135 -2.6308  0.1623
 5815TIP3    H238861   2.789   2.575   2.851 -1.4673 -0.6010  2.6918
 5816TIP3   OH238862   5.962   6.333  14.537  0.5998 -0.4698  0.5009
 5816TIP3    H138863   5.929   6.411  14.493 -1.0187 -1.4842 -0.1683
 5816TIP3    H238864   5.965   6.357  14.630 -0.8669  0.0717  0.4254
 5817TIP3   OH238865   4.227   6.102   1.235  0.2237 -0.0417  0.4429
 5817TIP3    H138866   4.193   6.126   1.321  0.9111 -0.3059  0.7983
 5817TIP3    H238867   4.202   6.174   1.178 -1.2440 -0.4036  0.6077
 5818TIP3   OH238868   5.094   0.197   6.111 -0.1446 -0.4484 -0.4466
 5818TIP3    H138869   5.061   0.286   6.129  1.1600  0.3096 -1.6601
 5818TIP3    H238870   5.180   0.195   6.152 -0.9440 -1.8680  1.2862
 5819TIP3   OH238871   5.253   5.902  13.847 -0.2641 -0.3990  0.3795
 5819TIP3    H138872   5.289   5.830  13.900 -0.7825 -0.6734  0.3736
 5819TIP3    H238873   5.265   5.874  13.757 -2.3166 -1.4681  0.3724
 5820TIP3   OH238874   3.444   1.045  16.610 -0.0389 -0.3193 -0.3739
 5820TIP3    H138875   3.476   1.061  16.699 -1.4319 -0.9935  0.2745
 5820TIP3    H238876   3.487   0.963  16.584  0.6988  0.0989 -0.5058
 5821TIP3   OH238877   1.151   6.721   2.192  0.2595 -0.4900  0.0530
 5821TIP3    H138878   1.109   6.778   2.256 -0.5854 -1.9241  0.8315
 5821TIP3    H238879   1.190   6.781   2.128 -0.9270  0.9317  0.6073
 5822TIP3   OH238880   3.556   6.674  12.024 -0.2710  0.3411 -0.2138
 5822TIP3    H138881   3.648   6.673  12.051 -0.6053  1.2335  1.0087
 5822TIP3    H238882   3.545   6.759  11.982 -0.0738 -0.5349 -2.1605
 5823TIP3   OH238883   0.419   6.399   5.942  0.2430  0.4571  0.4180
 5823TIP3    H138884   0.477   6.391   5.867  0.8644  1.4390  0.7764
 5823TIP3    H238885   0.358   6.470   5.919  0.6716  1.0225  0.9686
 5824TIP3   OH238886   4.275   2.539  17.159 -0.0331  0.5887 -0.3635
 5824TIP3    H138887   4.289   2.468  17.221 -0.2725  1.6494  0.9634
 5824TIP3    H238888   4.273   2.497  17.073  2.1808 -0.6984  0.1461
 5825TIP3   OH238889   4.263   2.999   0.080  0.0243  0.2266  0.1263
 5825TIP3    H138890   4.168   3.001   0.064  0.0526  0.6995 -0.0032
 5825TIP3    H238891   4.271   2.979   0.173 -0.1743 -0.9027 -0.0817
 5826TIP3   OH238892   1.016   1.333   3.683 -0.3841 -0.5932  0.2470
 5826TIP3    H138893   1.085   1.393   3.713 -0.3267 -0.3039 -0.4560
 5826TIP3    H238894   1.004   1.272   3.757 -0.2198  0.0827  0.8434
 5827TIP3   OH238895   6.155   6.587  13.028 -0.6018  0.1008  0.2939
 5827TIP3    H138896   6.197   6.541  12.955 -0.6017 -1.1585  1.0616
 5827TIP3    H238897   6.184   6.540  13.106 -1.4918  0.7332  1.0275
 5828TIP3   OH238898   4.512   2.040   5.251 -0.0270 -0.2187  0.0916
 5828TIP3    H138899   4.505   1.945   5.258 -1.2431 -0.0270  1.9762
 5828TIP3    H238900   4.520   2.071   5.341  0.5891  1.4737 -0.4958
 5829TIP3   OH238901   0.884   3.087   2.009 -0.1075  0.1294  0.1187
 5829TIP3    H138902   0.961   3.143   2.022 -0.5125  1.3310 -2.2240
 5829TIP3    H238903   0.845   3.082   2.096  1.8551  0.6058  1.1036
 5830TIP3   OH238904   1.958   2.129  11.562 -0.1836  0.2198  0.0076
 5830TIP3    H138905   2.007   2.202  11.526  0.3766 -1.0049 -1.8768
 5830TIP3    H238906   2.025   2.065  11.587 -0.7203 -0.5152 -0.3837
 5831TIP3   OH238907   4.891   4.731  14.730  0.6141  0.1641 -0.3704
 5831TIP3    H138908   4.973   4.780  14.728  0.1318  0.9980 -2.2372
 5831TIP3    H238909   4.888   4.687  14.645 -1.9616  2.1106 -1.4297
 5832TIP3   OH238910   4.803   2.747   4.620  0.1789  0.7919  0.5851
 5832TIP3    H138911   4.715   2.711   4.633  0.2691  1.2126  2.6453
 5832TIP3    H238912   4.860   2.670   4.614  0.0290  0.5034  2.2956
 5833TIP3   OH238913   5.668   4.383  14.466  0.1908  0.1417 -0.0967
 5833TIP3    H138914   5.690   4.424  14.383 -0.4600  0.1467 -0.2738
 5833TIP3    H238915   5.585   4.424  14.491 -0.6220 -1.2730 -0.4197
 5834TIP3   OH238916   4.856   0.666   0.630  0.3398 -0.1196  0.4322
 5834TIP3    H138917   4.887   0.666   0.539 -1.1162 -1.3223 -0.0988
 5834TIP3    H238918   4.799   0.743   0.635 -1.5951 -1.4192 -0.4559
 5835TIP3   OH238919   5.221   5.752   2.834  0.1590 -0.0227 -0.2671
 5835TIP3    H138920   5.304   5.709   2.815  0.1411  0.7854 -2.4257
 5835TIP3    H238921   5.176   5.755   2.749 -0.0733  3.7401 -0.1371
 5836TIP3   OH238922   0.813   4.927   2.095  0.5214 -0.4456 -0.1518
 5836TIP3    H138923   0.803   4.997   2.159  1.2078 -0.0713 -0.4458
 5836TIP3    H238924   0.901   4.892   2.111  0.4013 -0.8695 -0.3819
 5837TIP3   OH238925   3.803   5.554   1.299  0.1084  0.0127  0.3399
 5837TIP3    H138926   3.811   5.649   1.306 -1.2247  0.0835  1.3375
 5837TIP3    H238927   3.843   5.521   1.380 -2.9258 -0.0032  1.9497
 5838TIP3   OH238928   3.853   5.738  11.589  0.0018  0.4252  0.1376
 5838TIP3    H138929   3.789   5.804  11.562 -0.5229 -0.3844 -0.6491
 5838TIP3    H238930   3.933   5.761  11.541 -0.0602  0.7146  0.1717
 5839TIP3   OH238931   2.309   4.720  12.616 -0.1475  0.3909  0.0488
 5839TIP3    H138932   2.382   4.761  12.571 -0.2853 -0.4107 -0.9207
 5839TIP3    H238933   2.340   4.632  12.638 -1.3007 -0.5111 -1.7255
 5840TIP3   OH238934   1.208   2.824   4.463 -0.8326  0.6998 -0.1736
 5840TIP3    H138935   1.300   2.800   4.454 -0.9060  0.8434 -1.5657
 5840TIP3    H238936   1.210   2.909   4.508 -0.3176  0.4482  0.2841
 5841TIP3   OH238937   4.949   3.266  11.791 -0.0243  1.0800 -0.3728
 5841TIP3    H138938   5.006   3.343  11.789 -1.2432  2.0049 -2.2248
 5841TIP3    H238939   4.898   3.277  11.871  1.0632  1.2221  0.3253
 5842TIP3   OH238940   1.586   3.047   4.225 -0.3245  0.0351 -0.5761
 5842TIP3    H138941   1.605   3.057   4.132  1.2415  0.5657 -0.2400
 5842TIP3    H238942   1.575   2.953   4.238  1.7007 -0.3125 -0.9577
 5843TIP3   OH238943   5.665   0.660  13.680 -0.2856 -0.2212 -0.5956
 5843TIP3    H138944   5.738   0.675  13.620  1.2172  0.2632  1.2687
 5843TIP3    H238945   5.676   0.725  13.749 -2.8189  0.2070 -0.5032
 5844TIP3   OH238946   2.277   6.731   2.651 -0.2065 -0.5967 -0.2360
 5844TIP3    H138947   2.309   6.795   2.714  0.6582  0.6558 -1.8841
 5844TIP3    H238948   2.355   6.682   2.625 -1.2348 -5.1431  3.7471
 5845TIP3   OH238949   5.647   6.567  16.759 -0.3140 -0.2625 -0.2811
 5845TIP3    H138950   5.716   6.633  16.763 -0.1950 -0.4423  1.0214
 5845TIP3    H238951   5.566   6.617  16.753 -0.1241 -0.0361 -1.0197
 5846TIP3   OH238952   2.203   2.368  16.223 -0.1296 -0.8142 -0.1342
 5846TIP3    H138953   2.257   2.331  16.292 -0.5569 -0.7154  0.2586
 5846TIP3    H238954   2.225   2.461  16.222 -0.4890 -0.7228  0.2136
 5847TIP3   OH238955   2.529   0.578  14.809  0.4032 -0.0584 -0.2112
 5847TIP3    H138956   2.585   0.649  14.840 -0.0146 -1.1318  3.3445
 5847TIP3    H238957   2.579   0.538  14.738  2.5443  1.1539  0.5297
 5848TIP3   OH238958   3.725   3.863   0.104  0.2476  0.1578 -0.0133
 5848TIP3    H138959   3.772   3.843   0.023  0.3532 -0.9402  0.3041
 5848TIP3    H238960   3.787   3.839   0.173 -0.3541 -0.2124  0.4001
 5849TIP3   OH238961   1.369   0.930   3.444 -0.0232  0.2450  0.2774
 5849TIP3    H138962   1.383   1.000   3.380 -0.9789 -0.2748 -0.5303
 5849TIP3    H238963   1.423   0.954   3.519 -0.5281  1.9809  0.1185
 5850TIP3   OH238964   4.587   2.886  11.446  0.0346 -0.7754 -0.0567
 5850TIP3    H138965   4.592   2.863  11.539  0.8420 -1.8608 -0.3517
 5850TIP3    H238966   4.592   2.982  11.445 -0.5652 -0.7056  1.0393
 5851TIP3   OH238967   6.403   0.299   3.542 -0.7743 -0.4383  0.0216
 5851TIP3    H138968   6.472   0.254   3.495 -0.4784 -0.3970  0.4088
 5851TIP3    H238969   6.338   0.232   3.561 -1.1865 -0.3341 -0.9698
 5852TIP3   OH238970   6.109   5.783  17.213 -0.3720  0.1940 -0.1550
 5852TIP3    H138971   6.109   5.790  17.117  3.5863  0.3711 -0.3283
 5852TIP3    H238972   6.071   5.866  17.243 -1.3417  0.2925 -1.5627
 5853TIP3   OH238973   2.851   3.901  11.661  0.0611  0.1178  0.2466
 5853TIP3    H138974   2.925   3.955  11.686 -0.4475 -0.2221  2.7923
 5853TIP3    H238975   2.886   3.812  11.657  0.0363  0.1074  0.2582
 5854TIP3   OH238976   5.178   1.221  10.914  0.0938  0.5363 -0.1547
 5854TIP3    H138977   5.263   1.242  10.875  0.5934 -0.0311  0.5859
 5854TIP3    H238978   5.123   1.297  10.896  0.4522  0.5014 -1.4951
 5855TIP3   OH238979   1.056   5.792  14.976 -0.4041  0.6952 -0.1512
 5855TIP3    H138980   0.993   5.798  14.904 -2.1593 -1.3633  1.0807
 5855TIP3    H238981   1.128   5.739  14.940 -0.3506  1.2920 -0.9448
 5856TIP3   OH238982   4.616   1.698  16.343 -0.4438  0.2676 -0.4521
 5856TIP3    H138983   4.553   1.663  16.281 -0.6909  0.1258 -0.1190
 5856TIP3    H238984   4.648   1.622  16.392 -1.2972  0.5387  0.5658
 5857TIP3   OH238985   4.558   2.973   0.954  0.2864 -0.2470 -0.5498
 5857TIP3    H138986   4.653   2.983   0.958  0.2913  0.0613 -1.3164
 5857TIP3    H238987   4.533   3.013   0.871 -0.6007  0.3546 -0.0139
 5858TIP3   OH238988   6.762   5.613  14.072 -0.0585 -0.1828 -0.3936
 5858TIP3    H138989   6.826   5.663  14.122 -2.0482  0.5667  1.5610
 5858TIP3    H238990   6.782   5.522  14.091  2.1821 -0.1361 -2.1683
 5859TIP3   OH238991   5.679   5.248  14.423  0.2877 -0.5393 -0.0320
 5859TIP3    H138992   5.666   5.342  14.437  0.2686 -0.3161 -1.4565
 5859TIP3    H238993   5.594   5.217  14.393  0.2312 -1.0738  0.6538
 5860TIP3   OH238994   5.210   4.019   1.451 -0.1465 -0.1342 -0.0337
 5860TIP3    H138995   5.241   4.109   1.443 -0.5047 -0.0744 -0.8742
 5860TIP3    H238996   5.262   3.969   1.388  1.2927 -0.8791  1.6567
 5861TIP3   OH238997   1.092   6.378  14.744  0.2162  0.1214 -0.4036
 5861TIP3    H138998   1.026   6.309  14.752  0.3258 -0.0950 -1.3533
 5861TIP3    H238999   1.076   6.419  14.659  1.7173 -0.3753 -0.9663
 5862TIP3   OH239000   0.767   4.143  15.893 -0.2563  0.2347  0.4422
 5862TIP3    H139001   0.752   4.053  15.867 -1.6789  0.4089  0.5627
 5862TIP3    H239002   0.778   4.191  15.811 -2.8050  0.4612  0.1365
 5863TIP3   OH239003   5.406   6.650   2.494 -0.4488  0.1668 -0.1191
 5863TIP3    H139004   5.409   6.731   2.443  0.0420  0.6385  0.6529
 5863TIP3    H239005   5.490   6.646   2.539 -0.2356 -1.0674 -0.5906
 5864TIP3   OH239006   0.547   2.117  14.313 -0.3486  0.0538  0.0650
 5864TIP3    H139007   0.618   2.158  14.363 -0.9352 -0.3392  1.2684
 5864TIP3    H239008   0.472   2.173  14.328 -0.9468 -0.9609  1.0188
 5865TIP3   OH239009   2.802   5.427  13.538 -0.3352  0.1933  0.3979
 5865TIP3    H139010   2.828   5.458  13.451 -0.4160 -0.3405  0.1783
 5865TIP3    H239011   2.811   5.331  13.533  0.7419  0.2208  1.3318
 5866TIP3   OH239012   2.988   5.408  16.513 -0.0703  0.0267  0.4657
 5866TIP3    H139013   3.034   5.394  16.596 -0.3362  0.1471  0.6359
 5866TIP3    H239014   2.989   5.323  16.471  1.1572  0.2391  0.0202
 5867TIP3   OH239015   0.810   2.120   1.354 -0.5718  0.3533  0.2961
 5867TIP3    H139016   0.761   2.196   1.321 -2.0599 -1.0183 -0.8024
 5867TIP3    H239017   0.744   2.052   1.365  0.7545 -0.8561  1.0900
 5868TIP3   OH239018   4.003   3.275  15.273  0.5292  0.0344  0.0386
 5868TIP3    H139019   4.042   3.341  15.216 -1.2160  1.8533  0.8302
 5868TIP3    H239020   4.029   3.302  15.361 -0.5208 -0.0974  0.4018
 5869TIP3   OH239021   4.740   2.644   1.229 -0.4180 -0.2413 -0.3505
 5869TIP3    H139022   4.774   2.689   1.307  0.1839  0.8749 -1.2256
 5869TIP3    H239023   4.674   2.704   1.194  0.6858  0.1904 -1.7631
 5870TIP3   OH239024   4.130   3.153   3.031 -0.5572 -0.0575 -0.6830
 5870TIP3    H139025   4.052   3.104   3.006 -1.0458  0.2958  0.1357
 5870TIP3    H239026   4.175   3.097   3.095 -1.0643  0.4954  0.1770
 5871TIP3   OH239027   6.631   6.232  12.801  0.5143  0.1742 -0.0548
 5871TIP3    H139028   6.661   6.323  12.799  0.5249  0.1723  0.0409
 5871TIP3    H239029   6.661   6.199  12.886 -1.6297  0.8085  1.0134
 5872TIP3   OH239030   2.263   2.251  12.350  0.3829 -0.0453  0.1307
 5872TIP3    H139031   2.349   2.209  12.347 -0.2008 -1.2312 -1.2230
 5872TIP3    H239032   2.202   2.178  12.364 -0.4875  0.6326 -0.0653
 5873TIP3   OH239033   6.390   4.203  11.435  0.2696 -0.8401  0.3633
 5873TIP3    H139034   6.383   4.154  11.354 -0.3289  0.1629 -0.2110
 5873TIP3    H239035   6.313   4.175  11.486 -0.8069  0.4126 -0.5002
 5874TIP3   OH239036   4.757   1.690   4.709  0.4576 -0.2846 -0.0983
 5874TIP3    H139037   4.777   1.668   4.618  0.0457 -0.5596 -0.1260
 5874TIP3    H239038   4.752   1.605   4.753  2.2241 -0.1064  0.5241
 5875TIP3   OH239039   0.446   6.220   1.396 -0.4852  0.2879 -1.1034
 5875TIP3    H139040   0.538   6.232   1.419 -0.8794  2.1637 -0.3231
 5875TIP3    H239041   0.414   6.308   1.378 -2.6337 -0.0501  0.6840
 5876TIP3   OH239042   4.517   4.280   3.790  0.1474  0.0434  0.6356
 5876TIP3    H139043   4.612   4.278   3.782  0.0098 -2.4707 -2.1256
 5876TIP3    H239044   4.490   4.350   3.731  0.2529  0.9702  1.6600
 5877TIP3   OH239045   0.822   5.172  12.821 -0.5614 -0.3621  0.0753
 5877TIP3    H139046   0.779   5.121  12.752 -0.6612 -0.0000 -0.1272
 5877TIP3    H239047   0.751   5.224  12.860 -0.3322  0.1465 -0.1810
 5878TIP3   OH239048   3.914   4.937  13.608  0.7354 -0.1797 -0.3315
 5878TIP3    H139049   3.903   4.975  13.521 -1.4376 -0.6198 -0.3006
 5878TIP3    H239050   3.957   4.853  13.593 -2.6752 -1.9202 -1.5090
 5879TIP3   OH239051   0.933   2.703   4.148 -0.6718  0.1562  0.0905
 5879TIP3    H139052   0.940   2.696   4.053 -2.4181 -0.4105 -0.0256
 5879TIP3    H239053   0.989   2.632   4.181  0.9789  1.1551 -0.4352
 5880TIP3   OH239054   1.064   4.958   5.741  0.3521  0.2830 -0.5316
 5880TIP3    H139055   1.122   4.984   5.669  0.5885 -2.4120 -1.4391
 5880TIP3    H239056   1.121   4.915   5.804 -0.2639  0.0976 -0.0844
 5881TIP3   OH239057   0.209   5.256   4.805 -0.1801 -0.1324 -0.0716
 5881TIP3    H139058   0.305   5.256   4.807 -0.1136 -0.2424 -1.6498
 5881TIP3    H239059   0.183   5.265   4.896  1.3343  0.0060  0.3775
 5882TIP3   OH239060   0.479   1.872   1.997  0.1847  0.0840  0.1212
 5882TIP3    H139061   0.389   1.875   2.031  0.3327 -1.3066  0.6925
 5882TIP3    H239062   0.523   1.808   2.052  2.0886  2.1120  1.1352
 5883TIP3   OH239063   0.526   0.967  17.113 -0.6257  0.3907 -0.6676
 5883TIP3    H139064   0.448   0.975  17.058  0.1065 -0.2363 -1.8458
 5883TIP3    H239065   0.520   0.879  17.151 -0.0918  0.0026 -1.4444
 5884TIP3   OH239066   0.887   5.032  15.049  0.1363 -0.3780 -0.0949
 5884TIP3    H139067   0.797   5.030  15.081  0.4192 -0.4239  0.7224
 5884TIP3    H239068   0.885   4.980  14.969 -0.2445 -1.7909  0.7861
 5885TIP3   OH239069   5.524   3.018  10.934  0.1587  0.6495 -0.4375
 5885TIP3    H139070   5.537   3.106  10.968  0.1685  0.0705  1.1772
 5885TIP3    H239071   5.431   3.014  10.913 -0.0666  0.7312  0.4958
 5886TIP3   OH239072   0.157   1.775   6.441  0.0681 -0.3441  0.5181
 5886TIP3    H139073   0.210   1.854   6.427 -1.3856  0.7401  0.8033
 5886TIP3    H239074   0.078   1.808   6.485 -1.2415 -1.7326 -0.7118
 5887TIP3   OH239075   1.353   0.345   0.233  0.3957  0.1920  0.1739
 5887TIP3    H139076   1.416   0.277   0.256  1.7002  1.3138  0.0275
 5887TIP3    H239077   1.335   0.332   0.140  0.4277 -0.1055  0.2088
 5888TIP3   OH239078   0.718   5.799  16.675  0.3491 -0.1774 -0.6742
 5888TIP3    H139079   0.809   5.817  16.652 -0.0808  1.0598 -1.5008
 5888TIP3    H239080   0.704   5.708  16.650  1.3377 -0.3597 -0.5953
 5889TIP3   OH239081   6.434   1.439   3.964  0.7521 -0.5227  0.6492
 5889TIP3    H139082   6.399   1.412   4.049 -0.4125 -1.2983 -0.0359
 5889TIP3    H239083   6.356   1.448   3.909  1.2853  1.9311  0.1635
 5890TIP3   OH239084   5.016   4.097  15.004  0.5425  0.1563 -0.4838
 5890TIP3    H139085   5.088   4.118  14.944 -0.2216 -0.3188 -1.6049
 5890TIP3    H239086   5.005   4.002  14.995  1.7977 -0.3159  2.0371
 5891TIP3   OH239087   5.981   1.144  13.492  0.1282  0.1376 -0.1053
 5891TIP3    H139088   5.893   1.139  13.529  0.6302 -2.6814  0.9717
 5891TIP3    H239089   5.972   1.107  13.404 -0.0291  1.5446 -0.7145
 5892TIP3   OH239090   0.200   1.151   6.095 -0.6327 -0.3827 -0.4737
 5892TIP3    H139091   0.246   1.103   6.027 -0.9324  0.1732 -1.0793
 5892TIP3    H239092   0.170   1.084   6.156  0.4261 -0.8010 -0.4063
 5893TIP3   OH239093   6.117   6.304   1.082  0.4151 -0.2689 -0.2437
 5893TIP3    H139094   6.159   6.353   1.153  2.4463  0.4222 -1.8267
 5893TIP3    H239095   6.138   6.212   1.101 -0.3628 -0.2392  0.8299
 5894TIP3   OH239096   2.415   6.659  11.083 -0.5979  0.0102 -0.3097
 5894TIP3    H139097   2.365   6.606  11.021  0.6048 -2.4416  0.6677
 5894TIP3    H239098   2.475   6.710  11.029 -1.2210 -0.2667 -1.2764
 5895TIP3   OH239099   5.682   6.328   4.380  0.3484 -0.3354 -0.0011
 5895TIP3    H139100   5.639   6.410   4.406 -3.4880 -2.3369  0.7026
 5895TIP3    H239101   5.614   6.280   4.331  3.3073 -2.0214 -2.8950
 5896TIP3   OH239102   1.170   3.561   1.724  0.5453  0.5458 -0.6535
 5896TIP3    H139103   1.080   3.566   1.756  0.3283 -0.6242 -1.0356
 5896TIP3    H239104   1.212   3.496   1.780 -0.2411 -2.6802 -3.4614
 5897TIP3   OH239105   1.968   4.577  16.217 -0.3045  0.6643 -0.0463
 5897TIP3    H139106   1.912   4.524  16.160  3.1557 -0.5268 -2.6797
 5897TIP3    H239107   1.976   4.525  16.298 -0.0973 -0.9666 -1.0694
 5898TIP3   OH239108   2.407   5.578  14.197  0.2872 -0.0538  0.0120
 5898TIP3    H139109   2.338   5.634  14.162  1.5650  1.9412  0.5454
 5898TIP3    H239110   2.399   5.586  14.292  0.3362 -0.9967  0.1055
 5899TIP3   OH239111   1.870   0.627  16.371  0.0445 -0.2114 -0.5019
 5899TIP3    H139112   1.922   0.693  16.416 -0.4320  0.2832 -0.6645
 5899TIP3    H239113   1.780   0.660  16.375 -0.6267 -2.0322  1.6215
 5900TIP3   OH239114   1.436   5.487   4.695  0.3230 -0.2463 -0.2105
 5900TIP3    H139115   1.403   5.399   4.681 -0.5097 -0.5755  2.9139
 5900TIP3    H239116   1.507   5.476   4.759 -0.6214  1.3614  1.2309
 5901TIP3   OH239117   6.331   3.239   2.308  0.2932 -0.0650  0.4986
 5901TIP3    H139118   6.301   3.304   2.245  0.1743  0.0982  0.7219
 5901TIP3    H239119   6.284   3.260   2.389  0.8858  0.0881  0.8110
 5902TIP3   OH239120   1.362   1.168  11.476 -0.0498  0.8596  0.7669
 5902TIP3    H139121   1.453   1.197  11.475 -0.4128  2.0920  0.8070
 5902TIP3    H239122   1.312   1.248  11.492 -1.2096  0.3965 -0.3610
 5903TIP3   OH239123   6.067   4.254  12.313  0.2905  0.3268 -0.7219
 5903TIP3    H139124   5.984   4.302  12.323 -1.5746 -2.8748  0.6273
 5903TIP3    H239125   6.113   4.269  12.395  0.7105  1.4117 -1.1336
 5904TIP3   OH239126   2.023   2.463   2.910  0.2983 -0.4263  0.0066
 5904TIP3    H139127   2.019   2.382   2.961 -1.8431 -0.9573 -0.9026
 5904TIP3    H239128   2.013   2.435   2.819  1.3682  0.7280 -0.4905
 5905TIP3   OH239129   2.891   5.168   3.299  0.5920 -0.0258  0.1856
 5905TIP3    H139130   2.825   5.180   3.367 -0.3815 -2.3452 -0.2381
 5905TIP3    H239131   2.939   5.251   3.296 -0.5329  0.7731  2.3868
 5906TIP3   OH239132   2.424   3.291  12.279 -0.1520  0.1139 -0.4319
 5906TIP3    H139133   2.511   3.304  12.242 -0.0287 -1.0564 -0.5946
 5906TIP3    H239134   2.402   3.200  12.257 -0.1167 -0.6432  2.2481
 5907TIP3   OH239135   5.722   0.507  16.867  0.9109  0.8259  0.9600
 5907TIP3    H139136   5.724   0.432  16.807 -0.2294  0.3153  1.5149
 5907TIP3    H239137   5.798   0.495  16.924 -0.1336 -0.8392  2.0878
 5908TIP3   OH239138   6.432   1.140   4.177  0.7628  0.0394  0.1491
 5908TIP3    H139139   6.410   1.086   4.252 -0.7515 -0.0668 -0.3236
 5908TIP3    H239140   6.503   1.196   4.207 -1.2066  1.5254  2.4259
 5909TIP3   OH239141   1.517   4.630   4.399  0.1538 -0.0846  0.2452
 5909TIP3    H139142   1.547   4.582   4.321  0.2035  0.3069  0.0217
 5909TIP3    H239143   1.489   4.561   4.459 -1.3451 -0.3767 -0.7136
 5910TIP3   OH239144   4.471   5.633   2.449 -0.2355 -0.4209  0.7271
 5910TIP3    H139145   4.554   5.622   2.496 -0.3017 -2.0512  0.5135
 5910TIP3    H239146   4.493   5.691   2.376  0.4173  0.1892  1.3933
 5911TIP3   OH239147   3.221   3.866   4.280 -0.6484 -0.2333 -0.2862
 5911TIP3    H139148   3.234   3.836   4.370 -2.2659 -0.6352 -0.1601
 5911TIP3    H239149   3.304   3.845   4.236  0.2061  0.0592  1.1048
 5912TIP3   OH239150   2.654   0.490   1.200  0.3656 -0.0423  0.4507
 5912TIP3    H139151   2.705   0.431   1.256  0.2063  0.4609  1.1383
 5912TIP3    H239152   2.632   0.564   1.257 -1.6055 -0.4980  0.3456
 5913TIP3   OH239153   4.396   5.884  11.788 -0.6800  0.2018  0.4234
 5913TIP3    H139154   4.406   5.843  11.874  0.0420 -0.8391 -0.1424
 5913TIP3    H239155   4.400   5.812  11.726  0.6421  1.1053 -0.6031
 5914TIP3   OH239156   6.323   6.333   0.835  0.5641 -0.2780  0.2646
 5914TIP3    H139157   6.290   6.335   0.924 -1.7131 -0.3049 -0.5232
 5914TIP3    H239158   6.398   6.393   0.836  2.4792 -2.4756  2.7980
 5915TIP3   OH239159   5.829   0.117  11.278  0.0806  0.2686  0.1302
 5915TIP3    H139160   5.783   0.033  11.269  1.6685 -0.5779 -0.4653
 5915TIP3    H239161   5.860   0.119  11.368 -1.0968  0.8646  0.5489
 5916TIP3   OH239162   1.429   6.480   0.342  0.3519  0.2859  0.3777
 5916TIP3    H139163   1.519   6.452   0.355  0.7230  1.1630 -0.2576
 5916TIP3    H239164   1.425   6.508   0.251 -0.5631  0.2593  0.4002
 5917TIP3   OH239165   4.824   3.343  11.547  0.6764  0.6605  0.4032
 5917TIP3    H139166   4.891   3.408  11.527  0.0162  1.8236  1.7617
 5917TIP3    H239167   4.850   3.306  11.631  1.0720 -0.9211 -0.3781
 5918TIP3   OH239168   4.790   1.861   4.927 -0.8657 -0.1020  0.0769
 5918TIP3    H139169   4.778   1.808   4.848 -0.4331  0.2878 -0.2512
 5918TIP3    H239170   4.704   1.899   4.944 -0.6111  1.0323 -1.0860
 5919TIP3   OH239171   1.433   4.076   5.824  0.8707  0.0351 -0.3243
 5919TIP3    H139172   1.454   3.983   5.817  1.4486  0.2732 -2.3010
 5919TIP3    H239173   1.512   4.116   5.862  0.6822 -0.2439  0.3723
 5920TIP3   OH239174   6.260   1.389  14.684  0.3014 -0.7342  0.0033
 5920TIP3    H139175   6.169   1.391  14.711  0.1885 -1.8386 -0.2383
 5920TIP3    H239176   6.308   1.361  14.763  0.3413 -0.8668 -0.0670
 5921TIP3   OH239177   5.457   0.255  13.055  0.2544 -0.4766  0.2811
 5921TIP3    H139178   5.417   0.306  12.986  0.2519 -0.5208  0.2505
 5921TIP3    H239179   5.516   0.317  13.099  0.4349 -0.5120  0.0891
 5922TIP3   OH239180   5.221   5.048   5.105  0.1238  0.9304  0.2710
 5922TIP3    H139181   5.277   4.971   5.119  0.4404  1.1526  0.2354
 5922TIP3    H239182   5.220   5.092   5.190 -0.1009  0.8612  0.3052
 5923TIP3   OH239183   4.781   5.436  14.616 -0.4922  0.0754 -0.1874
 5923TIP3    H139184   4.723   5.496  14.663 -1.8511 -0.5776 -0.9526
 5923TIP3    H239185   4.757   5.350  14.649 -0.0202 -0.2081 -0.5835
 5924TIP3   OH239186   5.747   0.385  11.502  0.0712  0.0014 -0.0943
 5924TIP3    H139187   5.740   0.343  11.416 -1.0424  0.7977 -0.4166
 5924TIP3    H239188   5.656   0.406  11.526  0.2467 -1.1529  1.7660
 5925TIP3   OH239189   3.419   3.208   4.206  0.3964 -0.2364 -0.8574
 5925TIP3    H139190   3.402   3.114   4.203  0.2386 -0.1950 -1.3171
 5925TIP3    H239191   3.345   3.247   4.159  0.7428  0.0788 -1.1441
 5926TIP3   OH239192   3.716   3.771  14.605 -0.2115  0.5434  0.6584
 5926TIP3    H139193   3.735   3.703  14.541  2.1698  1.2763  0.5077
 5926TIP3    H239194   3.666   3.726  14.673 -1.4013 -0.6049 -0.9096
 5927TIP3   OH239195   0.734   3.329   5.995  0.0666 -0.2838  0.3295
 5927TIP3    H139196   0.665   3.338   6.061  1.4610 -0.8766  1.9592
 5927TIP3    H239197   0.690   3.342   5.912 -2.0508 -0.8989  1.2878
 5928TIP3   OH239198   6.501   5.466  15.489 -0.7961 -0.5976 -0.4851
 5928TIP3    H139199   6.549   5.399  15.441  0.1488 -0.4514  0.2385
 5928TIP3    H239200   6.560   5.493  15.560 -1.8075 -0.1844  0.2324
 5929TIP3   OH239201   2.416   0.696   0.770  0.2889  0.2547 -0.2981
 5929TIP3    H139202   2.352   0.658   0.830  0.3315 -1.5111 -1.3167
 5929TIP3    H239203   2.451   0.771   0.817 -2.7517  1.5251  0.1731
 5930TIP3   OH239204   0.273   5.824  15.555 -0.1514 -0.3649 -0.0143
 5930TIP3    H139205   0.261   5.826  15.460 -0.9852  1.6306  0.0771
 5930TIP3    H239206   0.229   5.903  15.586 -0.7897 -1.5134  2.1638
 5931TIP3   OH239207   0.716   6.064   2.431  0.8353  0.3180 -0.0503
 5931TIP3    H139208   0.754   6.150   2.410  0.5473  1.2015  2.7136
 5931TIP3    H239209   0.630   6.083   2.468 -0.1343 -1.3456 -1.2886
 5932TIP3   OH239210   6.504   3.483   1.489 -0.6030 -0.3948  0.1178
 5932TIP3    H139211   6.580   3.537   1.469 -2.0199  1.4678 -0.4722
 5932TIP3    H239212   6.482   3.440   1.406 -1.7342  1.1391 -0.4135
 5933TIP3   OH239213   1.259   0.629  12.611 -0.5995 -0.5613  0.4068
 5933TIP3    H139214   1.309   0.548  12.606  3.8751  1.8312  1.1576
 5933TIP3    H239215   1.255   0.660  12.520 -0.9851 -0.8822  0.3118
 5934TIP3   OH239216   1.642   6.175  14.286 -0.3419  0.2758 -0.3477
 5934TIP3    H139217   1.638   6.270  14.294  1.2146  0.3787 -0.5706
 5934TIP3    H239218   1.593   6.142  14.361  1.8771  1.2535  1.6388
 5935TIP3   OH239219   0.512   5.943   0.244 -0.2147 -0.3834 -0.0737
 5935TIP3    H139220   0.565   5.863   0.252 -0.1575 -0.4116 -0.7009
 5935TIP3    H239221   0.460   5.929   0.165  0.1186  0.3900 -0.4289
 5936TIP3   OH239222   6.774   3.959   2.136  0.2715  0.0883  0.0570
 5936TIP3    H139223   6.755   4.022   2.206 -0.7603  0.6556 -0.7024
 5936TIP3    H239224   6.708   3.890   2.148  1.0980 -0.6239  0.5932
 5937TIP3   OH239225   1.857   5.872  15.302  0.2084 -0.1416 -0.7908
 5937TIP3    H139226   1.915   5.821  15.358  0.0059  0.4635 -0.0155
 5937TIP3    H239227   1.914   5.941  15.266 -0.5083  2.3181  2.2880
 5938TIP3   OH239228   1.973   5.132   4.803 -0.3527 -0.4354  0.7984
 5938TIP3    H139229   2.029   5.174   4.868 -0.3389  1.1934 -0.2078
 5938TIP3    H239230   1.899   5.192   4.793 -0.1371 -0.3974 -0.9744
 5939TIP3   OH239231   1.905   4.641   4.021 -0.1561  0.3775 -0.3283
 5939TIP3    H139232   1.877   4.552   3.999  0.5442  0.9331 -4.0190
 5939TIP3    H239233   2.000   4.638   4.019  0.0102  0.7260  2.3135
 5940TIP3   OH239234   3.355   3.260  12.891 -0.3482  0.0192 -0.0078
 5940TIP3    H139235   3.394   3.254  12.804  0.5876  1.8056  0.2274
 5940TIP3    H239236   3.263   3.284  12.874 -0.0489  0.8562 -0.5114
 5941TIP3   OH239237   0.949   4.652  13.571  0.4531  1.1130  0.1257
 5941TIP3    H139238   0.983   4.569  13.604 -1.1417  0.0898 -0.6607
 5941TIP3    H239239   0.855   4.650  13.590  0.2214  2.3268 -0.7054
 5942TIP3   OH239240   2.281   1.081  17.142  0.0690  0.0072  0.0566
 5942TIP3    H139241   2.222   1.009  17.121 -0.0876 -0.5695  2.2064
 5942TIP3    H239242   2.304   1.067  17.234  2.9954  0.6061 -0.4667
 5943TIP3   OH239243   5.935   0.056   6.242  0.0985  0.3492 -0.0977
 5943TIP3    H139244   5.874   0.123   6.210  0.9962  0.7768 -0.9917
 5943TIP3    H239245   5.972   0.093   6.322  0.9846  1.2076 -0.8667
 5944TIP3   OH239246   2.230   5.592  13.427 -0.3519 -0.3421  1.0404
 5944TIP3    H139247   2.320   5.562  13.410 -0.0996 -1.2475  3.5569
 5944TIP3    H239248   2.183   5.574  13.345  1.6731 -0.0808 -0.2614
 5945TIP3   OH239249   2.964   2.429  12.831  0.5560 -0.1804 -0.7625
 5945TIP3    H139250   2.888   2.384  12.866  1.8400 -1.6128  0.3382
 5945TIP3    H239251   3.005   2.365  12.772  2.4873 -0.6289  0.9376
 5946TIP3   OH239252   6.255   1.619  16.157  0.6737  0.0358 -0.4680
 5946TIP3    H139253   6.320   1.623  16.087 -0.3058  2.0955 -1.3827
 5946TIP3    H239254   6.303   1.592  16.234  2.0552 -1.0471 -1.6506
 5947TIP3   OH239255   1.992   5.474   6.006  0.0801  0.0355  0.2638
 5947TIP3    H139256   1.954   5.402   6.056 -0.0139 -0.3220 -0.3107
 5947TIP3    H239257   1.920   5.535   5.992 -0.0023 -0.0791  0.1842
 5948TIP3   OH239258   6.473   5.132   6.371 -0.1042  0.2898 -0.2613
 5948TIP3    H139259   6.531   5.073   6.420  0.7367 -0.1775 -1.7474
 5948TIP3    H239260   6.391   5.084   6.363  1.5020 -2.2940 -4.2133
 5949TIP3   OH239261   1.898   4.110   4.997  0.3077 -0.4275  0.0345
 5949TIP3    H139262   1.992   4.112   5.015  0.4245  1.2161 -0.5285
 5949TIP3    H239263   1.864   4.186   5.043 -1.1868 -2.2343  2.1190
 5950TIP3   OH239264   5.318   2.170  15.167  0.2870  0.9111 -1.0307
 5950TIP3    H139265   5.300   2.083  15.131  1.9786  0.6963 -1.4228
 5950TIP3    H239266   5.271   2.230  15.110 -1.2824  0.2567 -0.4904
 5951TIP3   OH239267   6.663   6.290  10.933  0.5164 -0.0848 -0.5347
 5951TIP3    H139268   6.647   6.341  10.853 -2.7317  1.9240  1.2031
 5951TIP3    H239269   6.603   6.217  10.928 -0.4224  0.5956  0.4628
 5952TIP3   OH239270   1.155   4.050  16.450 -0.0665 -0.2951 -0.1358
 5952TIP3    H139271   1.215   4.100  16.396 -0.2284 -0.2729 -0.2996
 5952TIP3    H239272   1.074   4.046  16.398 -0.1070 -0.5823 -0.0529
 5953TIP3   OH239273   4.671   1.930   0.821  0.0460 -0.8695 -0.6730
 5953TIP3    H139274   4.740   1.883   0.774  0.4324  0.8945 -1.9766
 5953TIP3    H239275   4.595   1.925   0.763 -0.0838 -0.4308 -0.5486
 5954TIP3   OH239276   4.696   0.064  12.644  0.0075  0.0534  0.4023
 5954TIP3    H139277   4.694  -0.030  12.629  1.2128 -0.2503  1.9389
 5954TIP3    H239278   4.682   0.102  12.557  1.1873 -1.5387 -0.5519
 5955TIP3   OH239279   4.388   1.742  10.726 -0.4484  0.5816 -0.0585
 5955TIP3    H139280   4.298   1.746  10.694 -0.3855  2.0149 -0.1134
 5955TIP3    H239281   4.431   1.817  10.685  0.4209  0.6905  1.0128
 5956TIP3   OH239282   0.545   5.627   5.932 -0.7079  0.5236 -0.0519
 5956TIP3    H139283   0.541   5.536   5.902 -1.1495  0.8249 -0.9445
 5956TIP3    H239284   0.492   5.628   6.012  0.4271 -0.2793  0.7355
 5957TIP3   OH239285   5.891   2.941  15.906 -0.1582  0.4089  0.0689
 5957TIP3    H139286   5.892   3.036  15.893  0.0343  0.5101  0.7680
 5957TIP3    H239287   5.982   2.913  15.893  0.6447  0.8887  3.5660
 5958TIP3   OH239288   5.640   5.800   4.526 -0.2152  0.1622  0.0807
 5958TIP3    H139289   5.665   5.727   4.468 -0.3507  1.2221 -1.3703
 5958TIP3    H239290   5.697   5.872   4.498 -0.4169  0.7506  1.1649
 5959TIP3   OH239291   3.000   2.941  16.153  0.2501  0.0715  0.4145
 5959TIP3    H139292   2.955   2.914  16.073 -1.0790  1.0025  0.8038
 5959TIP3    H239293   3.077   2.886  16.158 -1.0455 -1.8863 -0.0924
 5960TIP3   OH239294   2.634   4.207  12.381  0.4697  0.6150  0.0764
 5960TIP3    H139295   2.728   4.192  12.396  0.2934 -1.2924 -0.4978
 5960TIP3    H239296   2.612   4.149  12.309 -1.5580 -0.3933  1.4301
 5961TIP3   OH239297   5.472   5.536   6.470 -0.2987 -0.4886  0.2481
 5961TIP3    H139298   5.508   5.554   6.558  0.3110  2.4492 -0.4869
 5961TIP3    H239299   5.381   5.565   6.475  0.0770  0.9043 -0.3585
 5962TIP3   OH239300   0.357   3.782  11.546 -0.1263 -0.3138 -0.2040
 5962TIP3    H139301   0.338   3.876  11.547  1.3271  0.0081  0.0638
 5962TIP3    H239302   0.367   3.758  11.638 -0.7316 -0.7892 -0.2590
 5963TIP3   OH239303   5.515   4.870   6.684  0.1054  0.5614 -0.2846
 5963TIP3    H139304   5.461   4.944   6.709  1.7152  1.4964  0.5396
 5963TIP3    H239305   5.518   4.814   6.762 -0.8255 -0.2393 -0.7939
 5964TIP3   OH239306   6.306   4.873   0.929 -0.6290 -0.2679 -0.2484
 5964TIP3    H139307   6.325   4.779   0.922  0.2684 -0.3641  2.4728
 5964TIP3    H239308   6.216   4.877   0.960  0.6613 -0.5697  4.2381
 5965TIP3   OH239309   6.087   5.439   1.100  0.7387 -0.0733 -0.3006
 5965TIP3    H139310   6.110   5.424   1.008 -0.9571 -0.7057 -0.6599
 5965TIP3    H239311   6.162   5.405   1.149  1.2195 -0.7090 -1.4260
 5966TIP3   OH239312   4.442   3.003   4.257  0.3828 -0.4638 -0.2331
 5966TIP3    H139313   4.469   2.927   4.308 -1.3145 -1.2907 -0.4782
 5966TIP3    H239314   4.398   2.966   4.180  3.1138  0.7141 -2.5504
 5967TIP3   OH239315   3.680   6.142   0.035  0.1299 -0.6960 -0.0814
 5967TIP3    H139316   3.588   6.118   0.026 -0.7184  2.3776 -1.1993
 5967TIP3    H239317   3.685   6.189   0.119  1.0166 -1.9936  0.6200
 5968TIP3   OH239318   3.501   4.707   2.619 -0.1535  0.3193  0.0209
 5968TIP3    H139319   3.445   4.765   2.671 -0.3088 -0.2148  0.4562
 5968TIP3    H239320   3.529   4.639   2.680  1.7018  1.0464  0.0444
 5969TIP3   OH239321   0.314   2.588  16.375 -0.3439 -0.0633 -0.4031
 5969TIP3    H139322   0.401   2.624  16.360 -0.8121  1.9762  1.3598
 5969TIP3    H239323   0.297   2.603  16.468 -1.9200 -1.9801 -0.2948
 5970TIP3   OH239324   1.041   0.810  12.627 -0.1274  0.0676 -0.3638
 5970TIP3    H139325   1.106   0.740  12.632 -0.1024  0.1335  0.3797
 5970TIP3    H239326   1.086   0.881  12.581  0.5806  0.3700  0.7453
 5971TIP3   OH239327   2.739   1.249   3.745  0.5167  0.2802  0.7955
 5971TIP3    H139328   2.728   1.312   3.673 -0.0102 -0.7606 -0.0575
 5971TIP3    H239329   2.679   1.178   3.724  2.9048 -1.7473  0.3553
 5972TIP3   OH239330   3.217   5.354  12.635  0.3737  0.5720 -0.6713
 5972TIP3    H139331   3.281   5.420  12.665  0.2028 -0.1688  1.4929
 5972TIP3    H239332   3.270   5.287  12.592  0.7226  1.3459 -1.4709
 5973TIP3   OH239333   4.005   3.779   0.693  0.2407 -0.4287 -0.1386
 5973TIP3    H139334   4.056   3.804   0.615  1.4568 -0.8949  0.4709
 5973TIP3    H239335   3.943   3.715   0.661  0.0748  0.0979 -0.9013
 5974TIP3   OH239336   0.097   6.032  12.484  0.1659  0.2320  0.2347
 5974TIP3    H139337   0.062   6.103  12.539  0.6649  0.3672  0.3886
 5974TIP3    H239338   0.176   6.069  12.445  0.5299 -0.2925  0.4536
 5975TIP3   OH239339   4.312   3.385  16.433 -0.4124 -0.4829 -0.2636
 5975TIP3    H139340   4.381   3.392  16.367 -1.8383  1.0672 -1.6962
 5975TIP3    H239341   4.233   3.366  16.382 -1.2460 -1.0355  1.2002
 5976TIP3   OH239342   2.057   6.731   3.509 -0.1847 -0.2002  0.2740
 5976TIP3    H139343   2.052   6.725   3.604 -0.0073  0.4201  0.3246
 5976TIP3    H239344   1.988   6.672   3.477  0.4409 -1.2293  0.7635
 5977TIP3   OH239345   1.504   4.721  14.455  0.2162  0.4081  0.3744
 5977TIP3    H139346   1.527   4.630  14.441  0.4284  0.6018 -0.6779
 5977TIP3    H239347   1.414   4.719  14.488  0.1820 -0.1718  0.2490
 5978TIP3   OH239348   1.229   4.631   5.650 -0.6555  0.2190  0.2532
 5978TIP3    H139349   1.257   4.540   5.635  1.3182  1.1641 -2.7848
 5978TIP3    H239350   1.300   4.670   5.701 -1.4502  0.1422  1.4626
 5979TIP3   OH239351   5.175   3.914  13.895 -0.2393  0.4445  0.3453
 5979TIP3    H139352   5.173   3.831  13.849 -0.9680  0.9329 -0.5204
 5979TIP3    H239353   5.163   3.980  13.827 -1.4045  1.1825  1.2271
 5980TIP3   OH239354   3.767   4.488   4.097 -0.0306  0.5913 -0.0051
 5980TIP3    H139355   3.748   4.414   4.038 -1.3314  1.0891 -0.2509
 5980TIP3    H239356   3.742   4.457   4.184 -1.3608  1.0010 -0.2261
 5981TIP3   OH239357   5.985   4.090  16.467 -0.2412  0.5726 -0.6467
 5981TIP3    H139358   6.031   4.032  16.407 -0.8466  0.1737 -0.7340
 5981TIP3    H239359   5.980   4.174  16.421  3.2222  1.6558  0.6207
 5982TIP3   OH239360   3.415   5.614   0.269  0.3795 -0.2613  0.2663
 5982TIP3    H139361   3.350   5.656   0.325  0.2021 -2.1362  1.5285
 5982TIP3    H239362   3.420   5.671   0.192 -1.2840  0.9764  1.0161
 5983TIP3   OH239363   2.203   4.524   5.899 -0.4232  0.0791 -0.2115
 5983TIP3    H139364   2.140   4.597   5.896 -0.2334  0.2463 -0.1804
 5983TIP3    H239365   2.206   4.500   5.991 -1.0330 -0.4535 -0.3212
 5984TIP3   OH239366   1.641   3.313  13.790  0.3503 -0.1472 -0.0388
 5984TIP3    H139367   1.605   3.358  13.714  1.8614 -0.7000 -1.1363
 5984TIP3    H239368   1.566   3.271  13.831 -0.7327  1.4163 -0.3301
 5985TIP3   OH239369   5.862   1.677  15.192 -0.0749  0.3725 -0.3625
 5985TIP3    H139370   5.925   1.642  15.129 -0.1311 -0.6899  0.1446
 5985TIP3    H239371   5.814   1.600  15.223  1.1886  0.5567  2.3405
 5986TIP3   OH239372   5.975   4.605  16.213 -0.2909 -0.4393 -0.4871
 5986TIP3    H139373   6.031   4.527  16.221  1.8065  0.6530 -2.9577
 5986TIP3    H239374   6.034   4.678  16.231 -1.4906  0.6679 -0.9561
 5987TIP3   OH239375   4.665   1.424  16.408  0.3881 -0.0013 -0.3513
 5987TIP3    H139376   4.686   1.376  16.328  0.8991 -1.7477  0.7584
 5987TIP3    H239377   4.632   1.357  16.468  0.3760  1.1859  1.0355
 5988TIP3   OH239378   2.254   2.042  15.926  0.6768 -0.5865 -0.0772
 5988TIP3    H139379   2.285   2.099  15.856 -0.3529 -0.5217 -0.4950
 5988TIP3    H239380   2.301   1.959  15.912  0.6299 -0.5090 -0.7328
 5989TIP3   OH239381   0.524   4.640  12.847 -0.4299 -0.3091  0.6126
 5989TIP3    H139382   0.556   4.699  12.915  0.7374  0.4212 -0.5240
 5989TIP3    H239383   0.601   4.592  12.817 -0.8832 -0.5067 -0.2889
 5990TIP3   OH239384   1.773   2.868  16.382 -0.0573 -0.3494  0.3503
 5990TIP3    H139385   1.807   2.793  16.332 -0.3381 -0.5381  0.4439
 5990TIP3    H239386   1.730   2.923  16.316  0.1207 -0.2854  0.2876
 5991TIP3   OH239387   1.762   2.362  15.705  0.3311  0.1300  0.1128
 5991TIP3    H139388   1.839   2.306  15.693  2.0261  1.5307  3.2870
 5991TIP3    H239389   1.736   2.347  15.796 -0.4503  2.8891  0.4243
 5992TIP3   OH239390   1.406   0.561  14.566 -0.1371 -0.3155 -0.2178
 5992TIP3    H139391   1.341   0.631  14.556 -1.1378 -1.3264 -0.9316
 5992TIP3    H239392   1.464   0.571  14.491  2.0886  2.0738  1.6021
 5993TIP3   OH239393   0.673   6.005  12.729 -0.0761  0.0036 -0.2430
 5993TIP3    H139394   0.662   6.046  12.815 -0.0648  0.5672 -0.5086
 5993TIP3    H239395   0.754   6.041  12.694  1.3358 -2.1801  0.5844
 5994TIP3   OH239396   0.810   1.632  11.081 -0.4124 -0.0527 -0.5197
 5994TIP3    H139397   0.726   1.585  11.076  0.1085 -0.9126 -1.5848
 5994TIP3    H239398   0.875   1.567  11.054  0.8348  0.0912  1.9002
 5995TIP3   OH239399   2.165   0.906  13.080  0.3808 -0.3550 -0.1325
 5995TIP3    H139400   2.120   0.941  13.157 -2.4832 -1.5712 -1.1077
 5995TIP3    H239401   2.147   0.970  13.011  0.5193 -0.6365 -0.4323
 5996TIP3   OH239402   0.876   3.487   1.178 -0.0081  0.3927  0.0838
 5996TIP3    H139403   0.831   3.558   1.224  1.5096 -0.1014  2.5303
 5996TIP3    H239404   0.864   3.411   1.235 -0.0548 -0.8985 -1.5756
 5997TIP3   OH239405   2.782   3.438   3.731 -0.3292  0.1996  0.4127
 5997TIP3    H139406   2.697   3.482   3.734 -0.9380 -0.9027  0.1717
 5997TIP3    H239407   2.760   3.345   3.737  0.8103 -0.1379 -0.3623
 5998TIP3   OH239408   3.224   4.559   6.401  0.0095  0.0007  0.1109
 5998TIP3    H139409   3.196   4.619   6.469  1.5066  0.7140  0.1166
 5998TIP3    H239410   3.224   4.611   6.321  0.3794 -0.2409 -0.0521
 5999TIP3   OH239411   0.886   5.785  14.741  0.2897 -0.0441  0.1582
 5999TIP3    H139412   0.936   5.773  14.660 -0.5751 -2.5406 -0.0943
 5999TIP3    H239413   0.855   5.876  14.736  2.7882  0.8383 -0.7723
 6000TIP3   OH239414   1.887   5.668  11.235 -0.6792 -0.4388  0.0116
 6000TIP3    H139415   1.964   5.626  11.273 -0.8853 -1.9344 -1.1262
 6000TIP3    H239416   1.825   5.596  11.221 -1.5514  0.4420 -0.7956
 6001TIP3   OH239417   3.111   1.453   5.228  0.0804 -0.0651 -0.3054
 6001TIP3    H139418   3.117   1.495   5.313 -2.8511  1.3679 -0.6620
 6001TIP3    H239419   3.029   1.404   5.231  0.3376 -0.6771 -2.0127
 6002TIP3   OH239420   0.580   0.344   3.524  0.1713  0.4127 -1.1910
 6002TIP3    H139421   0.669   0.324   3.552  0.9324  0.4141 -3.3839
 6002TIP3    H239422   0.574   0.439   3.527 -0.5681  0.3556  1.0788
 6003TIP3   OH239423   5.228   4.581   4.239  0.4586 -0.2188  0.3864
 6003TIP3    H139424   5.245   4.497   4.197  0.2292 -0.1174  0.0915
 6003TIP3    H239425   5.134   4.594   4.232  0.4024 -0.2346  1.0024
 6004TIP3   OH239426   5.344   5.455  12.710 -0.0912  0.2180  0.2122
 6004TIP3    H139427   5.302   5.378  12.670 -1.0735  0.0900  1.4114
 6004TIP3    H239428   5.327   5.444  12.804 -0.6244  2.1129  0.3744
 6005TIP3   OH239429   0.269   1.299  15.212  0.5810 -0.3526 -0.0347
 6005TIP3    H139430   0.336   1.344  15.161  0.5185 -1.8186 -1.4708
 6005TIP3    H239431   0.297   1.208  15.214  0.3810 -0.4277  2.2911
 6006TIP3   OH239432   0.626   5.718   6.933 -0.0682  0.1273  0.3311
 6006TIP3    H139433   0.716   5.728   6.902  1.0582 -1.4952  2.7953
 6006TIP3    H239434   0.633   5.718   7.028 -2.7565  0.3730  0.6074
 6007TIP3   OH239435   4.662   5.704  15.257  0.2260  0.4212  0.0748
 6007TIP3    H139436   4.620   5.627  15.294  1.5930 -0.7747 -0.7657
 6007TIP3    H239437   4.694   5.753  15.333 -0.3138 -0.0158  0.5977
 6008TIP3   OH239438   6.712   6.531   1.723 -0.6573 -0.0346  0.0435
 6008TIP3    H139439   6.702   6.621   1.752 -0.2941  0.1825 -0.4945
 6008TIP3    H239440   6.648   6.482   1.775 -0.0303  0.3348  1.1932
 6009TIP3   OH239441   0.894   0.244  14.355  0.1786  0.2390  0.0782
 6009TIP3    H139442   0.838   0.302  14.303 -0.0508  0.2019  0.2832
 6009TIP3    H239443   0.894   0.282  14.443 -0.9540 -0.7362  0.5144
 6010TIP3   OH239444   2.657   0.881  15.340 -0.6920  0.1666 -0.5076
 6010TIP3    H139445   2.741   0.871  15.297 -1.3895 -0.7858 -1.7129
 6010TIP3    H239446   2.627   0.968  15.312 -0.4415  0.1946 -0.6953
 6011TIP3   OH239447   0.145   0.912   3.655  0.0733  0.2065  0.2060
 6011TIP3    H139448   0.085   0.863   3.712 -0.7176  0.4565 -0.4024
 6011TIP3    H239449   0.105   0.909   3.569  0.9691  0.3419 -0.2291
 6012TIP3   OH239450   3.129   1.845  12.242 -0.0421  1.2328  0.4782
 6012TIP3    H139451   3.055   1.794  12.277 -1.4026  3.0349  0.3508
 6012TIP3    H239452   3.150   1.907  12.312  2.4677 -0.2051  1.1710
 6013TIP3   OH239453   4.591   0.839   5.338  0.1394 -0.6004  0.0224
 6013TIP3    H139454   4.622   0.772   5.276  0.9462 -1.4883  1.3331
 6013TIP3    H239455   4.671   0.875   5.376 -0.3471 -0.0372  0.5206
 6014TIP3   OH239456   1.677   4.519  16.642 -0.7292 -0.0474  0.0728
 6014TIP3    H139457   1.769   4.528  16.668 -1.1861  0.4252  1.6613
 6014TIP3    H239458   1.639   4.465  16.711 -1.7972  0.3966 -0.1566
 6015TIP3   OH239459   0.435   6.239  11.792 -0.3636 -0.3013  0.1456
 6015TIP3    H139460   0.388   6.259  11.712  1.1265  0.6870 -0.5383
 6015TIP3    H239461   0.498   6.172  11.767  0.9974  0.9306  0.1156
 6016TIP3   OH239462   2.865   2.368   6.503 -0.3746 -0.3251  0.5958
 6016TIP3    H139463   2.845   2.320   6.583 -0.0806 -0.6962  0.4534
 6016TIP3    H239464   2.961   2.368   6.499 -0.1449  3.1811  2.3607
 6017TIP3   OH239465   1.310   6.506  16.437  0.1109  0.3239 -0.0375
 6017TIP3    H139466   1.381   6.445  16.415  1.0486  0.5869  2.0408
 6017TIP3    H239467   1.354   6.588  16.457 -0.8636  0.7573  0.4130
 6018TIP3   OH239468   5.137   6.642   4.697  0.4727  0.2262 -0.5763
 6018TIP3    H139469   5.047   6.612   4.689  0.7531 -1.2935  1.3395
 6018TIP3    H239470   5.131   6.733   4.725 -0.5366 -0.4507  1.5768
 6019TIP3   OH239471   3.928   6.288  11.876 -0.8265  0.7828 -0.1385
 6019TIP3    H139472   3.865   6.289  11.948  0.0152  2.0448  0.6271
 6019TIP3    H239473   3.989   6.359  11.897  0.3887  0.1140 -1.2553
 6020TIP3   OH239474   2.193   2.624   3.728  0.5639  0.2420  0.6509
 6020TIP3    H139475   2.175   2.676   3.806 -0.9039  2.9358 -1.3033
 6020TIP3    H239476   2.152   2.540   3.746  2.8433 -0.3893  3.8659
 6021TIP3   OH239477   2.807   2.103  15.757  0.5423  0.1880 -0.5311
 6021TIP3    H139478   2.824   2.187  15.799 -1.2902 -0.9359  2.9074
 6021TIP3    H239479   2.723   2.115  15.713  2.3973  1.3242 -4.0735
 6022TIP3   OH239480   6.750   3.773  14.759  0.6207 -0.0643 -0.0226
 6022TIP3    H139481   6.772   3.782  14.851  0.2298  0.1298  0.0564
 6022TIP3    H239482   6.696   3.694  14.754 -1.0281  0.9934  0.2408
 6023TIP3   OH239483   3.008   2.026  13.494  0.1722  0.4659 -0.1786
 6023TIP3    H139484   3.042   1.937  13.505  0.8141  0.9469  2.3795
 6023TIP3    H239485   3.085   2.078  13.470 -0.4002  0.2144 -2.7947
 6024TIP3   OH239486   6.028   6.428  11.237 -0.5272 -0.1526  0.1325
 6024TIP3    H139487   6.052   6.466  11.152  0.8053  0.7532  0.8871
 6024TIP3    H239488   5.959   6.365  11.215  0.0849 -0.2768 -1.6847
 6025TIP3   OH239489   0.013   5.733   5.894 -0.2152  0.2153  0.2401
 6025TIP3    H139490   0.082   5.800   5.895 -0.9029  0.9392  0.5135
 6025TIP3    H239491   0.005   5.708   5.802  0.9361 -0.4516  0.2939
 6026TIP3   OH239492   5.400   2.209  16.079 -0.0760  0.2001 -0.3989
 6026TIP3    H139493   5.430   2.119  16.092 -0.8937  0.0339  0.4412
 6026TIP3    H239494   5.437   2.234  15.994 -0.8199 -1.3548 -1.2340
 6027TIP3   OH239495   4.449   4.276   5.798 -0.0378  0.7973 -0.1983
 6027TIP3    H139496   4.423   4.351   5.745 -0.5170 -0.7504 -2.3105
 6027TIP3    H239497   4.368   4.225   5.809  0.0291  1.0958  2.1686
 6028TIP3   OH239498   0.168   4.381  15.484 -0.1193  0.6792 -0.4360
 6028TIP3    H139499   0.245   4.436  15.496  1.3811 -1.1784 -1.0158
 6028TIP3    H239500   0.179   4.310  15.547  0.0844 -1.0362 -2.3042
 6029TIP3   OH239501   0.746   2.116   0.127 -0.4235  0.2939  0.8116
 6029TIP3    H139502   0.656   2.147   0.138 -1.7303 -2.8126 -0.0127
 6029TIP3    H239503   0.748   2.032   0.173  1.9224  0.0130  0.3236
 6030TIP3   OH239504   1.611   4.160  13.595 -0.4440 -0.1172 -0.1911
 6030TIP3    H139505   1.639   4.122  13.512 -1.3017 -0.0332 -0.5290
 6030TIP3    H239506   1.659   4.243  13.600 -0.2869 -0.1844 -0.5302
 6031TIP3   OH239507   3.573   3.740  16.101  0.3520  0.1948 -0.1269
 6031TIP3    H139508   3.619   3.819  16.129  0.6544 -0.0810  0.1610
 6031TIP3    H239509   3.480   3.760  16.116  0.2864  1.0855 -1.5464
 6032TIP3   OH239510   4.316   5.872   4.196  0.2116 -0.4861  0.3325
 6032TIP3    H139511   4.291   5.845   4.108  0.9112  0.0990 -0.0545
 6032TIP3    H239512   4.367   5.798   4.231  0.5422 -0.4297 -0.0268
 6033TIP3   OH239513   2.008   0.543   1.907 -0.6389  0.1399 -0.0446
 6033TIP3    H139514   2.001   0.449   1.926 -0.4420  0.4026  1.4255
 6033TIP3    H239515   1.936   0.560   1.845 -0.2796 -1.0846 -0.8437
 6034TIP3   OH239516   6.574   2.485  14.961 -0.5571 -0.6725  0.6660
 6034TIP3    H139517   6.480   2.468  14.958 -0.5342 -1.2461 -3.9308
 6034TIP3    H239518   6.615   2.399  14.954  0.3367 -0.3135  1.1640
 6035TIP3   OH239519   6.280   2.769   3.934  0.1920 -0.0912 -0.0238
 6035TIP3    H139520   6.225   2.745   4.009  1.0016 -0.2862  0.5108
 6035TIP3    H239521   6.230   2.739   3.858  1.7174 -5.0517  0.5920
 6036TIP3   OH239522   2.379   3.670  15.470  0.2530  0.6404  0.0003
 6036TIP3    H139523   2.444   3.685  15.539  0.7323 -1.4548  0.0820
 6036TIP3    H239524   2.313   3.738  15.485 -0.0107 -0.1040  2.9939
 6037TIP3   OH239525   6.313   0.165   5.082 -0.0352 -0.2501  0.0427
 6037TIP3    H139526   6.364   0.206   5.012  0.1554  0.2220  0.4589
 6037TIP3    H239527   6.243   0.228   5.100 -0.1895 -0.4543  0.1559
 6038TIP3   OH239528   5.147   1.208  14.436 -0.6049 -0.1519 -0.1505
 6038TIP3    H139529   5.128   1.209  14.530  0.2136  1.0404  0.0244
 6038TIP3    H239530   5.075   1.257  14.397 -0.0117  0.9788  0.0930
 6039TIP3   OH239531   3.055   2.055  11.226  0.5799  0.8646  0.7325
 6039TIP3    H139532   3.139   2.014  11.245 -1.1981 -3.4576  0.4672
 6039TIP3    H239533   3.062   2.083  11.135  1.6480  0.3995  0.6604
 6040TIP3   OH239534   5.173   2.227   5.715  0.0234  0.0596  0.0814
 6040TIP3    H139535   5.078   2.221   5.727  0.0024  1.7310  1.0082
 6040TIP3    H239536   5.184   2.250   5.623 -0.6396  2.2706  0.4902
 6041TIP3   OH239537   0.715   5.763  15.067 -0.6527 -0.2000 -0.1636
 6041TIP3    H139538   0.781   5.824  15.035 -1.9354  1.3576  0.0156
 6041TIP3    H239539   0.760   5.679  15.073  1.3794  0.8595  0.2405
 6042TIP3   OH239540   2.102   3.110  12.356 -0.3042  0.3530  0.0771
 6042TIP3    H139541   2.083   3.196  12.316  1.6278 -0.3790 -2.7270
 6042TIP3    H239542   2.173   3.127  12.417  1.2124  0.5858 -1.6756
 6043TIP3   OH239543   0.193   4.003  17.178  0.1158 -0.6770 -0.2613
 6043TIP3    H139544   0.137   3.928  17.195  0.2636 -1.1202 -1.5804
 6043TIP3    H239545   0.267   3.967  17.129  0.7648  0.1489  0.0810
 6044TIP3   OH239546   4.744   1.961  17.167 -0.0697 -0.2137 -0.3347
 6044TIP3    H139547   4.784   2.048  17.174  1.6331 -0.8500 -1.6392
 6044TIP3    H239548   4.755   1.937  17.076  0.2875 -2.1870  0.1925
 6045TIP3   OH239549   0.367   6.755  13.432  0.7130 -0.8057  0.1135
 6045TIP3    H139550   0.379   6.723  13.343  1.9179 -0.3421  0.0778
 6045TIP3    H239551   0.449   6.802  13.451  0.2321 -0.3920  1.2451
 6046TIP3   OH239552   6.281   6.280   3.244  0.5057  0.2030 -0.2797
 6046TIP3    H139553   6.290   6.242   3.331 -0.0460  2.2755  0.7471
 6046TIP3    H239554   6.354   6.244   3.194  1.1658 -0.5896  1.2019
 6047TIP3   OH239555   6.616   2.299   6.216  0.4736  0.2243  0.5052
 6047TIP3    H139556   6.561   2.338   6.149  1.4599 -0.8226 -0.9769
 6047TIP3    H239557   6.574   2.215   6.236  0.1080  0.5882  1.3271
 6048TIP3   OH239558   3.421   0.546   4.245  0.2509 -0.1765  0.3542
 6048TIP3    H139559   3.482   0.496   4.299 -1.4327 -3.3518 -0.4045
 6048TIP3    H239560   3.370   0.598   4.308  0.8075 -0.8963  1.4257
 6049TIP3   OH239561   3.848   1.852  15.910  0.1386  0.1533  0.0137
 6049TIP3    H139562   3.802   1.895  15.837 -0.1773 -1.4122 -0.7570
 6049TIP3    H239563   3.940   1.852  15.882  0.0134 -0.4802 -0.4295
 6050TIP3   OH239564   2.806   5.295   6.324 -0.5201  0.1856 -0.5832
 6050TIP3    H139565   2.873   5.327   6.384 -2.9417 -1.9245  3.8128
 6050TIP3    H239566   2.850   5.228   6.272  1.1644  0.1038  0.8552
 6051TIP3   OH239567   2.040   3.118   3.597  0.2109 -0.1171 -0.5580
 6051TIP3    H139568   1.965   3.072   3.637 -1.0699  0.7510 -1.8440
 6051TIP3    H239569   2.031   3.100   3.503 -0.0980  2.3395 -1.0666
 6052TIP3   OH239570   1.190   6.340  11.392  0.0443  0.5083  0.5307
 6052TIP3    H139571   1.131   6.284  11.342 -0.5051  0.7876  0.8576
 6052TIP3    H239572   1.277   6.320  11.358 -0.0592 -1.0149  1.0673
 6053TIP3   OH239573   2.313   1.734  16.353  0.0709 -0.2466  0.7306
 6053TIP3    H139574   2.333   1.649  16.312 -2.4075 -0.8002  0.5282
 6053TIP3    H239575   2.333   1.798  16.285 -1.9510 -1.0110 -0.6795
 6054TIP3   OH239576   4.395   1.077  15.781  0.3038  0.2266 -0.1669
 6054TIP3    H139577   4.450   1.118  15.714  2.4649 -0.1049  1.3005
 6054TIP3    H239578   4.324   1.139  15.795  0.7092  1.0680 -1.5888
 6055TIP3   OH239579   3.953   5.640  12.362  0.3142 -0.3078  0.2961
 6055TIP3    H139580   3.982   5.695  12.289  0.2386  1.6712  1.6594
 6055TIP3    H239581   4.015   5.659  12.432  0.1106 -1.7973  0.9208
 6056TIP3   OH239582   0.884   6.347  11.916  0.4856  0.0122  0.0572
 6056TIP3    H139583   0.797   6.306  11.922  0.4725 -0.1985 -1.3048
 6056TIP3    H239584   0.911   6.332  11.826  2.8328 -1.7325  0.9327
 6057TIP3   OH239585   2.371   2.113   5.578  0.3168 -0.2555 -0.5877
 6057TIP3    H139586   2.295   2.168   5.561  2.7849  3.7631  0.0217
 6057TIP3    H239587   2.336   2.034   5.617 -3.5632  0.8387 -1.4810
 6058TIP3   OH239588   5.543   0.782   1.147  0.1634 -0.0970  0.1737
 6058TIP3    H139589   5.577   0.767   1.235  0.7336 -0.3675 -0.0840
 6058TIP3    H239590   5.583   0.713   1.094 -1.7170 -1.1557  0.0734
 6059TIP3   OH239591   1.449   6.413   1.025 -0.7680 -0.1887 -0.1609
 6059TIP3    H139592   1.444   6.318   1.020 -0.3043 -0.2085 -0.2756
 6059TIP3    H239593   1.389   6.437   1.096  0.5741 -0.7107  1.1875
 6060TIP3   OH239594   4.441   4.990   4.593  0.4228  0.2855 -0.9732
 6060TIP3    H139595   4.446   4.997   4.498 -0.1662 -1.5623 -1.1757
 6060TIP3    H239596   4.416   4.899   4.609  0.6736  0.5211  0.9600
 6061TIP3   OH239597   6.212   4.500  15.783 -0.0561 -0.3294  0.4637
 6061TIP3    H139598   6.277   4.529  15.720 -0.7426  0.2714  0.0136
 6061TIP3    H239599   6.187   4.412  15.754 -1.7354  0.6345 -1.2670
 6062TIP3   OH239600   2.046   0.543  11.572 -0.3524 -0.0209 -0.0282
 6062TIP3    H139601   1.975   0.479  11.587  1.1460 -1.4724  1.2807
 6062TIP3    H239602   2.002   0.628  11.574 -2.2357 -0.9286 -0.5216
 6063TIP3   OH239603   5.302   5.261  14.698  0.8199 -0.0451  0.1985
 6063TIP3    H139604   5.381   5.309  14.722 -0.2373  1.4129  0.8906
 6063TIP3    H239605   5.235   5.292  14.758 -0.2439 -1.4599 -0.1810
 6064TIP3   OH239606   5.137   1.960   2.667 -0.8177  0.3232 -0.0731
 6064TIP3    H139607   5.135   2.030   2.602 -2.2131  0.1303 -0.2681
 6064TIP3    H239608   5.176   2.000   2.744  1.0078  0.5158 -1.0531
 6065TIP3   OH239609   1.436   1.628  16.645 -0.0189 -0.1742  0.3274
 6065TIP3    H139610   1.446   1.723  16.655 -1.8082  0.3566 -2.0616
 6065TIP3    H239611   1.357   1.608  16.696 -0.5669 -0.0858 -0.4817
 6066TIP3   OH239612   3.394   5.512  13.535 -0.5037 -0.0930  0.0911
 6066TIP3    H139613   3.393   5.605  13.558 -2.6084  0.2565 -1.1799
 6066TIP3    H239614   3.484   5.497  13.504  0.4181  1.0101  2.0133
 6067TIP3   OH239615   2.914   1.871   4.581  0.1142 -0.5782  0.5142
 6067TIP3    H139616   2.865   1.950   4.557  2.1492  1.4671  2.5927
 6067TIP3    H239617   2.873   1.801   4.529 -1.0964  1.9548 -2.2627
 6068TIP3   OH239618   4.744   2.575   2.678 -0.1868 -0.1305 -0.0754
 6068TIP3    H139619   4.661   2.531   2.698  0.2523 -1.0318 -0.1648
 6068TIP3    H239620   4.765   2.624   2.758 -0.8259  0.1488 -0.0715
 6069TIP3   OH239621   6.438   6.102  16.407  0.4664  0.2549  0.3875
 6069TIP3    H139622   6.410   6.099  16.498  1.8550 -2.0152  0.8304
 6069TIP3    H239623   6.525   6.141  16.409 -0.2657  2.0266 -0.2656
 6070TIP3   OH239624   4.029   5.230  10.591 -0.6922 -0.1389  0.1857
 6070TIP3    H139625   4.084   5.304  10.616 -0.9828  0.1086  0.1021
 6070TIP3    H239626   3.940   5.259  10.611 -0.8438 -0.3093 -0.2319
 6071TIP3   OH239627   3.180   0.558  14.011 -0.1173 -0.7534 -0.1284
 6071TIP3    H139628   3.226   0.637  13.983 -1.8227  0.2297 -0.3084
 6071TIP3    H239629   3.235   0.520  14.079  3.0917 -1.9994 -3.1197
 6072TIP3   OH239630   5.018   5.586  15.393 -0.3550  0.0727  0.2079
 6072TIP3    H139631   5.023   5.614  15.302  2.0535 -1.2960 -0.1681
 6072TIP3    H239632   5.110   5.578  15.421 -0.9382 -2.7256  1.6996
 6073TIP3   OH239633   4.661   1.779  13.705  0.3240  0.6761  0.4184
 6073TIP3    H139634   4.722   1.786  13.778 -0.8646 -1.2380  1.7008
 6073TIP3    H239635   4.600   1.853  13.717 -0.4825 -0.1894  2.0568
 6074TIP3   OH239636   1.769   2.708   0.022 -0.1806 -0.1003  0.2212
 6074TIP3    H139637   1.821   2.754   0.088 -2.4381 -0.4348  2.3396
 6074TIP3    H239638   1.780   2.761  -0.057  1.8587  0.8372  1.0552
 6075TIP3   OH239639   1.078   1.897  13.183 -0.6173  0.3199  0.2126
 6075TIP3    H139640   1.034   1.813  13.172  0.9612 -0.5698  0.4713
 6075TIP3    H239641   1.126   1.909  13.101 -1.8755  1.6443 -0.3777
 6076TIP3   OH239642   5.887   1.995  13.832  0.0550 -0.3621  0.2473
 6076TIP3    H139643   5.814   2.039  13.875 -0.4570  0.4118 -1.3552
 6076TIP3    H239644   5.855   1.907  13.812  0.3691 -0.8047  1.5734
 6077TIP3   OH239645   6.562   6.203   1.156  0.0750 -0.0045  0.1690
 6077TIP3    H139646   6.652   6.233   1.143 -0.2269  0.6977 -0.3812
 6077TIP3    H239647   6.569   6.128   1.216  1.0620 -0.2173 -0.2012
 6078TIP3   OH239648   3.008   0.826  12.055 -0.0070  0.2412 -0.2091
 6078TIP3    H139649   2.984   0.917  12.073  0.6079  0.3765 -0.0569
 6078TIP3    H239650   2.989   0.814  11.962 -0.5402  0.3807 -0.1207
 6079TIP3   OH239651   2.071   4.090  15.302 -0.0482 -0.6669 -0.7550
 6079TIP3    H139652   2.127   4.062  15.229  0.4754  1.5184 -1.2956
 6079TIP3    H239653   2.086   4.185  15.307 -2.1628 -0.3382  0.4317
 6080TIP3   OH239654   6.035   3.478  15.831 -0.1017 -0.0391  0.1273
 6080TIP3    H139655   6.012   3.521  15.749 -0.0764  1.1081  0.7012
 6080TIP3    H239656   5.979   3.520  15.897  0.3252 -0.4982  0.7989
 6081TIP3   OH239657   3.307   5.021   4.594  0.4852 -0.0717  0.1770
 6081TIP3    H139658   3.295   4.931   4.564 -2.0086  0.3051 -0.1354
 6081TIP3    H239659   3.250   5.073   4.538  1.5748  1.6761  0.6165
 6082TIP3   OH239660   4.658   6.332  13.012 -0.2981  0.0730  0.3179
 6082TIP3    H139661   4.594   6.262  13.008  0.9798 -1.2161  1.5808
 6082TIP3    H239662   4.743   6.289  13.000  0.3662  1.9197 -3.3417
 6083TIP3   OH239663   3.020   3.501  16.295  0.1361  0.4338  0.0988
 6083TIP3    H139664   3.059   3.513  16.381  0.2809 -0.7863  0.2199
 6083TIP3    H239665   2.979   3.415  16.299  0.6878  0.0801 -1.2490
 6084TIP3   OH239666   4.288   0.832  17.053  0.1740 -0.0242  0.7041
 6084TIP3    H139667   4.200   0.820  17.089  0.8817  1.5086  3.1498
 6084TIP3    H239668   4.334   0.751  17.075  0.3921  0.6208  2.7677
 6085TIP3   OH239669   1.501   1.689  15.536  0.2233 -0.2372 -0.0713
 6085TIP3    H139670   1.579   1.741  15.554  0.1739  0.0377 -0.6225
 6085TIP3    H239671   1.520   1.644  15.453  0.1811 -0.9317  0.2922
 6086TIP3   OH239672   4.759   2.216   3.564  0.4736  0.5587  0.6727
 6086TIP3    H139673   4.793   2.287   3.619  0.6664  1.2571 -0.3180
 6086TIP3    H239674   4.663   2.226   3.570  0.4962  1.5202 -0.1975
 6087TIP3   OH239675   6.727   0.628  13.065  0.0149 -0.1557 -0.1355
 6087TIP3    H139676   6.761   0.696  13.123  0.3363 -0.5853  0.1853
 6087TIP3    H239677   6.746   0.546  13.111  0.0613 -0.4869 -0.7373
 6088TIP3   OH239678   1.727   1.071   2.014 -0.4647  0.3719 -0.1341
 6088TIP3    H139679   1.688   1.105   1.934 -0.0855  2.3652  0.4615
 6088TIP3    H239680   1.806   1.025   1.985 -1.0746 -0.1394 -1.0024
 6089TIP3   OH239681   0.918   2.009  14.018 -0.2248  0.4249  0.1955
 6089TIP3    H139682   0.864   2.088  14.019  0.8738  1.1960  0.7115
 6089TIP3    H239683   0.876   1.952  13.953 -1.2309  1.2859  0.0632
 6090TIP3   OH239684   2.616   0.184  16.183 -0.1789 -0.1201 -0.1692
 6090TIP3    H139685   2.658   0.220  16.261 -1.2714 -1.0019  0.8767
 6090TIP3    H239686   2.550   0.123  16.217 -1.0325 -0.1634 -1.7765
 6091TIP3   OH239687   4.911   3.696   6.568 -0.1150  0.2759 -0.1324
 6091TIP3    H139688   4.896   3.676   6.476  1.2748  1.1896 -0.5871
 6091TIP3    H239689   4.847   3.642   6.615 -0.8480 -0.2037 -1.6154
 6092TIP3   OH239690   0.111   3.150   5.773  0.2383  0.1611 -0.2190
 6092TIP3    H139691   0.127   3.125   5.864 -0.8216 -0.0636 -0.0814
 6092TIP3    H239692   0.173   3.220   5.756  0.8059 -0.1577  0.5154
 6093TIP3   OH239693   4.453   2.623   5.512  0.3312 -0.0643  1.1439
 6093TIP3    H139694   4.533   2.584   5.478  0.0979 -0.6489  1.2465
 6093TIP3    H239695   4.453   2.713   5.479 -0.9416 -1.1463 -2.2374
 6094TIP3   OH239696   3.248   1.508   4.220 -0.4602  0.0194 -0.1756
 6094TIP3    H139697   3.278   1.477   4.305 -0.9910 -0.3566 -0.1193
 6094TIP3    H239698   3.328   1.526   4.171 -0.1396  1.5060  0.8471
 6095TIP3   OH239699   0.367   0.358  12.822 -0.2988  0.1276  0.0611
 6095TIP3    H139700   0.365   0.339  12.728  0.5072  0.8330 -0.1211
 6095TIP3    H239701   0.283   0.328  12.855 -1.0670  0.9309 -1.1026
 6096TIP3   OH239702   3.132   6.045  13.838 -0.1236  0.1791  0.4450
 6096TIP3    H139703   3.065   5.995  13.792  1.0460 -0.7192 -0.3315
 6096TIP3    H239704   3.110   6.035  13.931  0.7581 -2.9338  0.4368
 6097TIP3   OH239705   5.133   3.025  13.442 -0.2803  0.2063 -0.2843
 6097TIP3    H139706   5.219   3.018  13.399 -0.1919 -0.7310  0.0137
 6097TIP3    H239707   5.074   2.978  13.384 -0.5051  0.4468 -0.2514
 6098TIP3   OH239708   1.292   2.270  16.479 -0.2501  0.0638  0.0843
 6098TIP3    H139709   1.307   2.351  16.429  1.6698 -0.2878  0.0243
 6098TIP3    H239710   1.212   2.287  16.528  0.0578  1.9871  0.0122
 6099TIP3   OH239711   2.990   1.601   0.476 -0.2765 -0.1031 -0.1136
 6099TIP3    H139712   2.969   1.680   0.525  0.3604  0.5701 -0.8871
 6099TIP3    H239713   3.074   1.621   0.434  0.3790 -1.5494  0.4349
 6100TIP3   OH239714   1.541   4.969   1.632  0.1489 -0.0708 -0.0577
 6100TIP3    H139715   1.554   5.000   1.721  1.1308 -1.5349  0.3388
 6100TIP3    H239716   1.504   4.881   1.642  2.2918 -1.1731 -0.9880
 6101TIP3   OH239717   6.722   1.718  11.419 -0.5566  0.1839  0.0931
 6101TIP3    H139718   6.712   1.811  11.439 -0.9577  0.1213  0.1878
 6101TIP3    H239719   6.786   1.687  11.483 -2.1422 -0.1039  1.6166
 6102TIP3   OH239720   4.130   6.583   0.247  0.6858 -0.1162  0.2837
 6102TIP3    H139721   4.201   6.534   0.289 -0.2657 -2.1055 -0.3516
 6102TIP3    H239722   4.144   6.673   0.277  3.0775 -0.5438  0.6990
 6103TIP3   OH239723   2.222   3.151  11.971  0.7351  0.4191 -0.1454
 6103TIP3    H139724   2.258   3.147  11.883  0.4843 -1.2916 -0.2188
 6103TIP3    H239725   2.297   3.132  12.028  0.6473  0.2627 -0.0800
 6104TIP3   OH239726   1.698   5.249   2.453  0.6830 -0.1810 -0.0578
 6104TIP3    H139727   1.733   5.178   2.399 -0.0481 -1.4004  1.0150
 6104TIP3    H239728   1.723   5.227   2.543 -0.8834  0.0697  0.4829
 6105TIP3   OH239729   0.265   0.493   3.649 -0.0900 -0.3583  0.7328
 6105TIP3    H139730   0.189   0.437   3.634 -0.5255 -0.0925  1.8274
 6105TIP3    H239731   0.295   0.518   3.561 -1.0100 -0.8079  0.2826
 6106TIP3   OH239732   2.186   0.071   4.296  1.0723  0.0457  0.2689
 6106TIP3    H139733   2.187   0.159   4.334 -1.3106 -0.8794  2.7895
 6106TIP3    H239734   2.094   0.055   4.277  1.6175 -1.4945 -1.3142
 6107TIP3   OH239735   0.945   2.345   5.856  0.6902 -0.3160  0.0716
 6107TIP3    H139736   0.989   2.260   5.851  1.2025 -0.0656  0.3886
 6107TIP3    H239737   0.928   2.359   5.949  0.2311 -0.2577 -0.0161
 6108TIP3   OH239738   2.329   1.846   3.111  0.2805 -0.0505  0.1138
 6108TIP3    H139739   2.253   1.872   3.163 -0.6116 -0.6290 -0.8541
 6108TIP3    H239740   2.376   1.784   3.166  1.1140  1.6866  1.4756
 6109TIP3   OH239741   0.422   5.449   5.383  0.0360  0.0049  0.3579
 6109TIP3    H139742   0.491   5.422   5.322 -0.5224 -1.4539  0.3303
 6109TIP3    H239743   0.343   5.453   5.330 -0.7002 -2.4267  1.1091
 6110TIP3   OH239744   3.595   4.695  15.475  0.0323  0.2862 -0.1751
 6110TIP3    H139745   3.533   4.656  15.414  0.3097 -0.2916 -0.0946
 6110TIP3    H239746   3.662   4.629  15.487  0.4453  0.7424  0.0695
 6111TIP3   OH239747   5.682   3.612  16.628 -0.0640 -0.1582 -0.1229
 6111TIP3    H139748   5.761   3.637  16.676  0.3966 -0.2427 -0.8332
 6111TIP3    H239749   5.620   3.684  16.646 -0.2105 -0.6142  1.2969
 6112TIP3   OH239750   6.414   2.073   0.094  0.5486 -0.6050  0.8782
 6112TIP3    H139751   6.324   2.065   0.123  0.0764 -0.3881 -0.4578
 6112TIP3    H239752   6.436   2.165   0.109 -0.0193 -0.2586 -0.3040
 6113TIP3   OH239753   1.466   5.371   3.999 -0.2813 -0.0208 -0.2058
 6113TIP3    H139754   1.518   5.365   3.919  0.1036  3.2276 -0.3283
 6113TIP3    H239755   1.531   5.377   4.069 -0.5304  0.7890 -0.0361
 6114TIP3   OH239756   5.722   3.505  14.193  0.5771  0.0508  0.0710
 6114TIP3    H139757   5.768   3.491  14.109  2.6636 -0.0149  1.1519
 6114TIP3    H239758   5.760   3.585  14.228  0.2169 -0.2761  1.2497
 6115TIP3   OH239759   2.056   6.232   2.169 -0.1300 -0.0086  0.3468
 6115TIP3    H139760   2.102   6.291   2.110  0.3529 -0.9954 -0.2836
 6115TIP3    H239761   1.990   6.287   2.211  1.4518  1.4067  1.1226
 6116TIP3   OH239762   4.394   1.539   2.286 -0.0919  0.4236  0.0458
 6116TIP3    H139763   4.410   1.601   2.358  0.7373  1.6116 -1.1037
 6116TIP3    H239764   4.356   1.593   2.217  0.9881 -0.2499 -1.1217
 6117TIP3   OH239765   1.518   6.181   4.571 -0.4909 -0.8460 -0.1696
 6117TIP3    H139766   1.493   6.104   4.623  0.1475 -1.0752 -0.1930
 6117TIP3    H239767   1.478   6.166   4.486  0.2229 -1.5139 -0.4032
 6118TIP3   OH239768   5.496   4.314   2.592 -0.3084  0.2421  0.2303
 6118TIP3    H139769   5.518   4.281   2.504 -1.5472  0.7188 -0.2831
 6118TIP3    H239770   5.503   4.237   2.648  0.1412 -0.1515 -0.3410
 6119TIP3   OH239771   2.462   5.668   4.459  0.0255 -0.3101  0.0899
 6119TIP3    H139772   2.438   5.606   4.529 -0.6546 -0.1383  0.0161
 6119TIP3    H239773   2.397   5.738   4.466  0.3690  0.0484 -0.2803
 6120TIP3   OH239774   4.936   1.832   0.461  0.3356 -0.1873 -0.3018
 6120TIP3    H139775   4.930   1.737   0.468 -0.8877 -0.0261  1.4557
 6120TIP3    H239776   5.021   1.853   0.501  0.1932 -0.4796  0.1670
 6121TIP3   OH239777   5.456   1.583  13.070  0.2752  0.3573 -0.1473
 6121TIP3    H139778   5.429   1.492  13.084 -0.6979  0.7927  0.9436
 6121TIP3    H239779   5.550   1.582  13.086  0.8182 -0.9279 -2.7090
 6122TIP3   OH239780   0.800   2.671   1.121 -0.2235  0.6862  0.2781
 6122TIP3    H139781   0.794   2.681   1.026 -2.8808 -2.1237  0.0069
 6122TIP3    H239782   0.889   2.699   1.142  1.2535 -0.6390 -3.3510
 6123TIP3   OH239783   5.164   4.569  15.626 -0.5204  0.2674 -0.3901
 6123TIP3    H139784   5.137   4.552  15.536 -2.6205 -2.2884  0.5924
 6123TIP3    H239785   5.226   4.499  15.646 -2.0378 -0.7812  0.8744
 6124TIP3   OH239786   2.607   5.430  16.295 -0.2471  0.2094 -0.0678
 6124TIP3    H139787   2.553   5.358  16.328  0.4999 -0.1379  0.4103
 6124TIP3    H239788   2.650   5.466  16.373 -1.5438  1.9858 -0.1060
 6125TIP3   OH239789   3.208   0.621  14.481  0.1164 -0.3374 -0.3198
 6125TIP3    H139790   3.116   0.637  14.498  0.0138 -0.1015 -1.0548
 6125TIP3    H239791   3.233   0.688  14.417  0.8618 -0.2348  0.0725
 6126TIP3   OH239792   1.546   4.006   1.534 -0.6301  0.2333  0.7224
 6126TIP3    H139793   1.600   4.034   1.609 -0.9193 -1.5570  1.6543
 6126TIP3    H239794   1.458   4.036   1.556 -0.4882  0.8840  0.4357
 6127TIP3   OH239795   0.772   6.046  14.794  0.2632  0.6919 -0.0430
 6127TIP3    H139796   0.781   6.069  14.887  0.0972 -1.3985  0.5522
 6127TIP3    H239797   0.678   6.031  14.783  0.5069 -1.3200  0.1120
 6128TIP3   OH239798   6.409   4.039   5.499 -0.1483 -0.3319 -0.1854
 6128TIP3    H139799   6.414   4.107   5.431 -0.2690  0.8208  0.9385
 6128TIP3    H239800   6.324   4.052   5.540 -0.1949 -1.2096  0.0176
 6129TIP3   OH239801   6.181   2.635   3.708  0.1219 -0.1507  0.3763
 6129TIP3    H139802   6.242   2.595   3.646  0.3831  0.4966  0.2098
 6129TIP3    H239803   6.166   2.723   3.674 -1.1363 -0.3918  0.2544
 6130TIP3   OH239804   2.723   6.031   4.184 -0.3018  0.3755  0.2193
 6130TIP3    H139805   2.686   6.030   4.095  0.6358  1.7669 -0.2126
 6130TIP3    H239806   2.772   6.112   4.188 -2.7218  1.8776  3.0108
 6131TIP3   OH239807   5.714   3.523   0.155  0.8005  0.4708  0.0232
 6131TIP3    H139808   5.720   3.549   0.063  1.3134  0.1055 -0.0530
 6131TIP3    H239809   5.634   3.471   0.160  1.4861 -0.6934 -0.5336
 6132TIP3   OH239810   0.487   1.006   4.487  0.2089  0.1399 -0.2600
 6132TIP3    H139811   0.536   0.957   4.553 -2.2431 -0.2130  1.4287
 6132TIP3    H239812   0.491   1.097   4.516 -1.1667 -0.0611  0.6414
 6133TIP3   OH239813   6.081   5.867   1.648 -0.0782  0.2469 -0.1550
 6133TIP3    H139814   6.145   5.819   1.701  0.0751  1.3933  0.7402
 6133TIP3    H239815   6.012   5.891   1.710 -1.6853 -1.4207 -1.2041
 6134TIP3   OH239816   5.573   0.387   3.224  0.4340 -0.3886 -0.1778
 6134TIP3    H139817   5.610   0.457   3.277  0.2826  0.0732 -0.6722
 6134TIP3    H239818   5.524   0.333   3.286  0.4481  0.0116  0.1870
 6135TIP3   OH239819   4.957   4.717  12.595  0.1010  0.0576  0.3200
 6135TIP3    H139820   4.998   4.801  12.615 -0.7904  0.9720 -1.4866
 6135TIP3    H239821   5.019   4.675  12.535  0.7294 -0.7877  1.5171
 6136TIP3   OH239822   2.595   6.237  15.395 -0.7081  0.1457 -0.2338
 6136TIP3    H139823   2.562   6.268  15.480 -1.2410  0.8937 -0.7023
 6136TIP3    H239824   2.637   6.313  15.356 -0.6814 -0.1275 -0.7493
 6137TIP3   OH239825   0.354   3.590  17.155  0.0412  0.1240 -0.0119
 6137TIP3    H139826   0.391   3.654  17.217 -1.3644  1.0537 -0.0869
 6137TIP3    H239827   0.265   3.575  17.187  0.1112 -1.2643 -0.4271
 6138TIP3   OH239828   4.146   6.071  12.780  0.0928  0.3760 -0.0286
 6138TIP3    H139829   4.110   6.037  12.698  0.2911  0.9176 -0.3467
 6138TIP3    H239830   4.071   6.111  12.824 -0.0735 -0.1791  0.1924
 6139TIP3   OH239831   2.585   3.191   2.037  1.1003  0.0744  0.1061
 6139TIP3    H139832   2.651   3.131   2.002  0.5439  0.3043 -1.4350
 6139TIP3    H239833   2.518   3.195   1.968 -0.6292 -0.3086  1.6797
 6140TIP3   OH239834   5.483   3.839   5.064 -0.2865  0.1654 -0.2053
 6140TIP3    H139835   5.492   3.768   5.127 -2.5570  0.6400  0.7576
 6140TIP3    H239836   5.562   3.833   5.009  1.5774 -0.5506  2.3484
 6141TIP3   OH239837   4.611   2.485  13.410 -0.3643  0.0008 -0.1591
 6141TIP3    H139838   4.530   2.503  13.361 -0.5617 -0.2946  0.0612
 6141TIP3    H239839   4.665   2.562  13.394 -1.6720  1.4079  1.7537
 6142TIP3   OH239840   3.196   2.670   0.730 -0.1917  0.0791 -0.4525
 6142TIP3    H139841   3.212   2.697   0.640  1.6567 -0.9509 -0.4927
 6142TIP3    H239842   3.266   2.607   0.749  0.6247  1.5761  2.2451
 6143TIP3   OH239843   3.250   0.987  12.106  0.0806  0.5649 -0.0685
 6143TIP3    H139844   3.254   0.952  12.017  0.3508 -0.8981  0.4861
 6143TIP3    H239845   3.170   0.949  12.143 -0.3382  1.6159  0.1491
 6144TIP3   OH239846   0.201   5.427   1.910  0.4660 -0.1139 -0.1033
 6144TIP3    H139847   0.156   5.479   1.844  1.0435 -0.5365 -0.8432
 6144TIP3    H239848   0.294   5.445   1.896  0.5670  0.9334  1.5538
 6145TIP3   OH239849   4.516   4.133   5.502 -0.0499  0.5286  0.4846
 6145TIP3    H139850   4.507   4.136   5.407  1.1577  0.3595  0.3542
 6145TIP3    H239851   4.578   4.203   5.523 -2.7077  2.7822  1.5101
 6146TIP3   OH239852   2.500   2.019   5.149 -0.1865  0.2253  0.3359
 6146TIP3    H139853   2.442   1.991   5.078 -0.1702 -0.1278  0.4595
 6146TIP3    H239854   2.465   1.977   5.227  0.2832 -0.0606  0.3976
 6147TIP3   OH239855   4.324   5.716  15.298  0.2140  0.1867 -0.7290
 6147TIP3    H139856   4.310   5.663  15.376 -2.3157 -0.4715 -1.5277
 6147TIP3    H239857   4.345   5.803  15.331 -1.3706  0.0625  0.7342
 6148TIP3   OH239858   5.927   3.044   3.246 -0.4395 -0.1571 -0.0436
 6148TIP3    H139859   5.964   3.008   3.327 -0.2278 -0.7359 -0.3902
 6148TIP3    H239860   5.911   3.136   3.266  1.5109  0.2213  0.0131
 6149TIP3   OH239861   4.552   3.473  14.666 -0.0951 -0.2446  0.1843
 6149TIP3    H139862   4.576   3.528  14.741 -0.2634  0.0064  0.0544
 6149TIP3    H239863   4.465   3.441  14.686 -0.2483  0.0374 -0.0254
 6150TIP3   OH239864   1.201   0.678   4.475 -0.2179  0.2391  0.5164
 6150TIP3    H139865   1.166   0.654   4.560 -0.1326  0.6461  0.6678
 6150TIP3    H239866   1.144   0.634   4.411  1.0126 -1.9170  0.7911
 6151TIP3   OH239867   2.088   6.060  15.294 -0.1216 -0.7056  0.5346
 6151TIP3    H139868   2.136   6.075  15.376  1.3390  0.2748 -0.4548
 6151TIP3    H239869   2.149   6.087  15.225 -1.6721 -0.5776 -0.8426
 6152TIP3   OH239870   4.396   0.536  14.851 -0.1449 -0.0202 -0.1631
 6152TIP3    H139871   4.319   0.514  14.800 -1.0289  0.8270  0.7544
 6152TIP3    H239872   4.415   0.457  14.902 -0.8413 -0.0089  0.1231
 6153TIP3   OH239873   1.753   4.311  11.743  0.6157 -0.2631 -0.3020
 6153TIP3    H139874   1.749   4.302  11.647 -1.9857 -1.4031 -0.1669
 6153TIP3    H239875   1.680   4.258  11.775  1.8708 -0.5147  2.3934
 6154TIP3   OH239876   3.427   4.058  15.359  0.3185 -0.3532 -0.4421
 6154TIP3    H139877   3.396   4.017  15.440  1.3871 -0.9551 -0.3094
 6154TIP3    H239878   3.407   3.994  15.291  0.7922 -0.5240 -0.4259
 6155TIP3   OH239879   0.644   6.029  14.403  0.1754 -0.1252 -0.5229
 6155TIP3    H139880   0.639   5.986  14.318 -2.3499  0.6099 -0.8096
 6155TIP3    H239881   0.731   6.070  14.404 -0.1422  0.8210 -3.2500
 6156TIP3   OH239882   1.288   5.566   1.832  1.0158  0.0741  0.2994
 6156TIP3    H139883   1.366   5.621   1.845 -0.0290  2.1229 -1.3163
 6156TIP3    H239884   1.312   5.508   1.760  2.0551 -1.5473  1.8726
 6157TIP3   OH239885   1.852   1.864  12.606  0.9727 -0.0683 -0.8619
 6157TIP3    H139886   1.857   1.801  12.534  1.2349  1.4902 -2.2675
 6157TIP3    H239887   1.888   1.945  12.570  2.1743  0.4767  1.3967
 6158TIP3   OH239888   6.229   1.963   3.228  0.1204 -0.8276  0.3618
 6158TIP3    H139889   6.309   2.009   3.202  0.1999  0.7642  3.0389
 6158TIP3    H239890   6.204   1.914   3.150  1.3003  2.0085 -2.0263
 6159TIP3   OH239891   4.095   1.430  14.861  0.0849 -0.0701  0.1213
 6159TIP3    H139892   4.185   1.421  14.830  0.5962 -2.5746  1.9708
 6159TIP3    H239893   4.045   1.455  14.784  1.8521 -1.9815 -1.7594
 6160TIP3   OH239894   6.276   6.324  11.906 -0.6086 -0.1353  0.3437
 6160TIP3    H139895   6.356   6.374  11.923 -0.1085 -0.7064 -0.2586
 6160TIP3    H239896   6.205   6.381  11.936 -0.0068  0.5754  0.4526
 6161TIP3   OH239897   5.388   0.019   2.163  0.4054  0.5004 -0.5941
 6161TIP3    H139898   5.461  -0.008   2.219  0.3749  1.1193 -0.2444
 6161TIP3    H239899   5.407   0.111   2.143  0.6484  0.1645 -1.9723
 6162TIP3   OH239900   2.592   4.102  10.563  0.5145  0.2208  0.2779
 6162TIP3    H139901   2.564   4.011  10.577  0.2402  0.4654  1.4278
 6162TIP3    H239902   2.596   4.139  10.651 -0.0867  1.5383 -0.2336
 6163TIP3   OH239903   4.079   3.090   3.619  0.2081 -0.0978 -0.6335
 6163TIP3    H139904   4.125   3.125   3.695 -0.5213  0.1036 -0.2686
 6163TIP3    H239905   4.041   3.007   3.650  0.0366 -0.0912 -0.8216
 6164TIP3   OH239906   1.741   3.154  11.056 -0.8609 -0.2932 -0.2210
 6164TIP3    H139907   1.773   3.128  10.969  0.1557  0.7477 -0.1743
 6164TIP3    H239908   1.703   3.073  11.092  0.0808 -1.1222 -1.0159
 6165TIP3   OH239909   4.203   6.668  11.653  0.0421 -0.3911  0.3801
 6165TIP3    H139910   4.290   6.688  11.685  0.2752  3.0356 -1.9400
 6165TIP3    H239911   4.146   6.730  11.698 -0.5478  0.1091 -0.9990
 6166TIP3   OH239912   2.722   3.988   4.358  0.1148  0.1332 -0.0715
 6166TIP3    H139913   2.702   3.896   4.341 -0.9718  0.1464  0.9826
 6166TIP3    H239914   2.719   4.030   4.273  2.8986 -1.1787 -0.9387
 6167TIP3   OH239915   3.298   5.521  15.307  0.4135 -0.3706 -0.2698
 6167TIP3    H139916   3.366   5.482  15.362  1.5103  1.1659 -0.4732
 6167TIP3    H239917   3.303   5.473  15.225  1.0427 -0.4779 -0.1739
 6168TIP3   OH239918   5.976   6.557   1.895  0.4092 -0.4499 -0.1167
 6168TIP3    H139919   5.962   6.561   1.801  0.0296 -1.2759 -0.1060
 6168TIP3    H239920   5.893   6.582   1.934  0.1579 -1.3734 -0.0239
 6169TIP3   OH239921   6.402   2.357  10.478 -0.4387  0.3379 -0.0395
 6169TIP3    H139922   6.482   2.403  10.503 -0.7187  1.8236 -1.6745
 6169TIP3    H239923   6.336   2.389  10.540 -0.3500  1.2551 -0.3987
 6170TIP3   OH239924   3.955   5.193  16.379  0.0125 -0.4158 -0.2472
 6170TIP3    H139925   3.897   5.118  16.393  0.5858 -1.3207 -2.2672
 6170TIP3    H239926   3.913   5.244  16.310  1.3312 -0.8277 -1.4052
 6171TIP3   OH239927   2.798   3.987  16.122  0.1485 -0.6394 -0.0417
 6171TIP3    H139928   2.738   4.016  16.191  0.1463  0.3980 -0.4596
 6171TIP3    H239929   2.740   3.953  16.054  0.1216 -1.1474  0.2328
 6172TIP3   OH239930   4.864   0.035  10.951  0.4629 -0.1763 -0.1343
 6172TIP3    H139931   4.808  -0.029  10.995  0.6802  0.0036  0.4148
 6172TIP3    H239932   4.932   0.056  11.015 -0.8872  2.3194  0.6377
 6173TIP3   OH239933   1.139   0.282  11.724  0.5104 -0.6296  0.2863
 6173TIP3    H139934   1.076   0.354  11.717  0.4073 -0.7472 -0.0179
 6173TIP3    H239935   1.141   0.244  11.636  1.9839  0.1733 -0.0452
 6174TIP3   OH239936   1.831   2.325   5.106 -0.0673 -0.4499 -0.3237
 6174TIP3    H139937   1.764   2.387   5.077  0.4244 -0.6059 -1.8936
 6174TIP3    H239938   1.792   2.239   5.089  0.7043 -0.5435 -1.7824
 6175TIP3   OH239939   4.194   1.987   3.860 -0.5879  0.1909 -0.3583
 6175TIP3    H139940   4.267   1.999   3.920  0.3038  0.5805 -1.4790
 6175TIP3    H239941   4.223   1.918   3.800 -0.7379  0.9685 -1.3692
 6176TIP3   OH239942   5.238   1.583  11.423  0.2865 -0.4869  0.5162
 6176TIP3    H139943   5.204   1.668  11.396  0.4202 -0.0803  1.6043
 6176TIP3    H239944   5.236   1.530  11.343 -2.6248 -0.3998  0.4039
 6177TIP3   OH239945   2.024   5.991  16.410  0.3656 -0.1251  0.3645
 6177TIP3    H139946   1.934   5.959  16.402  0.5617 -0.4944 -0.4897
 6177TIP3    H239947   2.057   5.949  16.489 -0.6584  1.1515  1.5296
 6178TIP3   OH239948   6.048   0.115  10.648  0.0374  0.0814 -0.0431
 6178TIP3    H139949   6.116   0.171  10.609 -0.3055 -0.5604 -1.6327
 6178TIP3    H239950   5.995   0.176  10.700  0.6488  0.9371 -0.3908
 6179TIP3   OH239951   1.257   3.336  14.608 -0.4683 -0.5040  0.1617
 6179TIP3    H139952   1.239   3.257  14.659 -3.0116 -0.5046 -0.6086
 6179TIP3    H239953   1.237   3.408  14.668 -0.9436 -0.4766 -0.0298
 6180TIP3   OH239954   4.168   4.835  14.682 -0.2201  0.4855  0.4779
 6180TIP3    H139955   4.225   4.778  14.630  0.2475  1.4661 -0.1146
 6180TIP3    H239956   4.142   4.905  14.622 -1.7142  0.3042  0.8608
 6181TIP3   OH239957   6.594   6.323  13.854  0.0165 -0.0111  0.4706
 6181TIP3    H139958   6.684   6.352  13.866 -0.2771  1.3535 -0.5066
 6181TIP3    H239959   6.587   6.246  13.911  2.1024 -0.8141 -0.2507
 6182TIP3   OH239960   6.776   1.069  13.993 -0.2729 -0.4646  0.3548
 6182TIP3    H139961   6.732   1.085  14.076 -0.3302 -0.9661  0.4237
 6182TIP3    H239962   6.709   1.083  13.927 -0.3377 -0.4830  0.4171
 6183TIP3   OH239963   3.532   2.119   3.413 -0.2398 -0.1777 -0.2608
 6183TIP3    H139964   3.559   2.169   3.336  0.5766  0.7995  0.6367
 6183TIP3    H239965   3.511   2.184   3.479 -1.2607 -0.9997  0.2608
 6184TIP3   OH239966   1.450   5.169   4.618  1.0321  0.6436  0.1165
 6184TIP3    H139967   1.453   5.073   4.609  0.9999  0.5761  0.8284
 6184TIP3    H239968   1.537   5.198   4.590  1.2136  0.3690  0.3922
 6185TIP3   OH239969   3.908   4.600   3.250  0.6001 -0.2250 -0.2585
 6185TIP3    H139970   3.887   4.689   3.278 -0.1685 -0.1343 -1.0775
 6185TIP3    H239971   3.930   4.608   3.158 -0.2642 -0.9834 -0.5474
 6186TIP3   OH239972   5.476   5.954  12.558  0.1539  0.1624  0.0109
 6186TIP3    H139973   5.537   6.027  12.548 -0.0984  0.5197  1.0139
 6186TIP3    H239974   5.532   5.877  12.571  0.4112  0.2283 -0.6684
 6187TIP3   OH239975   2.595   3.964  11.722 -0.0012 -0.4214  0.4239
 6187TIP3    H139976   2.683   3.929  11.728 -0.0854 -0.5288  1.1020
 6187TIP3    H239977   2.573   3.959  11.629  0.8258 -0.0930  0.2117
 6188TIP3   OH239978   2.840   0.440   1.660  0.2486 -0.4151 -0.5138
 6188TIP3    H139979   2.913   0.472   1.712  0.0143  1.5938 -1.2961
 6188TIP3    H239980   2.766   0.494   1.687 -0.7436 -1.8263 -0.3476
 6189TIP3   OH239981   2.689   5.572   1.956  0.3312 -0.3992  0.8725
 6189TIP3    H139982   2.664   5.658   1.990  0.6609  0.7104 -1.4834
 6189TIP3    H239983   2.640   5.510   2.009 -1.5084  1.3566  1.3442
 6190TIP3   OH239984   6.059   2.960  11.699  0.5532  0.3089 -0.0067
 6190TIP3    H139985   6.061   2.916  11.784 -0.6728 -1.6461 -0.9438
 6190TIP3    H239986   6.059   2.890  11.635  0.5869  1.7310 -1.6350
 6191TIP3   OH239987   0.867   4.815  16.759  0.4488  0.3882 -0.1729
 6191TIP3    H139988   0.836   4.886  16.815  1.6815 -0.1791  1.3050
 6191TIP3    H239989   0.806   4.743  16.776  1.0245  0.1027  0.7455
 6192TIP3   OH239990   5.523   0.800  14.834  0.1574  0.1431 -0.0613
 6192TIP3    H139991   5.428   0.793  14.841  0.3013 -0.1358  2.9447
 6192TIP3    H239992   5.556   0.728  14.888  2.0237  1.7606  1.0967
 6193TIP3   OH239993   6.729   1.198  12.668 -0.1256  0.4906 -0.5384
 6193TIP3    H139994   6.661   1.157  12.722  0.1869  0.2486 -0.3230
 6193TIP3    H239995   6.751   1.132  12.603  0.4789  0.2489 -0.1035
 6194TIP3   OH239996   3.770   2.982   5.480  0.8583 -0.3497  0.2816
 6194TIP3    H139997   3.678   2.959   5.467  0.9441 -0.1709 -0.7903
 6194TIP3    H239998   3.794   3.030   5.400  2.0611 -0.9821  0.2329
 6195TIP3   OH239999   0.690   1.816  13.895  0.6146 -0.0610  0.3671
 6195TIP3    H140000   0.614   1.759  13.906  0.3475  0.3017  0.4151
 6195TIP3    H240001   0.708   1.850  13.982 -0.9870  2.1500 -0.0785
 6196TIP3   OH240002   6.259   0.551  13.121  0.5561  0.1464 -0.2377
 6196TIP3    H140003   6.226   0.461  13.118 -2.2568  0.9295  2.5466
 6196TIP3    H240004   6.196   0.601  13.069  0.3967  0.9365  0.7058
 6197TIP3   OH240005   4.500   4.402   2.215 -0.6372  0.2626 -0.0987
 6197TIP3    H140006   4.553   4.432   2.141 -1.3009  1.6398 -0.0583
 6197TIP3    H240007   4.479   4.311   2.194  1.2267 -0.1457 -0.3866
 6198TIP3   OH240008   4.731   1.960  11.512 -0.1655 -0.3028 -0.0669
 6198TIP3    H140009   4.660   1.933  11.454 -1.4232 -0.0040  1.2799
 6198TIP3    H240010   4.732   2.056  11.506  1.4559 -0.3609 -1.5608
 6199TIP3   OH240011   0.552   0.897   3.207  0.4553 -0.4462 -0.1666
 6199TIP3    H140012   0.494   0.928   3.276 -0.0534 -0.7164 -0.4688
 6199TIP3    H240013   0.635   0.879   3.252 -0.1383 -1.5000  0.5417
 6200TIP3   OH240014   3.896   3.381   5.753  0.1349  0.2779 -0.4668
 6200TIP3    H140015   3.823   3.366   5.813  0.4264  0.9163  0.0525
 6200TIP3    H240016   3.872   3.461   5.706  0.1290  0.0425 -0.8723
 6201TIP3   OH240017   5.601   3.187   0.533  0.0093  0.1640  0.7366
 6201TIP3    H140018   5.556   3.102   0.541 -0.7078  0.4995  0.3377
 6201TIP3    H240019   5.532   3.249   0.510  0.6301  0.7556  0.4234
 6202TIP3   OH240020   5.608   6.146   0.715  1.7522  0.2976 -0.1142
 6202TIP3    H140021   5.556   6.213   0.670 -0.4339  0.3423  2.2462
 6202TIP3    H240022   5.699   6.172   0.699  1.0131  2.8248 -0.7624
 6203TIP3   OH240023   5.573   4.319  16.644 -0.0364 -0.0475 -0.5055
 6203TIP3    H140024   5.624   4.270  16.709 -0.0274  1.7743  0.9290
 6203TIP3    H240025   5.483   4.319  16.679  0.3498  2.8051  0.7849
 6204TIP3   OH240026   6.147   2.572  13.925 -0.1403  0.1900  0.7252
 6204TIP3    H140027   6.230   2.530  13.949 -0.8877 -0.4152  2.3267
 6204TIP3    H240028   6.149   2.573  13.829  1.0065 -1.2654  0.6886
 6205TIP3   OH240029   2.108   2.616  13.035 -0.1970 -0.6331 -0.3340
 6205TIP3    H140030   2.079   2.699  13.073  0.3200  0.6682 -2.6244
 6205TIP3    H240031   2.028   2.572  13.009 -0.4066  0.1025 -0.9675
 6206TIP3   OH240032   4.951   1.557  12.088 -0.2676 -0.5626 -0.2763
 6206TIP3    H140033   5.024   1.549  12.026 -1.1005 -1.2270 -1.2083
 6206TIP3    H240034   4.954   1.475  12.137 -1.0041 -1.0617 -1.0363
 6207TIP3   OH240035   4.015   3.078   4.364  0.1923  0.1011  0.1423
 6207TIP3    H140036   4.037   3.106   4.453  0.2806 -0.1848  0.2095
 6207TIP3    H240037   3.937   3.024   4.375 -2.2899  3.2784 -0.3472
 6208TIP3   OH240038   0.124   6.039   2.202  0.1159  0.6165  0.4044
 6208TIP3    H140039   0.210   5.997   2.204  0.4783  1.2799 -0.5109
 6208TIP3    H240040   0.115   6.079   2.288  1.8870  2.7652 -0.3265
 6209TIP3   OH240041   2.343   1.110  16.141 -0.4463 -0.1146  0.1739
 6209TIP3    H140042   2.261   1.068  16.114 -1.1383  1.0163  0.4263
 6209TIP3    H240043   2.373   1.155  16.062 -1.2317  1.2442  0.6062
 6210TIP3   OH240044   0.628   4.179   1.820 -0.3088 -0.1569  0.0156
 6210TIP3    H140045   0.617   4.160   1.727  3.0782 -1.2477 -0.2995
 6210TIP3    H240046   0.586   4.264   1.832 -1.5911 -0.3912 -2.2851
 6211TIP3   OH240047   6.091   0.757   0.358  0.2716 -0.2047  0.0983
 6211TIP3    H140048   6.149   0.789   0.289  0.0868  0.1354  0.0995
 6211TIP3    H240049   6.030   0.828   0.373  0.2140 -0.3379  0.5069
 6212TIP3   OH240050   2.067   5.860   5.208  0.2969  0.1515 -0.0827
 6212TIP3    H140051   2.105   5.890   5.290  1.1711  2.6304 -1.3026
 6212TIP3    H240052   1.993   5.918   5.193 -0.1120 -0.5434 -0.8548
 6213TIP3   OH240053   5.393   4.020   4.688 -0.0943 -0.1844  0.0264
 6213TIP3    H140054   5.443   4.092   4.727  0.0654 -0.5671  0.5418
 6213TIP3    H240055   5.459   3.952   4.673 -0.4285 -0.6305  0.5575
 6214TIP3   OH240056   5.443   5.869   5.823 -0.0373  0.2442 -0.2079
 6214TIP3    H140057   5.349   5.864   5.842  0.3677  2.0452  2.7279
 6214TIP3    H240058   5.484   5.815   5.890  1.1006 -0.2302 -1.2426
 6215TIP3   OH240059   0.284   0.632   1.429 -0.1403  1.1326 -0.4430
 6215TIP3    H140060   0.321   0.647   1.342 -0.1877  1.9626 -0.3318
 6215TIP3    H240061   0.220   0.703   1.440 -0.4302  0.7917  0.1003
 6216TIP3   OH240062   5.587   4.786   1.935 -0.4254 -0.2357 -0.4565
 6216TIP3    H140063   5.617   4.727   2.004 -2.0074 -0.8768 -0.2668
 6216TIP3    H240064   5.494   4.764   1.923 -0.4632  0.6058 -2.0348
 6217TIP3   OH240065   6.506   1.455  14.911  1.2127 -0.9939  0.4474
 6217TIP3    H140066   6.592   1.447  14.869  1.7382  0.5711  1.1440
 6217TIP3    H240067   6.525   1.448  15.004  0.4850 -1.3239  0.5730
 6218TIP3   OH240068   2.082   2.085   5.354 -0.0883 -0.2124 -0.2103
 6218TIP3    H140069   1.996   2.116   5.324  0.9483  1.1587 -1.8987
 6218TIP3    H240070   2.105   2.144   5.425  0.5945  1.1434 -1.5136
 6219TIP3   OH240071   1.655   4.887  13.872  0.5293 -0.3018 -0.3061
 6219TIP3    H140072   1.679   4.975  13.899 -0.8426  0.4345 -1.3592
 6219TIP3    H240073   1.566   4.875  13.903 -0.5955  0.0521 -3.0681
 6220TIP3   OH240074   2.192   3.056   4.255  0.1309 -0.3712  0.1678
 6220TIP3    H140075   2.111   3.054   4.204 -0.7848 -0.0847  1.5523
 6220TIP3    H240076   2.260   3.033   4.193 -0.9258  0.0795 -1.2008
 6221TIP3   OH240077   4.201   0.676   5.626  0.2132 -0.1938  0.0830
 6221TIP3    H140078   4.143   0.741   5.664 -1.0976 -2.1589  1.6555
 6221TIP3    H240079   4.288   0.715   5.632 -0.5579  1.5579  0.5414
 6222TIP3   OH240080   4.718   6.344  15.707 -0.0164  0.7162 -0.0267
 6222TIP3    H140081   4.719   6.312  15.617  3.7706  2.0267 -0.6349
 6222TIP3    H240082   4.700   6.437  15.700 -1.1611  0.5693  0.7453
 6223TIP3   OH240083   1.395   3.597   6.347 -0.4629  0.7014 -0.0248
 6223TIP3    H140084   1.384   3.525   6.284  1.9792 -0.2415  0.5090
 6223TIP3    H240085   1.364   3.561   6.430  0.9933  0.1198  0.2947
 6224TIP3   OH240086   0.878   4.406  10.553 -0.1982  0.3991  0.3638
 6224TIP3    H140087   0.899   4.383  10.463  1.0919  0.4129  0.6462
 6224TIP3    H240088   0.962   4.430  10.592 -0.6717 -0.0001  1.6868
 6225TIP3   OH240089   1.411   0.897  11.518  0.0963  0.2366 -0.3641
 6225TIP3    H140090   1.378   0.986  11.521  0.2035  0.2618  0.1943
 6225TIP3    H240091   1.337   0.845  11.487  0.3470  0.6550 -1.7203
 6226TIP3   OH240092   4.535   2.227  15.386  0.0050  0.4602  0.0433
 6226TIP3    H140093   4.563   2.170  15.314  1.1688  0.2095  0.6761
 6226TIP3    H240094   4.575   2.312  15.367 -0.7022  0.7363 -0.2421
 6227TIP3   OH240095   3.574   0.579  14.671 -0.0343 -0.1871 -0.4253
 6227TIP3    H140096   3.599   0.583  14.763 -1.1224 -0.2073 -0.1211
 6227TIP3    H240097   3.525   0.497  14.662 -0.6677  0.2245 -0.8271
 6228TIP3   OH240098   3.018   6.290  16.582  0.1153 -0.1721  0.0600
 6228TIP3    H140099   3.064   6.206  16.579 -0.0692 -0.3136  0.8648
 6228TIP3    H240100   2.925   6.265  16.592 -0.1440  0.1071 -1.4301
 6229TIP3   OH240101   0.371   1.052   3.640 -0.1762 -0.3596 -0.3399
 6229TIP3    H140102   0.433   0.981   3.629 -2.2091 -1.9204 -2.7976
 6229TIP3    H240103   0.287   1.009   3.656 -2.0796  1.1151 -4.7687
 6230TIP3   OH240104   3.280   0.651   5.063 -0.4506 -0.0268  0.5349
 6230TIP3    H140105   3.210   0.666   5.127  0.4146  0.8847  1.2867
 6230TIP3    H240106   3.301   0.738   5.029  0.9541 -0.1737  0.9877
 6231TIP3   OH240107   4.794   1.482   0.969 -0.4843  0.2959  0.1870
 6231TIP3    H140108   4.873   1.464   1.021  0.1406 -1.2264 -1.1732
 6231TIP3    H240109   4.812   1.565   0.926 -0.4431  0.8960  1.3046
 6232TIP3   OH240110   0.509   5.518  13.779 -0.9259 -0.4112 -0.3495
 6232TIP3    H140111   0.528   5.429  13.808  1.6744  0.3629  0.6268
 6232TIP3    H240112   0.466   5.559  13.854 -0.3638 -0.3149 -0.0752
 6233TIP3   OH240113   2.513   6.044  16.184  0.1556  1.1015 -0.1711
 6233TIP3    H140114   2.545   6.059  16.273  1.2777 -0.0894 -0.3359
 6233TIP3    H240115   2.425   6.009  16.196  1.2991 -1.8433  0.7105
 6234TIP3   OH240116   6.473   3.914  14.585 -0.0065  0.1390  0.0878
 6234TIP3    H140117   6.455   3.822  14.568  0.8101 -0.0987  0.4930
 6234TIP3    H240118   6.457   3.924  14.679  0.6179  0.2430  0.1824
 6235TIP3   OH240119   0.784   4.155  16.757  0.2181 -0.6771 -0.2717
 6235TIP3    H140120   0.794   4.067  16.792  0.9016 -0.8584 -0.9056
 6235TIP3    H240121   0.831   4.211  16.819  1.1516 -0.9554 -0.7135
 6236TIP3   OH240122   3.852   3.213   2.603 -0.5555  0.1971 -0.1085
 6236TIP3    H140123   3.837   3.237   2.695 -1.4373 -0.6384 -0.0144
 6236TIP3    H240124   3.871   3.119   2.606  0.7655  0.4227 -0.6610
 6237TIP3   OH240125   6.111   2.969   4.307  0.1584  0.9516 -0.2606
 6237TIP3    H140126   6.160   3.007   4.380 -0.3029  0.5719  0.2470
 6237TIP3    H240127   6.171   2.906   4.268 -0.1445  0.0129  0.7619
 6238TIP3   OH240128   5.891   5.855  15.615  0.1142 -0.5436 -0.1061
 6238TIP3    H140129   5.851   5.938  15.639  2.1400 -0.2045  2.5307
 6238TIP3    H240130   5.969   5.879  15.565  1.6342 -0.6147  2.0525
 6239TIP3   OH240131   0.824   3.018  15.737 -0.0041 -0.0662 -0.4921
 6239TIP3    H140132   0.898   2.961  15.718 -0.3457 -0.4783 -0.5883
 6239TIP3    H240133   0.852   3.070  15.812  0.5851  0.1539 -0.8588
 6240TIP3   OH240134   5.144   2.059   2.950 -0.4705  0.7728  0.4925
 6240TIP3    H140135   5.195   2.096   3.022  2.0160 -1.8584  0.2454
 6240TIP3    H240136   5.116   1.973   2.982 -2.0404  0.8410 -0.5942
 6241TIP3   OH240137   3.716   2.238   1.232  0.2354  0.2079  0.3480
 6241TIP3    H140138   3.657   2.282   1.293  0.0402  0.2661  0.1199
 6241TIP3    H240139   3.742   2.306   1.170  0.7881  0.2574  0.6216
 6242TIP3   OH240140   0.392   3.422   2.998 -0.3882 -0.1353 -0.7575
 6242TIP3    H140141   0.354   3.334   2.995  1.0734 -0.9546  1.6904
 6242TIP3    H240142   0.486   3.408   2.984 -0.1445  1.0142 -0.3620
 6243TIP3   OH240143   6.441   5.403  14.566 -0.3692 -0.6313 -0.1614
 6243TIP3    H140144   6.453   5.469  14.498  0.1706 -1.5365 -0.9792
 6243TIP3    H240145   6.448   5.451  14.648 -3.7203  0.9939 -0.6560
 6244TIP3   OH240146   2.561   1.372  13.381 -0.3207 -0.5964  0.6175
 6244TIP3    H140147   2.635   1.315  13.400  0.2452 -0.1515 -0.1856
 6244TIP3    H240148   2.513   1.328  13.310 -0.1023 -0.2759  0.2650
 6245TIP3   OH240149   3.738   6.045   1.638 -0.1984  0.5339  0.6803
 6245TIP3    H140150   3.832   6.028   1.637 -0.3372 -0.2424  0.0976
 6245TIP3    H240151   3.698   5.965   1.672 -0.8386 -0.3341 -1.8570
 6246TIP3   OH240152   4.633   5.907   0.828 -0.2056  0.2729  0.3830
 6246TIP3    H140153   4.641   5.949   0.742 -1.2022 -2.4165 -1.1815
 6246TIP3    H240154   4.538   5.897   0.841 -0.0517 -2.6369 -0.0671
 6247TIP3   OH240155   2.876   5.077  16.058  0.4428  0.1335 -0.3438
 6247TIP3    H140156   2.901   5.139  16.127 -0.8719 -0.3281  0.5796
 6247TIP3    H240157   2.801   5.119  16.015  0.5872 -0.0674 -0.7912
 6248TIP3   OH240158   0.788   3.872  10.630 -0.6657  0.1313  0.3865
 6248TIP3    H140159   0.774   3.863  10.536 -1.5653  0.8825  0.4321
 6248TIP3    H240160   0.848   3.801  10.652  2.4037  1.9917 -1.3171
 6249TIP3   OH240161   3.422   1.169  12.396 -0.1597 -0.2086 -0.1197
 6249TIP3    H140162   3.465   1.253  12.385 -0.4789 -0.1205 -0.7468
 6249TIP3    H240163   3.443   1.120  12.317 -2.0479  0.2245 -0.9510
 6250TIP3   OH240164   4.821   2.056  13.031 -0.0588 -0.2102  0.0626
 6250TIP3    H140165   4.901   2.016  12.998  0.9441  0.9161  0.9942
 6250TIP3    H240166   4.830   2.052  13.127 -0.9718  0.2118  0.1825
 6251TIP3   OH240167   6.416   0.335   4.867  0.1658 -0.2023 -0.4763
 6251TIP3    H140168   6.360   0.400   4.909  0.1813 -0.3249 -0.2638
 6251TIP3    H240169   6.442   0.375   4.784  0.4779  0.2137 -0.1819
 6252TIP3   OH240170   4.750   3.514   5.829  0.5159 -0.2785  0.3168
 6252TIP3    H140171   4.702   3.460   5.893 -0.3292  0.5436  0.3993
 6252TIP3    H240172   4.811   3.565   5.882  0.5450 -0.3543  0.3565
 6253TIP3   OH240173   2.805   3.992  14.575  0.1814 -0.7615  0.3368
 6253TIP3    H140174   2.719   4.027  14.554  0.4132 -0.0886  0.4885
 6253TIP3    H240175   2.848   4.061  14.625  2.1124  0.4542 -2.7098
 6254TIP3   OH240176   0.630   5.334  12.601 -0.7236  0.0460 -0.1659
 6254TIP3    H140177   0.655   5.398  12.534  1.6616 -0.2431  0.3850
 6254TIP3    H240178   0.612   5.386  12.679  1.0153  0.1239  0.2232
 6255TIP3   OH240179   0.961   0.948  14.016 -0.9209 -0.3642  0.3647
 6255TIP3    H140180   0.935   0.858  13.994  1.6215 -0.7848 -1.3522
 6255TIP3    H240181   1.021   0.937  14.090 -2.0772  0.1704  1.4234
 6256TIP3   OH240182   4.284   5.702  16.873  0.0821 -0.4456  0.1472
 6256TIP3    H140183   4.331   5.783  16.856  0.2669 -0.3778  0.9541
 6256TIP3    H240184   4.200   5.713  16.829  0.0879  0.2017  0.2876
 6257TIP3   OH240185   4.942   4.372  16.330  0.2094  0.0963  0.2077
 6257TIP3    H140186   4.936   4.289  16.378  1.8524  0.0086  0.2957
 6257TIP3    H240187   4.898   4.435  16.387 -0.6053 -0.6041  0.3749
 6258TIP3   OH240188   3.897   1.048   5.455 -0.3258  0.1611 -0.3146
 6258TIP3    H140189   3.970   0.990   5.433  0.2879  0.3018  1.2313
 6258TIP3    H240190   3.837   1.041   5.381  0.9192 -0.5137 -1.2785
 6259TIP3   OH240191   1.543   2.628  13.868  0.3417  0.1743  0.2316
 6259TIP3    H140192   1.495   2.693  13.918 -1.2563  0.7131 -1.8771
 6259TIP3    H240193   1.575   2.675  13.791  1.0235 -1.0413 -0.2585
 6260TIP3   OH240194   0.700   4.861  16.245  0.2609 -0.0768 -0.1319
 6260TIP3    H140195   0.628   4.872  16.307  0.0545 -0.8216 -0.2363
 6260TIP3    H240196   0.658   4.831  16.164  0.6584 -0.2787 -0.2643
 6261TIP3   OH240197   3.619   6.042   4.243 -0.1892  0.7546 -0.3585
 6261TIP3    H140198   3.711   6.051   4.217  0.1625 -0.6989  0.2941
 6261TIP3    H240199   3.580   5.986   4.177  0.1705 -1.1372  0.9695
 6262TIP3   OH240200   2.559   2.924  16.877 -0.1392  0.2305 -0.5864
 6262TIP3    H140201   2.593   2.869  16.948 -0.7780  1.2722  0.5560
 6262TIP3    H240202   2.625   2.992  16.867 -0.3852  0.4777 -0.5199
 6263TIP3   OH240203   6.425   0.736   2.080 -0.0347  0.0187  0.1549
 6263TIP3    H140204   6.346   0.719   2.131  1.0561 -3.3010  0.9252
 6263TIP3    H240205   6.474   0.800   2.132 -1.2122  0.5186  0.6921
 6264TIP3   OH240206   0.210   1.098   1.582 -0.1975  0.5854  0.0749
 6264TIP3    H140207   0.291   1.146   1.567 -0.2317  0.2584 -1.2677
 6264TIP3    H240208   0.168   1.092   1.496 -1.6014  0.6501  0.7231
 6265TIP3   OH240209   6.008   5.809  11.580 -0.1774  0.1898 -0.5968
 6265TIP3    H140210   5.979   5.718  11.581 -0.4908  0.2318 -2.3912
 6265TIP3    H240211   5.928   5.860  11.590 -0.2138  0.2690 -1.2389
 6266TIP3   OH240212   1.726   1.187  16.851 -0.1811  0.0289 -0.1017
 6266TIP3    H140213   1.694   1.155  16.935 -1.4570 -0.3153 -0.6976
 6266TIP3    H240214   1.719   1.112  16.792 -0.0301  0.4741 -0.7013
 6267TIP3   OH240215   5.882   1.578  15.675  0.6507  0.1028  0.3985
 6267TIP3    H140216   5.870   1.483  15.681  2.0627 -0.0464  1.4452
 6267TIP3    H240217   5.818   1.606  15.611 -0.9733 -1.3379  1.2960
 6268TIP3   OH240218   3.568   5.819  12.921  0.3379 -0.0669  0.5608
 6268TIP3    H140219   3.532   5.787  13.003  0.3151 -2.0839 -0.1715
 6268TIP3    H240220   3.493   5.860  12.877 -0.3453 -1.3946  0.4181
 6269TIP3   OH240221   3.475   4.974  14.151  0.0340 -0.3887 -0.3978
 6269TIP3    H140222   3.396   4.991  14.100  0.2219  4.5253  0.4061
 6269TIP3    H240223   3.460   5.019  14.234  2.8529 -1.1448  0.6463
 6270TIP3   OH240224   6.151   2.734   5.182 -0.0288  0.6012  0.2313
 6270TIP3    H140225   6.196   2.678   5.246 -0.8188 -0.7423 -0.3401
 6270TIP3    H240226   6.207   2.731   5.105 -1.0334 -1.1177 -0.4998
 6271TIP3   OH240227   5.053   1.202  11.162 -0.4976 -0.8875 -0.1647
 6271TIP3    H140228   5.096   1.201  11.077 -0.3660 -1.1587 -0.0972
 6271TIP3    H240229   4.959   1.202  11.142 -0.4664 -0.5568 -0.3101
 6272TIP3   OH240230   6.567   2.471   2.319  0.4186  0.3930 -0.3834
 6272TIP3    H140231   6.482   2.499   2.286  0.1388  0.0759  0.0626
 6272TIP3    H240232   6.628   2.491   2.248  0.5267  3.7273  0.4552
 6273TIP3   OH240233   0.276   2.337   4.985 -0.3725  0.6107 -0.0375
 6273TIP3    H140234   0.203   2.356   4.926  1.3026  0.5433 -2.2785
 6273TIP3    H240235   0.335   2.412   4.976  1.4960 -0.8841 -1.1039
 6274TIP3   OH240236   5.926   3.514   1.677  0.4211 -0.2211 -0.2602
 6274TIP3    H140237   6.001   3.535   1.622  0.0489 -0.1306 -0.7339
 6274TIP3    H240238   5.959   3.448   1.739  0.8925 -0.1646 -0.4534
 6275TIP3   OH240239   3.386   5.928   4.704  0.2034 -0.2261 -0.0385
 6275TIP3    H140240   3.371   5.856   4.643  1.5999 -1.9117  1.4560
 6275TIP3    H240241   3.306   5.930   4.758 -0.2344 -0.0103 -0.6853
 6276TIP3   OH240242   0.503   0.454  15.394 -0.0616 -0.9599 -0.3111
 6276TIP3    H140243   0.489   0.387  15.460  1.3085  1.2925  2.4562
 6276TIP3    H240244   0.481   0.536  15.437  1.8951  0.7472 -2.2931
 6277TIP3   OH240245   1.750   3.414   3.533  0.0992  0.3432 -0.3360
 6277TIP3    H140246   1.829   3.382   3.578 -0.0559  0.9221  0.3699
 6277TIP3    H240247   1.679   3.363   3.571  0.2248 -0.9269 -1.7238
 6278TIP3   OH240248   4.469   0.173   5.117  0.0596 -0.1962  0.2192
 6278TIP3    H140249   4.501   0.212   5.198  0.9216 -1.1615  0.3643
 6278TIP3    H240250   4.380   0.146   5.137 -0.1107  0.5619  0.5000
 6279TIP3   OH240251   6.259   4.356  17.061  0.5452  0.5619  0.2784
 6279TIP3    H140252   6.257   4.450  17.083  2.0947  0.0943  2.8024
 6279TIP3    H240253   6.260   4.312  17.146  1.6468 -1.7037 -0.8377
 6280TIP3   OH240254   2.707   4.579   0.392 -0.3400 -0.0285 -0.0802
 6280TIP3    H140255   2.796   4.562   0.360  0.4369  0.1174  1.9112
 6280TIP3    H240256   2.681   4.660   0.348  1.1902  0.8715  0.6131
 6281TIP3   OH240257   2.146   3.300  15.102 -0.2194  0.0578 -0.6034
 6281TIP3    H140258   2.213   3.278  15.167 -0.3953  1.7556  0.1899
 6281TIP3    H240259   2.067   3.255  15.132 -0.1473  0.3471  0.0330
 6282TIP3   OH240260   3.935   0.447   0.779 -0.1089  0.3565 -0.2267
 6282TIP3    H140261   3.880   0.426   0.854  0.1662 -0.3597 -0.2149
 6282TIP3    H240262   3.966   0.536   0.797  0.3040  0.0372  0.7299
 6283TIP3   OH240263   1.309   5.636  11.905  0.3586 -0.8943 -0.2739
 6283TIP3    H140264   1.288   5.722  11.940 -0.4168 -1.2680  0.1978
 6283TIP3    H240265   1.405   5.633  11.907  0.3795 -0.2244  0.1557
 6284TIP3   OH240266   6.101   6.272   1.461 -0.1940 -0.0399 -0.3167
 6284TIP3    H140267   6.093   6.178   1.444  1.1734 -0.8340  2.7961
 6284TIP3    H240268   6.195   6.288   1.462 -0.3729  1.0514  0.6764
 6285TIP3   OH240269   5.532   4.492  12.557  0.9287 -0.6590 -0.5674
 6285TIP3    H140270   5.524   4.409  12.604  0.4686 -0.7990 -0.8805
 6285TIP3    H240271   5.530   4.559  12.625  0.6017 -0.8741 -0.3626
 6286TIP3   OH240272   3.613   1.370  14.244 -0.2934 -0.0584 -0.3795
 6286TIP3    H140273   3.697   1.333  14.215  0.5634 -0.0543  1.9025
 6286TIP3    H240274   3.557   1.294  14.259  0.1934 -0.2396  0.6021
 6287TIP3   OH240275   6.266   0.646  15.292 -0.6620  0.0255  0.0511
 6287TIP3    H140276   6.266   0.693  15.208  1.1894  0.7995  0.4457
 6287TIP3    H240277   6.240   0.712  15.356 -1.3721 -0.3829  0.1928
 6288TIP3   OH240278   0.975   3.605  12.605 -0.1787  0.9404  0.1002
 6288TIP3    H140279   0.959   3.584  12.513  1.1654  0.6626 -0.0840
 6288TIP3    H240280   0.977   3.520  12.649 -1.0423  1.0825  0.4461
 6289TIP3   OH240281   5.760   6.287   3.597 -0.1985 -0.1447  0.7504
 6289TIP3    H140282   5.826   6.231   3.556 -2.2549 -0.0845 -3.1811
 6289TIP3    H240283   5.693   6.226   3.629 -0.0539 -0.0715  1.1994
 6290TIP3   OH240284   3.585   3.971  17.141 -0.2625  0.4987  0.2329
 6290TIP3    H140285   3.609   4.061  17.121  1.0867  0.0419 -0.2960
 6290TIP3    H240286   3.584   3.968  17.237 -0.6005  1.1351  0.2578
 6291TIP3   OH240287   1.737   2.985  12.111  0.4826  0.2995 -0.1448
 6291TIP3    H140288   1.810   2.956  12.166  1.2718  3.2011  0.4911
 6291TIP3    H240289   1.659   2.969  12.165  1.1488  1.9803  1.4439
 6292TIP3   OH240290   5.335   4.905  14.906 -0.1107  0.2753  0.2258
 6292TIP3    H140291   5.399   4.841  14.938 -0.5890 -0.1616  0.3397
 6292TIP3    H240292   5.289   4.858  14.837  0.3115  0.9071 -0.4877
 6293TIP3   OH240293   1.272   3.371   5.895  0.5087 -0.0899  0.8195
 6293TIP3    H140294   1.187   3.330   5.882  0.4159  0.4321 -0.3600
 6293TIP3    H240295   1.256   3.465   5.881  1.3878 -0.0526 -0.0900
 6294TIP3   OH240296   2.829   2.863   3.837 -0.7107  0.7262  0.0273
 6294TIP3    H140297   2.819   2.787   3.895  0.5593  1.4855  1.3150
 6294TIP3    H240298   2.748   2.912   3.846 -1.1557  0.0196 -0.0710
 6295TIP3   OH240299   4.828   3.999  12.745  0.8125  0.0638 -0.2951
 6295TIP3    H140300   4.798   4.063  12.680 -1.2814 -2.0552 -1.6065
 6295TIP3    H240301   4.915   3.974  12.715  1.0560  1.2000 -0.5994
 6296TIP3   OH240302   1.740   4.987  16.669  0.0845  0.7265 -0.5338
 6296TIP3    H140303   1.710   4.903  16.633  0.8544  0.4440 -0.5413
 6296TIP3    H240304   1.835   4.976  16.679 -0.0474  0.9441  1.1913
 6297TIP3   OH240305   2.392   6.172  15.222  0.5530  0.2225 -0.0881
 6297TIP3    H140306   2.384   6.266  15.203  2.8193  0.2674 -1.1417
 6297TIP3    H240307   2.441   6.169  15.304  2.0382 -0.0043 -0.9525
 6298TIP3   OH240308   4.643   5.768  16.852  0.3938  0.4145 -0.1246
 6298TIP3    H140309   4.554   5.803  16.847  0.3291  0.2982  0.1598
 6298TIP3    H240310   4.683   5.790  16.768  0.7703  2.2556  0.4898
 6299TIP3   OH240311   3.514   3.788  11.166  0.2149  0.1990 -0.5442
 6299TIP3    H140312   3.596   3.770  11.121  1.7152  0.1792  2.0091
 6299TIP3    H240313   3.482   3.869  11.126  2.6326  1.4215 -0.1754
 6300TIP3   OH240314   1.680   5.931  16.454 -0.1024  0.2562  0.1350
 6300TIP3    H140315   1.625   5.855  16.475  1.8345 -1.4307 -0.5134
 6300TIP3    H240316   1.704   5.967  16.540 -0.1908 -0.5136  0.4956
 6301TIP3   OH240317   2.382   6.204  13.560 -0.3041  0.1671  0.0118
 6301TIP3    H140318   2.460   6.241  13.520  0.4336 -0.9451  0.3999
 6301TIP3    H240319   2.404   6.195  13.653 -0.3201 -1.6050 -0.1357
 6302TIP3   OH240320   1.170   6.418   3.134  0.3462 -0.5673 -0.0442
 6302TIP3    H140321   1.133   6.498   3.096 -2.2990 -1.0026  1.3646
 6302TIP3    H240322   1.099   6.354   3.128  0.9712 -1.6131  2.4961
 6303TIP3   OH240323   5.301   0.842  14.519  0.7831  0.2095 -0.0968
 6303TIP3    H140324   5.279   0.753  14.491 -0.5133  0.7622 -0.9019
 6303TIP3    H240325   5.285   0.842  14.613  1.7353 -0.6706  0.0797
 6304TIP3   OH240326   5.445   5.292   5.663  0.4296  0.1107  0.3038
 6304TIP3    H140327   5.430   5.252   5.749  0.0250  1.4440  0.8714
 6304TIP3    H240328   5.519   5.243   5.626  2.0257  0.9037  2.3178
 6305TIP3   OH240329   2.433   0.318  14.820 -0.0131 -0.4507 -0.0744
 6305TIP3    H140330   2.476   0.313  14.905  0.9367 -2.3863 -0.6231
 6305TIP3    H240331   2.457   0.405  14.786  0.7240 -0.2051  1.0384
 6306TIP3   OH240332   6.248   1.332   3.069  0.0599 -0.5827 -0.2692
 6306TIP3    H140333   6.309   1.369   3.132 -0.6092 -2.0298  1.3303
 6306TIP3    H240334   6.271   1.372   2.985  1.2901  1.0523  0.8034
 6307TIP3   OH240335   4.569   0.834  14.915 -0.3307 -0.2433  0.0601
 6307TIP3    H140336   4.612   0.757  14.954 -0.7231 -0.0883  0.8285
 6307TIP3    H240337   4.611   0.909  14.958  1.6262  0.1033 -2.2828
 6308TIP3   OH240338   1.540   3.635   3.078 -0.3472  0.2622  0.4996
 6308TIP3    H140339   1.542   3.585   3.159 -1.1544  0.9622  0.9657
 6308TIP3    H240340   1.621   3.687   3.080 -0.6198  0.6736  1.1231
 6309TIP3   OH240341   5.854   3.418  13.964  0.2820  0.1689  0.3322
 6309TIP3    H140342   5.903   3.493  13.931 -0.4823 -0.3054 -2.1524
 6309TIP3    H240343   5.921   3.352  13.982  0.8525  0.9823  1.2769
 6310TIP3   OH240344   2.659   0.901   3.435  0.5502  0.5452 -0.0151
 6310TIP3    H140345   2.597   0.943   3.375  0.1758  0.5319  0.3508
 6310TIP3    H240346   2.702   0.834   3.383 -0.8138 -0.4618  0.0925
 6311TIP3   OH240347   2.193   1.138  10.463 -0.0049 -0.3121 -0.1236
 6311TIP3    H140348   2.283   1.164  10.482  0.3939 -1.8365  0.2068
 6311TIP3    H240349   2.193   1.119  10.370  0.1846 -0.8544 -0.0217
 6312TIP3   OH240350   5.946   4.339  14.923 -0.4412  0.5982  0.1469
 6312TIP3    H140351   5.909   4.263  14.969 -2.5971  1.6327  0.2407
 6312TIP3    H240352   5.884   4.357  14.853  1.9344  0.0890 -2.2600
 6313TIP3   OH240353   5.705   3.627   6.001  0.1339 -0.4477  0.5869
 6313TIP3    H140354   5.695   3.605   6.093 -0.0318 -0.5005  0.5565
 6313TIP3    H240355   5.786   3.586   5.974 -0.2159 -1.0965  0.5061
 6314TIP3   OH240356   0.438   1.412  13.268 -0.0202  0.0685  0.2148
 6314TIP3    H140357   0.491   1.438  13.343  3.1728  1.5903 -2.3448
 6314TIP3    H240358   0.388   1.491  13.246  2.6131  1.2863 -1.9224
 6315TIP3   OH240359   6.614   4.082   5.706 -0.2623  0.1064 -0.5158
 6315TIP3    H140360   6.538   4.060   5.652 -1.5031  2.2853  0.2439
 6315TIP3    H240361   6.578   4.099   5.793  1.4533 -1.3464  0.5483
 6316TIP3   OH240362   3.868   2.536  13.178 -0.4540 -0.2167  0.1346
 6316TIP3    H140363   3.953   2.508  13.143 -0.8401 -0.6216 -0.4953
 6316TIP3    H240364   3.876   2.523  13.272 -0.6764 -2.6980 -0.1207
 6317TIP3   OH240365   2.254   4.062   5.534 -0.0083  0.2762 -0.2266
 6317TIP3    H140366   2.319   4.038   5.468 -0.7779 -0.0174 -0.8943
 6317TIP3    H240367   2.170   4.048   5.491 -0.5193  0.5702  0.6525
 6318TIP3   OH240368   4.354   3.884   1.565 -0.0737 -0.1364 -0.7541
 6318TIP3    H140369   4.440   3.848   1.584 -0.3887 -0.2602  0.5812
 6318TIP3    H240370   4.308   3.815   1.517 -0.0148 -0.7616  0.0712
 6319TIP3   OH240371   5.320   3.758  14.281 -0.5315 -0.2023 -0.2560
 6319TIP3    H140372   5.410   3.728  14.287 -0.1301  0.7778 -1.1987
 6319TIP3    H240373   5.298   3.786  14.370  0.7470  1.3497 -0.4004
 6320TIP3   OH240374   4.698   4.013  11.400  0.0902 -0.5924 -0.4091
 6320TIP3    H140375   4.603   4.012  11.407  0.0086  2.7413  0.4665
 6320TIP3    H240376   4.729   3.971  11.480 -0.6459 -0.3599  0.0000
 6321TIP3   OH240377   0.730   0.132  11.059 -0.4998  0.2798  0.9542
 6321TIP3    H140378   0.676   0.111  10.982  1.9458  1.6633 -1.2869
 6321TIP3    H240379   0.752   0.224  11.048 -0.4046  0.6404  3.6184
 6322TIP3   OH240380   2.005   1.763  11.108 -0.0642 -0.3874  0.1972
 6322TIP3    H140381   2.043   1.848  11.087  0.5194 -0.7968 -0.4531
 6322TIP3    H240382   1.911   1.773  11.093  0.1350 -0.1735 -0.9710
 6323TIP3   OH240383   2.558   3.101  13.473  0.7987 -0.5786 -0.5933
 6323TIP3    H140384   2.625   3.160  13.439  0.2102  0.9430  0.8074
 6323TIP3    H240385   2.504   3.080  13.397  0.3116  1.6526 -0.9028
 6324TIP3   OH240386   3.178   4.012   1.972  0.0171 -0.3155 -0.1427
 6324TIP3    H140387   3.092   3.982   1.942  0.5862 -0.6253 -1.5539
 6324TIP3    H240388   3.232   3.933   1.971  0.6711  0.1332 -0.6220
 6325TIP3   OH240389   2.766   5.945  15.241 -0.2164 -0.3119  0.0528
 6325TIP3    H140390   2.692   5.935  15.302  0.1101 -1.2256  0.3103
 6325TIP3    H240391   2.840   5.969  15.297 -0.1641 -0.0453 -0.1292
 6326TIP3   OH240392   6.712   4.910  16.534  0.2880 -0.8063 -0.2173
 6326TIP3    H140393   6.736   4.823  16.502  1.2944 -0.3917 -0.6346
 6326TIP3    H240394   6.794   4.960  16.531  0.7390 -0.9785  3.9059
 6327TIP3   OH240395   4.926   6.650  11.363 -0.7439 -0.2122 -0.1280
 6327TIP3    H140396   4.883   6.619  11.284  2.7997 -2.7547 -1.3595
 6327TIP3    H240397   5.019   6.651  11.340  0.2276  1.5169  3.2515
 6328TIP3   OH240398   6.526   1.591  15.460 -0.2091 -0.2175 -0.2748
 6328TIP3    H140399   6.588   1.519  15.456  1.1458  0.9648 -2.7942
 6328TIP3    H240400   6.580   1.670  15.451 -1.8398  1.0289  0.2680
 6329TIP3   OH240401   3.417   1.144  14.252 -0.2312 -0.9235  0.2056
 6329TIP3    H140402   3.447   1.053  14.250 -0.3946 -1.0210  1.2636
 6329TIP3    H240403   3.361   1.148  14.330 -0.1575  0.1032  0.2146
 6330TIP3   OH240404   5.210   6.629  12.017 -0.0624 -0.2834  0.0747
 6330TIP3    H140405   5.296   6.588  12.028  0.7593  1.5894  0.8886
 6330TIP3    H240406   5.227   6.705  11.962 -1.5140 -0.7918 -1.1444
 6331TIP3   OH240407   4.378   2.150  13.915 -0.1594 -0.7719  0.4309
 6331TIP3    H140408   4.287   2.167  13.893 -0.2795 -0.9057  0.8220
 6331TIP3    H240409   4.393   2.200  13.995  0.5171  0.3962 -0.3894
 6332TIP3   OH240410   1.734   2.396  10.870  0.2111 -0.1490 -0.5149
 6332TIP3    H140411   1.642   2.393  10.842  0.1202 -1.6754 -0.1001
 6332TIP3    H240412   1.745   2.320  10.926  1.5440  0.4518  0.0814
 6333TIP3   OH240413   1.386   5.670  13.674 -0.5588 -0.1409  0.5909
 6333TIP3    H140414   1.481   5.662  13.673 -0.6397 -1.1129  0.2894
 6333TIP3    H240415   1.354   5.582  13.693 -1.3819  0.3484  1.5887
 6334TIP3   OH240416   2.967   5.082   5.945 -0.0421  0.1776  0.1056
 6334TIP3    H140417   3.015   5.120   6.018 -2.4906  2.4385  0.6906
 6334TIP3    H240418   3.001   4.993   5.938  0.7135  0.0423  3.6456
 6335TIP3   OH240419   0.550   6.565   4.246 -0.0789 -0.4354  0.0215
 6335TIP3    H140420   0.514   6.488   4.290 -1.4373  1.2230  2.0014
 6335TIP3    H240421   0.579   6.622   4.317  2.2170  0.3280 -1.4301
 6336TIP3   OH240422   0.895   4.510   0.006 -0.3856  0.3158  0.0941
 6336TIP3    H140423   0.877   4.530   0.098  0.0779 -1.7530  0.6681
 6336TIP3    H240424   0.989   4.523  -0.003 -0.4425  0.5878 -0.1156
 6337TIP3   OH240425   3.762   0.930   4.110 -0.3256 -0.0130  0.1533
 6337TIP3    H140426   3.727   0.847   4.077 -0.0924  0.1988 -0.6584
 6337TIP3    H240427   3.762   0.921   4.205 -1.2167 -0.5675  0.1015
 6338TIP3   OH240428   4.328   0.196  13.889  0.2377  0.1531 -0.3760
 6338TIP3    H140429   4.359   0.268  13.944 -0.3137  0.1495 -0.0554
 6338TIP3    H240430   4.235   0.212  13.878  0.6113  1.0409 -2.6852
 6339TIP3   OH240431   2.283   3.325  15.745 -0.2220  0.2697 -0.2929
 6339TIP3    H140432   2.361   3.270  15.738  0.5566  0.8192  2.8426
 6339TIP3    H240433   2.210   3.264  15.745  0.4219 -0.5108  0.0385
 6340TIP3   OH240434   4.013   1.828   3.082 -0.0745 -1.4126  0.0331
 6340TIP3    H140435   3.925   1.792   3.091 -0.7362 -0.0922 -0.8015
 6340TIP3    H240436   4.062   1.761   3.036 -0.8962 -1.8030 -0.2851
 6341TIP3   OH240437   3.769   2.603   3.368 -0.1444 -0.1072  0.2444
 6341TIP3    H140438   3.701   2.667   3.389  0.7156  0.5439  1.1697
 6341TIP3    H240439   3.840   2.655   3.331  0.0168 -0.7212 -0.3238
 6342TIP3   OH240440   0.109   6.072   4.480  0.5683  0.4674  0.5295
 6342TIP3    H140441   0.089   6.021   4.559 -0.4381 -0.0578 -0.0468
 6342TIP3    H240442   0.086   6.162   4.504  0.6838  0.3794  0.9833
 6343TIP3   OH240443   6.564   3.227  16.259 -0.0332  0.3720 -0.0516
 6343TIP3    H140444   6.624   3.272  16.200 -0.2696  0.4562 -0.2302
 6343TIP3    H240445   6.516   3.298  16.303  0.9691  0.3420  1.1193
 6344TIP3   OH240446   2.278   1.656  13.583  0.7171 -0.2357 -0.1692
 6344TIP3    H140447   2.235   1.678  13.500  0.1431 -0.4349  0.0718
 6344TIP3    H240448   2.214   1.681  13.650  1.9581  1.8875  0.3314
 6345TIP3   OH240449   6.217   4.719  14.577 -0.0290 -0.4812  0.1186
 6345TIP3    H140450   6.265   4.636  14.579  2.0416  0.6412  0.5312
 6345TIP3    H240451   6.285   4.786  14.590 -1.2747  1.4448 -2.4076
 6346TIP3   OH240452   1.805   3.797   2.759 -0.1144  0.3238 -0.0529
 6346TIP3    H140453   1.767   3.867   2.812 -0.1176  2.1101 -2.2600
 6346TIP3    H240454   1.893   3.786   2.793 -1.0863 -0.8839  2.3465
 6347TIP3   OH240455   0.955   4.740   4.348  0.0583 -0.0168 -0.2968
 6347TIP3    H140456   0.947   4.788   4.430  1.3048 -2.2107  1.2265
 6347TIP3    H240457   1.037   4.690   4.358  0.0501 -0.6303 -2.7241
 6348TIP3   OH240458   6.308   3.864  12.408 -0.2062 -0.1452 -0.1743
 6348TIP3    H140459   6.228   3.905  12.375 -0.6695 -0.7403  0.2092
 6348TIP3    H240460   6.280   3.813  12.484  0.1120 -2.2856 -1.4169
 6349TIP3   OH240461   3.110   6.752   2.816  0.3214  0.2349 -0.1166
 6349TIP3    H140462   3.127   6.829   2.870  0.9049 -1.2164  1.8946
 6349TIP3    H240463   3.020   6.727   2.838 -0.1629  0.7822 -1.3900
 6350TIP3   OH240464   0.785   1.330  11.582  0.0835  0.1174  0.4157
 6350TIP3    H140465   0.731   1.385  11.639  1.5606  2.7744 -0.5927
 6350TIP3    H240466   0.763   1.359  11.493  0.3836 -1.4817 -0.2163
 6351TIP3   OH240467   4.727   3.382   3.467  0.1128  0.1800 -0.4103
 6351TIP3    H140468   4.779   3.462   3.474 -1.0353  0.9894 -0.8287
 6351TIP3    H240469   4.788   3.316   3.434  0.5545  1.4305 -2.1933
 6352TIP3   OH240470   0.146   6.285  11.212  0.3679 -0.1688  0.1055
 6352TIP3    H140471   0.231   6.248  11.237  0.2790 -0.8174 -0.4855
 6352TIP3    H240472   0.099   6.211  11.174  0.4409  0.6929 -1.7796
 6353TIP3   OH240473   1.086   4.533   1.567 -0.2496  0.1259 -0.1735
 6353TIP3    H140474   0.994   4.560   1.558 -0.4012 -0.5851 -0.7714
 6353TIP3    H240475   1.134   4.591   1.508 -0.3964  0.0324 -0.3836
 6354TIP3   OH240476   3.897   5.930   2.278  0.0880 -0.2432 -0.1041
 6354TIP3    H140477   3.803   5.924   2.298  0.2316 -0.1416  0.6611
 6354TIP3    H240478   3.907   5.885   2.195 -0.6648 -0.1366 -0.2640
 6355TIP3   OH240479   4.289   0.384   2.446 -0.2008  0.1569 -0.1238
 6355TIP3    H140480   4.372   0.414   2.484 -0.4748 -0.3302  0.8948
 6355TIP3    H240481   4.311   0.300   2.406 -0.3504 -0.3263  0.7910
 6356TIP3   OH240482   0.880   4.904   1.117  0.0713 -0.2481 -0.0108
 6356TIP3    H140483   0.804   4.845   1.122  1.4033 -2.4193 -2.7710
 6356TIP3    H240484   0.873   4.944   1.031  2.4437 -1.1850 -0.7114
 6357TIP3   OH240485   5.629   3.498   3.425 -0.4593  0.3049  0.0444
 6357TIP3    H140486   5.688   3.540   3.488 -0.6713  2.0224 -0.8588
 6357TIP3    H240487   5.667   3.410   3.413 -1.0855 -0.5771  3.4223
 6358TIP3   OH240488   2.789   2.046  11.055  0.2486  0.1598  0.5732
 6358TIP3    H140489   2.819   2.072  10.968  0.7252 -0.0652  0.6670
 6358TIP3    H240490   2.738   2.121  11.087  1.4827  0.9396  0.7842
 6359TIP3   OH240491   0.245   0.216  13.780 -0.2963  0.6856  0.3464
 6359TIP3    H140492   0.332   0.177  13.765  0.6174  2.4892  0.6442
 6359TIP3    H240493   0.213   0.172  13.859  0.7928  0.6929  0.8191
 6360TIP3   OH240494   0.612   5.155   3.621 -0.2152 -0.0713 -0.1990
 6360TIP3    H140495   0.604   5.191   3.533  0.9280  2.1173  0.5231
 6360TIP3    H240496   0.696   5.187   3.654 -0.9554 -0.1668  1.9710
 6361TIP3   OH240497   2.570   0.747   0.136 -0.1879  0.7144  0.1185
 6361TIP3    H140498   2.614   0.670   0.100 -0.6127  1.0610 -1.1859
 6361TIP3    H240499   2.566   0.730   0.230 -2.8732 -2.2225 -0.3856
 6362TIP3   OH240500   3.574   6.575  16.158  0.0219  0.4652  0.0720
 6362TIP3    H140501   3.633   6.559  16.085 -0.4831  0.7734 -0.4136
 6362TIP3    H240502   3.631   6.576  16.235  0.7811  1.5721 -0.4648
 6363TIP3   OH240503   6.036   2.410  16.343  0.7491  0.3173  0.1449
 6363TIP3    H140504   6.068   2.408  16.253 -0.1227 -0.6175 -0.1535
 6363TIP3    H240505   6.115   2.416  16.396  1.2816  0.6298 -0.6666
 6364TIP3   OH240506   1.319   2.893   4.172 -0.0161  0.4567 -0.1213
 6364TIP3    H140507   1.312   2.881   4.267 -2.4670 -0.3268 -0.3151
 6364TIP3    H240508   1.305   2.986   4.158  0.7816  0.6448  0.3107
 6365TIP3   OH240509   3.029   1.251  15.545 -0.5836 -0.4347  0.5312
 6365TIP3    H140510   2.959   1.298  15.590  1.1840  1.5338  1.3962
 6365TIP3    H240511   3.081   1.213  15.616  0.4843  0.0695  0.0515
 6366TIP3   OH240512   0.022   5.405  16.356  0.1410 -0.4103 -0.0354
 6366TIP3    H140513  -0.058   5.456  16.366  0.2157 -0.0449 -1.1717
 6366TIP3    H240514  -0.007   5.314  16.359  0.1721 -0.4261  3.4473
 6367TIP3   OH240515   2.708   3.610  12.282 -0.1818  0.0114 -0.4068
 6367TIP3    H140516   2.722   3.680  12.218 -0.6545 -0.0270 -0.5619
 6367TIP3    H240517   2.625   3.570  12.255 -0.1741 -0.2745 -0.0140
 6368TIP3   OH240518   2.585   0.473   5.109  0.1049  0.7063 -0.4853
 6368TIP3    H140519   2.543   0.408   5.164  0.7657  1.0077  0.4041
 6368TIP3    H240520   2.513   0.516   5.063 -0.3584 -0.4323 -0.8506
 6369TIP3   OH240521   5.486   1.248   3.273 -0.1448 -1.1097  0.3373
 6369TIP3    H140522   5.559   1.187   3.263  2.2110  1.5634  0.1141
 6369TIP3    H240523   5.484   1.268   3.367  1.6202  1.2168 -0.0398
 6370TIP3   OH240524   6.160   4.972  16.766 -0.9654  0.2714 -0.3807
 6370TIP3    H140525   6.204   5.050  16.800  0.7581 -1.7773  2.5449
 6370TIP3    H240526   6.229   4.925  16.719 -0.7031 -1.5625  1.7166
 6371TIP3   OH240527   4.440   0.151  13.171  0.3902  0.2521  0.1373
 6371TIP3    H140528   4.392   0.234  13.182 -0.2649  0.4284 -3.1478
 6371TIP3    H240529   4.387   0.087  13.220 -1.0930  1.1471 -0.2186
 6372TIP3   OH240530   6.696   6.518   4.642  0.2211 -0.2940  0.1528
 6372TIP3    H140531   6.703   6.606   4.605  0.9283 -0.5116 -0.2627
 6372TIP3    H240532   6.683   6.532   4.736 -3.3482  0.3248 -0.2735
 6373TIP3   OH240533   3.258   4.333   5.193  0.4714 -0.4229  0.2267
 6373TIP3    H140534   3.258   4.427   5.180  1.2278 -0.5698 -1.0590
 6373TIP3    H240535   3.350   4.308   5.188  0.4591 -1.0302  2.3213
 6374TIP3   OH240536   1.574   2.076  12.666  0.1311 -0.2000 -0.4183
 6374TIP3    H140537   1.484   2.049  12.652 -0.7673  2.7916 -1.2052
 6374TIP3    H240538   1.610   2.012  12.728 -2.4911 -1.4929 -0.1246
 6375TIP3   OH240539   1.613   1.114  17.107  0.2089  0.2768 -0.3439
 6375TIP3    H140540   1.545   1.115  17.174 -0.4042 -1.5918 -0.8784
 6375TIP3    H240541   1.674   1.045  17.135  0.0939 -0.3362 -1.5454
 6376TIP3   OH240542   2.801   0.220   3.907 -0.3597 -0.3823  0.0418
 6376TIP3    H140543   2.791   0.282   3.979  0.2452  0.6244 -0.7048
 6376TIP3    H240544   2.861   0.263   3.847  0.0437 -1.6933 -0.5326
 6377TIP3   OH240545   4.194   5.119   2.615 -0.0899 -0.2309  0.1301
 6377TIP3    H140546   4.223   5.193   2.668 -1.7815  0.2411  0.4662
 6377TIP3    H240547   4.105   5.101   2.646 -0.3779 -1.2379 -1.1788
 6378TIP3   OH240548   4.072   0.864   1.792  0.0514  0.7265 -0.1739
 6378TIP3    H140549   4.152   0.812   1.802 -0.4904  0.0612  0.7699
 6378TIP3    H240550   4.069   0.885   1.699  0.7724 -0.1336 -0.4033
 6379TIP3   OH240551   1.375   5.791  13.436 -0.7286  0.3037 -0.0760
 6379TIP3    H140552   1.333   5.875  13.450 -0.3721  0.5201 -0.2869
 6379TIP3    H240553   1.357   5.741  13.516 -2.9324 -0.2772 -0.8654
 6380TIP3   OH240554   5.928   6.763   0.539 -0.7090  0.5181 -0.8184
 6380TIP3    H140555   5.993   6.822   0.577  0.6401 -1.5164  0.1772
 6380TIP3    H240556   5.844   6.802   0.563  0.1210  1.4212  0.8150
 6381TIP3   OH240557   4.444   4.790   5.157 -0.1531  0.3906 -0.0017
 6381TIP3    H140558   4.493   4.864   5.121  0.0715 -0.5100 -1.6494
 6381TIP3    H240559   4.511   4.724   5.177 -0.4985 -0.0256 -0.2022
 6382TIP3   OH240560   0.243   6.080   3.151  0.0664 -0.2927  0.4022
 6382TIP3    H140561   0.186   6.155   3.133  0.6188  0.2080  0.7156
 6382TIP3    H240562   0.263   6.045   3.064 -0.1850 -0.0772  0.2517
 6383TIP3   OH240563   4.318   6.157   4.152  0.0096 -0.1427 -0.4944
 6383TIP3    H140564   4.357   6.170   4.065  0.4886  1.2952 -0.0918
 6383TIP3    H240565   4.320   6.063   4.165 -0.7196 -0.4621 -2.3339
 6384TIP3   OH240566   4.371   1.890  16.613  0.4514  0.4373  0.1789
 6384TIP3    H140567   4.398   1.890  16.521 -2.1214  0.3414 -0.6670
 6384TIP3    H240568   4.339   1.801  16.627 -0.5535  0.8659  0.6904
 6385TIP3   OH240569   3.630   2.536  13.342  0.0284 -0.7652 -0.1558
 6385TIP3    H140570   3.686   2.604  13.304 -1.9053  0.1127 -1.6432
 6385TIP3    H240571   3.623   2.469  13.274 -0.6119 -0.9132  0.0439
 6386TIP3   OH240572   6.784   2.992  11.843  0.0533 -0.6445  0.0918
 6386TIP3    H140573   6.852   2.939  11.803  1.7734  1.2395  0.3496
 6386TIP3    H240574   6.723   3.010  11.771  0.9802 -0.6065 -0.7165
 6387TIP3   OH240575   6.466   5.688   3.022  0.1031 -0.0768 -0.4460
 6387TIP3    H140576   6.458   5.775   3.061  3.0511  0.0296  0.1443
 6387TIP3    H240577   6.537   5.646   3.071 -0.6155 -2.5001 -1.3330
 6388TIP3   OH240578   6.440   6.307  15.390  0.8842 -0.2694  0.0591
 6388TIP3    H140579   6.439   6.391  15.437  0.5270 -0.8769  1.1568
 6388TIP3    H240580   6.412   6.329  15.301  2.0011  0.9753 -0.0270
 6389TIP3   OH240581   3.882   1.017  13.453 -0.2258 -0.9218 -0.0038
 6389TIP3    H140582   3.912   1.020  13.362 -2.4527  0.6720 -0.7574
 6389TIP3    H240583   3.926   1.091  13.495 -1.7099  0.4112 -0.6926
 6390TIP3   OH240584   5.109   1.110  13.066 -0.5509  0.5909  0.1282
 6390TIP3    H140585   5.200   1.079  13.062  0.1803  2.5830  0.1598
 6390TIP3    H240586   5.057   1.036  13.034  1.1831 -0.1738 -1.0864
 6391TIP3   OH240587   4.391   3.745  16.959 -0.0359  0.5160 -0.1996
 6391TIP3    H140588   4.399   3.706  17.046  1.1541 -1.4856 -1.1184
 6391TIP3    H240589   4.325   3.813  16.969  0.2112  0.4928  2.3030
 6392TIP3   OH240590   3.363   4.144  11.292 -0.0857 -0.3203 -0.0807
 6392TIP3    H140591   3.400   4.232  11.289  0.9246 -0.7247 -0.0306
 6392TIP3    H240592   3.268   4.157  11.285  0.0633  0.7500 -0.2844
 6393TIP3   OH240593   2.320   5.142  10.995  0.4442  0.1301  0.2893
 6393TIP3    H140594   2.410   5.175  10.990  1.2658 -2.0827 -1.3159
 6393TIP3    H240595   2.297   5.123  10.904 -1.8000  0.8754  0.6374
 6394TIP3   OH240596   1.373   0.449  11.518  0.4935  0.2835 -0.2990
 6394TIP3    H140597   1.290   0.407  11.498  0.5258  0.7660 -1.5436
 6394TIP3    H240598   1.439   0.385  11.491  0.5493 -0.2054  0.9259
 6395TIP3   OH240599   0.602   4.551  16.501 -0.0985  0.2611  0.6122
 6395TIP3    H140600   0.538   4.486  16.530 -0.3148  0.3215  0.2756
 6395TIP3    H240601   0.557   4.599  16.431  0.7869 -0.5980 -0.5740
 6396TIP3   OH240602   3.594   6.117   2.842  0.0875 -0.1165 -0.1354
 6396TIP3    H140603   3.528   6.049   2.851  0.8008 -0.7529  0.4488
 6396TIP3    H240604   3.676   6.075   2.870  0.9873  0.2491 -2.0803
 6397TIP3   OH240605   0.431   1.818  15.937  0.0950 -0.0028  0.3063
 6397TIP3    H140606   0.490   1.880  15.895  1.1495 -1.0851  0.1042
 6397TIP3    H240607   0.475   1.733  15.927  0.0860 -0.4117  2.9997
 6398TIP3   OH240608   6.434   3.913   0.780 -0.4954 -0.4198  0.7582
 6398TIP3    H140609   6.502   3.880   0.839  0.9684 -0.5295 -0.9267
 6398TIP3    H240610   6.391   3.983   0.830  1.2515  0.0673  1.6662
 6399TIP3   OH240611   0.277   3.871   0.695 -0.1004  0.2237  0.3487
 6399TIP3    H140612   0.353   3.883   0.638 -0.1707 -0.3625  0.1215
 6399TIP3    H240613   0.244   3.784   0.673 -0.1578  0.0046  1.2550
 6400TIP3   OH240614   0.650   5.525   0.904 -0.2227  0.1074  0.4806
 6400TIP3    H140615   0.656   5.619   0.919  1.1767  0.4495 -1.8080
 6400TIP3    H240616   0.741   5.495   0.898 -0.6432 -1.1253 -0.2074
 6401TIP3   OH240617   6.015   0.687  12.305 -0.0068  0.2280  0.4073
 6401TIP3    H140618   6.052   0.774  12.290 -0.2559  0.4571  1.0981
 6401TIP3    H240619   5.954   0.699  12.378 -1.9026 -0.0058 -1.0607
 6402TIP3   OH240620   2.606   2.319   6.078 -0.2983 -0.1492 -0.5332
 6402TIP3    H140621   2.616   2.404   6.036 -1.6691 -0.3141 -1.2403
 6402TIP3    H240622   2.618   2.337   6.171 -1.8226  1.0643 -0.5399
 6403TIP3   OH240623   6.329   4.927  13.076  0.0437 -0.1830 -0.3648
 6403TIP3    H140624   6.377   4.891  13.002  0.1282 -0.4569 -0.1771
 6403TIP3    H240625   6.237   4.911  13.056 -0.2379  2.9307 -2.1446
 6404TIP3   OH240626   2.179   3.636   2.464  0.3049  0.2307  0.1098
 6404TIP3    H140627   2.200   3.637   2.557 -2.0950  0.8690  0.7076
 6404TIP3    H240628   2.133   3.718   2.448 -0.5181 -0.4678 -1.3416
 6405TIP3   OH240629   5.291   1.694  12.061  0.0571 -0.7373  0.2290
 6405TIP3    H140630   5.261   1.685  11.971  0.0065 -2.3011  0.3789
 6405TIP3    H240631   5.298   1.605  12.094 -0.2650 -0.2020  1.8916
 6406TIP3   OH240632   4.561   0.633   3.262  0.3786  0.2376  0.5022
 6406TIP3    H140633   4.517   0.714   3.286 -2.2987 -0.7347 -0.7816
 6406TIP3    H240634   4.624   0.619   3.333  2.0611  4.1297  0.0399
 6407TIP3   OH240635   1.798   3.676   3.388 -0.1091  0.4331  0.1596
 6407TIP3    H140636   1.724   3.622   3.361  0.3591  0.2749 -0.8363
 6407TIP3    H240637   1.872   3.614   3.393  0.5020  1.0043 -1.2729
 6408TIP3   OH240638   5.376   3.776   1.925  0.2754  0.1415  0.2344
 6408TIP3    H140639   5.362   3.690   1.964  1.5226 -0.0417  0.3298
 6408TIP3    H240640   5.350   3.765   1.833  1.7098 -0.7397 -0.0927
 6409TIP3   OH240641   5.763   5.958  16.660  0.0602 -0.2428  0.5784
 6409TIP3    H140642   5.725   6.016  16.726  0.4820  1.1361 -0.3497
 6409TIP3    H240643   5.855   5.984  16.655  0.1215 -0.5944 -0.2591
 6410TIP3   OH240644   6.620   4.694   4.082 -0.4743  0.4455 -0.3744
 6410TIP3    H140645   6.577   4.748   4.148  3.0292  2.4200  0.5380
 6410TIP3    H240646   6.640   4.612   4.127 -0.5732  0.7159  0.1653
 6411TIP3   OH240647   3.878   4.749   3.812 -0.1317  0.5577  0.3763
 6411TIP3    H140648   3.785   4.764   3.828 -0.2347  0.8292 -0.4532
 6411TIP3    H240649   3.922   4.789   3.887 -0.7089 -0.1647  1.1226
 6412TIP3   OH240650   6.344   1.663   2.970 -0.2100  0.1109  0.1160
 6412TIP3    H140651   6.408   1.693   3.035  1.0285  1.2028 -1.5415
 6412TIP3    H240652   6.359   1.568   2.964  0.0823  0.0906  0.9459
 6413TIP3   OH240653   5.516   5.500   5.355 -0.0747 -0.0080 -0.0915
 6413TIP3    H140654   5.475   5.575   5.311 -0.2605 -0.9261 -1.5425
 6413TIP3    H240655   5.539   5.534   5.442 -0.5419  1.6015 -0.5462
 6414TIP3   OH240656   3.433   4.377  12.821 -0.0840  0.0872  0.0368
 6414TIP3    H140657   3.352   4.330  12.841 -0.0168 -1.2934 -2.5146
 6414TIP3    H240658   3.502   4.314  12.842  0.2187  0.4283  0.0661
 6415TIP3   OH240659   3.679   4.831   5.512 -0.2924  0.1193 -0.3499
 6415TIP3    H140660   3.688   4.858   5.604 -1.7266  1.1923 -0.5001
 6415TIP3    H240661   3.738   4.889   5.464 -0.8219  0.7167 -0.2877
 6416TIP3   OH240662   3.994   1.320  16.865 -0.3050 -0.0021 -0.0692
 6416TIP3    H140663   3.924   1.276  16.913 -1.5873  3.9845  2.2076
 6416TIP3    H240664   4.063   1.331  16.930 -1.0745  3.3645  0.3461
 6417TIP3   OH240665   2.655   3.831  13.500 -0.0465  0.2465 -0.3960
 6417TIP3    H140666   2.635   3.738  13.508  0.6466  0.0249 -1.0287
 6417TIP3    H240667   2.692   3.855  13.584  1.8921 -0.6304 -0.9318
 6418TIP3   OH240668   1.520   3.044  16.761 -0.3741  0.2674  0.6942
 6418TIP3    H140669   1.431   3.028  16.793 -0.5383  0.0557  0.1501
 6418TIP3    H240670   1.512   3.125  16.710 -0.1377  0.5479  1.0954
 6419TIP3   OH240671   0.575   2.577  11.200 -0.6311 -0.0581  0.5209
 6419TIP3    H140672   0.574   2.581  11.104 -0.0639 -1.8387  0.3963
 6419TIP3    H240673   0.567   2.483  11.219  0.1488  0.1916  2.2032
 6420TIP3   OH240674   5.280   0.146  13.696  0.1867 -0.1857  0.1260
 6420TIP3    H140675   5.300   0.226  13.648 -1.1447  0.2936  0.3294
 6420TIP3    H240676   5.276   0.173  13.788  0.1377 -0.5683  0.2397
 6421TIP3   OH240677   4.767   2.688  13.399  0.1736 -0.5774 -0.2150
 6421TIP3    H140678   4.781   2.782  13.390  1.4887 -0.8743 -1.8914
 6421TIP3    H240679   4.838   2.658  13.455  1.1693 -0.8411 -1.5456
 6422TIP3   OH240680   2.258   1.149   4.717  0.5111  0.3616  0.0978
 6422TIP3    H140681   2.180   1.172   4.768  0.2978  0.8476 -0.4386
 6422TIP3    H240682   2.225   1.131   4.629  0.8028 -1.0409  0.2605
 6423TIP3   OH240683   3.875   2.079   0.427  0.2367  0.1049 -0.0593
 6423TIP3    H140684   3.916   2.161   0.398 -1.6345  1.2777  0.3974
 6423TIP3    H240685   3.878   2.022   0.351  1.2774  0.6984 -0.4953
 6424TIP3   OH240686   4.714   2.872  17.195 -0.3971  0.4216  0.4502
 6424TIP3    H140687   4.636   2.876  17.250 -1.2254 -0.8510 -0.5782
 6424TIP3    H240688   4.686   2.824  17.117  0.7885  1.9611 -1.0068
 6425TIP3   OH240689   5.665   3.788  15.834 -0.6537  0.4608  0.2477
 6425TIP3    H140690   5.619   3.719  15.787  0.7390  0.3298 -0.9868
 6425TIP3    H240691   5.621   3.792  15.919 -1.0525 -1.6232  0.1898
 6426TIP3   OH240692   4.699   3.671  12.228 -0.3220 -0.1004 -0.3551
 6426TIP3    H140693   4.703   3.759  12.267 -0.0403 -0.7473  1.1396
 6426TIP3    H240694   4.788   3.637  12.237 -0.3598 -0.4427 -1.1955
 6427TIP3   OH240695   2.107   5.549  15.563  0.0691  0.0017  0.2528
 6427TIP3    H140696   2.162   5.471  15.548 -0.5169 -0.4269  0.2970
 6427TIP3    H240697   2.137   5.612  15.497 -0.3507 -0.7453 -0.6813
 6428TIP3   OH240698   2.754   1.441  15.144 -0.0991 -0.0387  0.2481
 6428TIP3    H140699   2.849   1.450  15.154  0.0324 -0.4960 -0.5274
 6428TIP3    H240700   2.725   1.398  15.225  0.4723 -0.6137  0.1572
 6429TIP3   OH240701   3.193   5.338   2.235  0.4235  0.8126  0.2395
 6429TIP3    H140702   3.151   5.423   2.242 -1.3980 -0.1336  1.5562
 6429TIP3    H240703   3.159   5.301   2.153 -1.5495  0.0117  1.3420
 6430TIP3   OH240704   6.269   1.577  15.039  0.2691 -0.0799  0.2044
 6430TIP3    H140705   6.262   1.484  15.063 -1.3455  0.0762  0.5036
 6430TIP3    H240706   6.345   1.582  14.982 -0.2993 -1.7995 -0.7622
 6431TIP3   OH240707   5.574   0.624   2.032  0.4951 -0.3621  0.2393
 6431TIP3    H140708   5.593   0.588   1.945 -0.6135 -2.1174  0.6757
 6431TIP3    H240709   5.623   0.706   2.035 -2.1459  1.6371 -3.4036
 6432TIP3   OH240710   0.266   0.015  16.520 -0.7360  0.4734 -0.5075
 6432TIP3    H140711   0.329   0.068  16.570 -0.3217  2.1030 -2.6253
 6432TIP3    H240712   0.310  -0.069  16.507  0.5925  1.2280 -1.0596
 6433TIP3   OH240713   5.407   1.456   0.144  0.2742 -0.4985  0.4356
 6433TIP3    H140714   5.461   1.517   0.094  0.0891  0.4490  1.3427
 6433TIP3    H240715   5.370   1.397   0.079  1.5340 -0.4901 -0.3180
 6434TIP3   OH240716   5.202   2.595   5.107  0.5168  0.3229 -0.3226
 6434TIP3    H140717   5.203   2.688   5.129  1.1367  0.1843  0.2792
 6434TIP3    H240718   5.184   2.593   5.014 -0.7121  0.9937 -0.1217
 6435TIP3   OH240719   2.078   0.528   4.471  0.1924 -0.1274  0.0625
 6435TIP3    H140720   2.060   0.557   4.561 -2.5444 -1.1779 -0.0649
 6435TIP3    H240721   2.038   0.594   4.416 -1.7033 -1.4816 -0.2768
 6436TIP3   OH240722   0.543   0.684   5.460  0.3495  0.1004 -0.1224
 6436TIP3    H140723   0.480   0.613   5.473 -0.4676  0.6869 -0.7365
 6436TIP3    H240724   0.622   0.654   5.504  0.2668 -1.5139 -0.9733
 6437TIP3   OH240725   4.729   2.837  13.832 -0.2280 -0.1462  0.0741
 6437TIP3    H140726   4.673   2.841  13.909 -0.5461 -0.5300 -0.1347
 6437TIP3    H240727   4.736   2.743  13.812  1.0228 -0.1623  0.4838
 6438TIP3   OH240728   0.815   2.228  11.899 -0.1550  0.6403  0.1588
 6438TIP3    H140729   0.795   2.154  11.956 -0.9567  0.4618 -0.3202
 6438TIP3    H240730   0.838   2.300  11.958  1.6564 -0.2569  0.5997
 6439TIP3   OH240731   2.931   5.794  16.561  0.0888 -0.8331 -0.1788
 6439TIP3    H140732   3.015   5.747  16.564  1.3069  1.2243 -0.2336
 6439TIP3    H240733   2.942   5.868  16.620 -0.3832  1.4358 -2.7205
 6440TIP3   OH240734   1.174   3.533  15.001  0.4574  0.1713  0.3228
 6440TIP3    H140735   1.108   3.500  15.062 -0.5305 -0.7667 -1.1793
 6440TIP3    H240736   1.230   3.457  14.984  0.4236  0.2811 -0.2976
 6441TIP3   OH240737   0.372   1.112  14.402  0.2845 -0.1435 -0.0284
 6441TIP3    H140738   0.292   1.086  14.447  0.6107 -0.3064  0.4570
 6441TIP3    H240739   0.349   1.107  14.309 -0.3142 -0.0409  0.1077
 6442TIP3   OH240740   6.474   6.369  11.640  0.1214 -0.4240 -0.0099
 6442TIP3    H140741   6.443   6.368  11.731 -1.9939  0.7253 -0.6542
 6442TIP3    H240742   6.459   6.458  11.610  3.1174 -0.0759 -0.8197
 6443TIP3   OH240743   2.564   3.278  11.846  0.0752 -0.6072 -0.3343
 6443TIP3    H140744   2.615   3.242  11.773  2.2573 -0.2974  0.9612
 6443TIP3    H240745   2.623   3.339  11.889 -1.5396  0.0335  1.0790
 6444TIP3   OH240746   3.117   6.095   6.075  0.0986 -0.1578  0.7668
 6444TIP3    H140747   3.139   6.182   6.108 -1.0499  0.2845  0.4114
 6444TIP3    H240748   3.106   6.042   6.154  0.2064  0.1712  1.0050
 6445TIP3   OH240749   6.711   2.216   1.146 -0.1306  0.2797  0.0082
 6445TIP3    H140750   6.792   2.219   1.095  0.0588  1.0850  0.3450
 6445TIP3    H240751   6.645   2.255   1.089  0.1683  1.5725  0.5106
 6446TIP3   OH240752   2.398   5.362  15.711  0.4483 -0.2724  0.3521
 6446TIP3    H140753   2.325   5.319  15.667 -0.9298 -0.0134  2.2121
 6446TIP3    H240754   2.460   5.382  15.642 -0.5361 -1.9129 -1.0859
 6447TIP3   OH240755   2.214   5.247   1.911  0.2659 -0.0990 -0.4686
 6447TIP3    H140756   2.182   5.321   1.860 -1.4246  0.2946  1.0505
 6447TIP3    H240757   2.306   5.237   1.884 -0.1161  1.0368 -2.3924
 6448TIP3   OH240758   0.077   5.298   5.307  0.2375  0.0762  0.2046
 6448TIP3    H140759   0.073   5.290   5.402  1.0801 -0.5763  0.1886
 6448TIP3    H240760   0.153   5.246   5.281  0.7724  1.2564 -0.7065
 6449TIP3   OH240761   6.154   3.161  12.484 -0.7846 -0.1965  0.0549
 6449TIP3    H140762   6.074   3.123  12.521  0.0747 -0.7083  1.4646
 6449TIP3    H240763   6.184   3.222  12.551 -0.9624  1.3979 -1.2540
 6450TIP3   OH240764   5.539   0.282   4.679 -0.6230 -0.2383 -0.4701
 6450TIP3    H140765   5.563   0.228   4.754  0.8026  0.3609 -0.4676
 6450TIP3    H240766   5.603   0.352   4.678 -1.2847  0.3856 -1.6107
 6451TIP3   OH240767   3.204   3.386   2.737 -0.0587 -0.5471  0.1838
 6451TIP3    H140768   3.181   3.328   2.810 -1.1293  0.5205  0.7129
 6451TIP3    H240769   3.219   3.326   2.664  0.4979 -1.6048  1.1248
 6452TIP3   OH240770   3.035   3.113   3.324 -0.1896 -0.1477  0.0024
 6452TIP3    H140771   2.978   3.062   3.382 -0.2105  0.0943  0.1995
 6452TIP3    H240772   3.121   3.107   3.364 -0.2968  0.4276  0.3391
 6453TIP3   OH240773   5.378   1.619   3.358  0.9689  0.5802  0.2503
 6453TIP3    H140774   5.443   1.581   3.299 -1.4354 -2.3681 -0.7549
 6453TIP3    H240775   5.393   1.575   3.442 -2.0028 -3.3520 -0.9863
 6454TIP3   OH240776   4.220   2.233  11.668  0.3525 -0.4631  0.2685
 6454TIP3    H140777   4.214   2.328  11.675  1.1448 -0.4153  0.3911
 6454TIP3    H240778   4.130   2.205  11.650  0.3491  0.4427 -1.3622
 6455TIP3   OH240779   3.576   2.265  11.184 -0.1416 -0.1815 -0.4787
 6455TIP3    H140780   3.545   2.315  11.108 -1.2488 -0.2846 -0.1157
 6455TIP3    H240781   3.581   2.330  11.254  0.2630 -0.2104 -0.4801
 6456TIP3   OH240782   1.227   3.428  11.206  0.0417  0.2969  0.1130
 6456TIP3    H140783   1.167   3.379  11.262  0.1557 -0.1242 -0.1298
 6456TIP3    H240784   1.237   3.513  11.250  0.9075 -0.3715  1.2487
 6457TIP3   OH240785   3.367   0.388  14.825  0.5732 -0.2605  0.4963
 6457TIP3    H140786   3.301   0.350  14.767  2.6003 -1.8112 -0.9130
 6457TIP3    H240787   3.321   0.399  14.909 -1.5596 -0.8718 -0.5276
 6458TIP3   OH240788   6.342   5.427   1.909 -0.0415  0.0282 -0.1466
 6458TIP3    H140789   6.273   5.483   1.874  0.3520  0.0205 -0.9448
 6458TIP3    H240790   6.297   5.347   1.936 -0.4407  0.2895 -0.0241
 6459TIP3   OH240791   6.783   5.563   4.008  0.0296  0.2549  0.0392
 6459TIP3    H140792   6.799   5.600   3.922  2.7019  0.9238  0.7177
 6459TIP3    H240793   6.860   5.508   4.025 -1.5836 -1.8348  1.0316
 6460TIP3   OH240794   3.847   0.766   3.776 -0.1491  0.1426 -0.5312
 6460TIP3    H140795   3.805   0.784   3.692 -0.1957 -0.5143 -0.6613
 6460TIP3    H240796   3.783   0.713   3.823 -1.0015  2.2517  0.7751
 6461TIP3   OH240797   1.098   2.271  11.526 -0.0475  0.2940  0.0167
 6461TIP3    H140798   1.193   2.268  11.534 -0.0712  1.0980  0.7510
 6461TIP3    H240799   1.080   2.238  11.438  0.8416 -0.7456  0.2112
 6462TIP3   OH240800   6.180   1.808  14.896 -0.0197  0.0563  0.4093
 6462TIP3    H140801   6.209   1.741  14.958  0.1448  0.7097  1.0618
 6462TIP3    H240802   6.179   1.764  14.811  0.5629 -0.6364  0.7482
 6463TIP3   OH240803   0.348   4.047  12.098 -0.4020  0.7331  0.3546
 6463TIP3    H140804   0.265   4.033  12.143  0.1403 -1.9157  0.7332
 6463TIP3    H240805   0.323   4.078  12.011 -1.8163 -0.2632  0.3715
 6464TIP3   OH240806   1.762   1.077  15.218 -0.4566  0.1799 -0.2132
 6464TIP3    H140807   1.756   1.156  15.164  0.3505 -0.4107 -1.1803
 6464TIP3    H240808   1.742   1.005  15.159 -0.1584 -0.4332  0.4150
 6465TIP3   OH240809   2.430   0.529  12.295  0.3412  0.7404 -0.2866
 6465TIP3    H140810   2.479   0.459  12.254  0.1387  0.3038  0.2111
 6465TIP3    H240811   2.387   0.574  12.222  0.1039  0.0652 -0.5712
 6466TIP3   OH240812   6.758   3.694  16.666 -0.3174  0.6814 -0.4534
 6466TIP3    H140813   6.685   3.744  16.703 -1.7899 -1.2252 -0.6383
 6466TIP3    H240814   6.832   3.754  16.670 -1.5469  2.2110  1.0623
 6467TIP3   OH240815   4.479   4.801   2.911  0.7186  0.2919 -0.1450
 6467TIP3    H140816   4.528   4.797   2.828  2.2282  0.9840  0.6651
 6467TIP3    H240817   4.441   4.889   2.912 -0.3624 -0.1494 -0.6457
 6468TIP3   OH240818   1.141   1.796  15.687 -0.2719  0.0256  0.5415
 6468TIP3    H140819   1.112   1.887  15.690 -0.0228  0.0800  1.9001
 6468TIP3    H240820   1.087   1.756  15.619 -0.1135  1.2705 -0.3559
 6469TIP3   OH240821   4.713   5.650   2.128 -0.1207 -0.7490 -0.2534
 6469TIP3    H140822   4.734   5.634   2.035 -1.0216 -1.4774 -0.3366
 6469TIP3    H240823   4.706   5.746   2.134  1.8022 -0.5464 -0.5110
 6470TIP3   OH240824   3.231   0.748  15.274 -0.0937 -0.2395 -1.0040
 6470TIP3    H140825   3.288   0.796  15.213 -0.5325  0.1426 -1.1227
 6470TIP3    H240826   3.290   0.716  15.342  0.2062  0.5066 -0.9037
 6471TIP3   OH240827   5.050   1.401   0.119  0.1600  0.4309 -0.4640
 6471TIP3    H140828   5.016   1.405   0.030  1.0871  0.7004 -0.8169
 6471TIP3    H240829   5.142   1.376   0.109  0.4851  1.2244  0.3547
 6472TIP3   OH240830   0.200   5.045  14.459 -0.4282  0.1958  0.6167
 6472TIP3    H140831   0.219   4.967  14.406  0.2133  1.0571 -0.4531
 6472TIP3    H240832   0.218   5.118  14.401  0.6518  1.1958  2.1299
 6473TIP3   OH240833   1.604   3.649  10.421  0.8773 -0.7295 -0.1852
 6473TIP3    H140834   1.661   3.572  10.415  1.9546 -0.0421  0.6833
 6473TIP3    H240835   1.531   3.620  10.475  2.4438 -0.5418  2.1838
 6474TIP3   OH240836   6.399   2.961   0.377 -0.4602  0.4508 -1.1863
 6474TIP3    H140837   6.432   3.045   0.409 -0.1843 -0.0841 -0.0115
 6474TIP3    H240838   6.343   2.984   0.303  0.9064  1.5374 -1.9398
 6475TIP3   OH240839   1.758   4.780   4.553 -0.0948  0.2032 -0.7068
 6475TIP3    H140840   1.758   4.783   4.457 -2.0888  3.2381 -0.7517
 6475TIP3    H240841   1.841   4.819   4.578  2.2755 -4.1091 -1.0001
 6476TIP3   OH240842   0.884   1.249  15.027 -0.4549  0.2469  0.3495
 6476TIP3    H140843   0.901   1.285  15.113 -0.4412  0.5113  0.2363
 6476TIP3    H240844   0.885   1.324  14.968 -0.5389  0.0788  0.1295
 6477TIP3   OH240845   1.948   2.972   0.796  0.3467 -0.5066  0.0391
 6477TIP3    H140846   2.040   2.953   0.778  0.6060 -0.1635  0.9293
 6477TIP3    H240847   1.936   2.950   0.888  0.5506  2.9723  1.0610
 6478TIP3   OH240848   5.821   0.005   4.802  0.0242  0.3337 -0.1358
 6478TIP3    H140849   5.737   0.041   4.832 -0.0426 -1.4816  2.1422
 6478TIP3    H240850   5.885   0.040   4.863  0.8134  0.8712 -1.2315
 6479TIP3   OH240851   2.154   4.147  12.416  0.4863 -0.4062 -0.5542
 6479TIP3    H140852   2.239   4.108  12.398  0.2567 -0.8530 -0.6810
 6479TIP3    H240853   2.119   4.097  12.489  0.5238  0.0666 -0.2081
 6480TIP3   OH240854   5.863   4.324   0.593  0.0887  0.0789 -0.2152
 6480TIP3    H140855   5.892   4.278   0.514  1.3404 -1.9201  1.3074
 6480TIP3    H240856   5.931   4.389   0.610  0.3261 -0.1601 -0.2458
 6481TIP3   OH240857   2.184   6.479  11.362  0.4972  0.1430  0.6357
 6481TIP3    H140858   2.261   6.459  11.308  0.9694  1.0031  0.9695
 6481TIP3    H240859   2.110   6.471  11.302  1.0245  1.2006 -0.1887
 6482TIP3   OH240860   4.885   6.723   1.077  0.3545  0.0315  0.3597
 6482TIP3    H140861   4.815   6.687   1.132  0.8632 -2.4596 -0.5150
 6482TIP3    H240862   4.861   6.815   1.065 -1.4639 -0.1526  2.0669
 6483TIP3   OH240863   3.930   5.342   3.117 -0.6713 -0.7863  0.3749
 6483TIP3    H140864   3.903   5.420   3.167 -0.9671 -0.5487 -0.1536
 6483TIP3    H240865   3.965   5.282   3.184  1.2591  0.4930  0.5968
 6484TIP3   OH240866   5.087   4.689   1.655  0.4822 -0.8838 -0.2457
 6484TIP3    H140867   5.139   4.661   1.731 -0.4747 -0.8175  0.4511
 6484TIP3    H240868   5.052   4.608   1.619  0.4228 -0.8688 -0.2231
 6485TIP3   OH240869   0.845   3.647   0.861  0.0790  0.3607 -0.1001
 6485TIP3    H140870   0.884   3.570   0.904  0.9528  1.5500  1.3426
 6485TIP3    H240871   0.754   3.623   0.848  0.5788 -1.3671 -0.7826
 6486TIP3   OH240872   6.129   4.256  14.112  0.1865  0.0667  0.5141
 6486TIP3    H140873   6.044   4.217  14.094 -0.7925  2.4565 -0.4505
 6486TIP3    H240874   6.117   4.304  14.194  1.5863 -2.1304  2.1029
 6487TIP3   OH240875   5.379   1.051  10.747  0.4497 -0.4438 -0.0464
 6487TIP3    H140876   5.465   1.018  10.721  0.2871 -0.5257 -0.4780
 6487TIP3    H240877   5.369   1.134  10.700 -0.0266 -0.8041 -0.5916
 6488TIP3   OH240878   2.490   6.688  13.924  0.2900 -0.0689  0.3736
 6488TIP3    H140879   2.566   6.730  13.966  0.4431 -0.0000  0.0309
 6488TIP3    H240880   2.429   6.672  13.996  1.1329 -1.2430  0.8501
 6489TIP3   OH240881   1.601   0.321   0.410 -0.6551 -0.0788  0.2554
 6489TIP3    H140882   1.548   0.258   0.459 -1.2266 -1.1916 -1.6696
 6489TIP3    H240883   1.538   0.385   0.377 -0.1498  1.2316  1.7072
 6490TIP3   OH240884   4.287   0.176   1.250 -0.2696 -0.2277 -0.8501
 6490TIP3    H140885   4.315   0.254   1.299  2.8685 -2.6438  1.6015
 6490TIP3    H240886   4.257   0.115   1.317  0.2401 -2.2156 -2.3591
 6491TIP3   OH240887   3.587   3.773  12.269 -0.1254 -0.3518  0.4686
 6491TIP3    H140888   3.541   3.854  12.292 -1.2578 -0.7142 -0.3877
 6491TIP3    H240889   3.521   3.722  12.221  0.9447 -1.2654 -0.0569
 6492TIP3   OH240890   5.433   1.403  14.730 -0.9667  0.0034  0.1531
 6492TIP3    H140891   5.467   1.439  14.811 -0.0448  0.8560 -0.5783
 6492TIP3    H240892   5.406   1.314  14.752 -0.8498  0.2578  1.4034
 6493TIP3   OH240893   5.415   6.702  13.683  0.2369  0.2541 -0.1314
 6493TIP3    H140894   5.348   6.638  13.658 -0.1921  1.3708 -2.0539
 6493TIP3    H240895   5.368   6.786  13.682  1.5368  0.9919 -0.9654
 6494TIP3   OH240896   3.896   0.946  14.290  0.4993 -0.7311  0.5940
 6494TIP3    H140897   3.900   0.858  14.325  1.2381 -0.5430  1.0071
 6494TIP3    H240898   3.986   0.978  14.294  0.7659 -0.9220 -2.0326
 6495TIP3   OH240899   0.084   5.744   3.767 -0.0171 -0.8534  0.1323
 6495TIP3    H140900   0.146   5.719   3.699 -2.2277 -3.7522 -1.0184
 6495TIP3    H240901   0.047   5.827   3.737  2.4364  0.3964  0.3411
 6496TIP3   OH240902   1.687   2.701  10.797  0.0864  0.3023  0.0316
 6496TIP3    H140903   1.774   2.673  10.770  0.6481  2.2507 -0.3049
 6496TIP3    H240904   1.671   2.655  10.880  2.0024  0.9075  0.7887
 6497TIP3   OH240905   6.619   2.875   3.487  0.4376 -0.5031 -0.9685
 6497TIP3    H140906   6.584   2.863   3.399  0.8605 -0.4560 -1.1455
 6497TIP3    H240907   6.631   2.970   3.495  0.4348 -0.5105 -0.8721
 6498TIP3   OH240908   2.499   4.932  13.529  0.1844 -0.6050  0.2724
 6498TIP3    H140909   2.423   4.941  13.470  1.8080 -0.7827 -1.9855
 6498TIP3    H240910   2.534   5.021  13.535  0.1207 -0.6181  0.8773
 6499TIP3   OH240911   5.593   1.739   2.078  0.1849 -0.4292  0.0979
 6499TIP3    H140912   5.624   1.710   2.165 -0.7823  1.0397  0.9576
 6499TIP3    H240913   5.502   1.712   2.075 -1.2668  3.6336  1.5792
 6500TIP3   OH240914   0.884   1.731  13.679  0.6925  0.2319  0.6170
 6500TIP3    H140915   0.896   1.825  13.689  1.3091  0.0570  1.6032
 6500TIP3    H240916   0.815   1.709  13.742 -0.5055  0.2341 -0.6358
 6501TIP3   OH240917   3.826   4.355   1.936  0.3226  0.6947 -0.0657
 6501TIP3    H140918   3.747   4.324   1.979  1.3830  0.1405  1.5786
 6501TIP3    H240919   3.844   4.440   1.976  1.4289  0.0894  0.7804
 6502TIP3   OH240920   0.055   1.842   3.082  0.0954  0.0177 -0.0071
 6502TIP3    H140921   0.103   1.761   3.103 -0.8300 -0.7634 -0.7871
 6502TIP3    H240922   0.108   1.885   3.015 -0.0289 -0.6046 -0.5212
 6503TIP3   OH240923   0.208   6.308   4.221  0.3090  0.1617  0.2534
 6503TIP3    H140924   0.182   6.390   4.260  0.3487  2.0024 -3.1806
 6503TIP3    H240925   0.127   6.270   4.186  0.6202  0.0486 -0.3728
 6504TIP3   OH240926   6.003   4.632  12.560  0.5224 -0.3337 -0.0933
 6504TIP3    H140927   6.020   4.655  12.469  0.4332 -0.0594 -0.0414
 6504TIP3    H240928   6.026   4.711  12.609  0.7767 -0.5514  0.1437
 6505TIP3   OH240929   2.902   6.255   1.207  0.1088 -0.0409  0.2946
 6505TIP3    H140930   2.826   6.270   1.151  0.6395 -0.0309 -0.4411
 6505TIP3    H240931   2.905   6.160   1.219 -0.2171 -0.0098  0.5993
 6506TIP3   OH240932   2.900   6.393  12.993  0.7959 -0.2473  0.5974
 6506TIP3    H140933   2.853   6.382  13.076  2.5773  2.2090  2.0598
 6506TIP3    H240934   2.911   6.488  12.984  1.7612 -0.5183 -1.8407
 6507TIP3   OH240935   3.973   4.957   1.813  0.1182  0.0467  0.3752
 6507TIP3    H140936   4.043   4.956   1.748  0.4058  1.5287  0.6290
 6507TIP3    H240937   4.018   4.951   1.897  0.0572  2.0578  0.5889
 6508TIP3   OH240938   0.491   0.715   4.669  0.0902 -0.4725  0.3775
 6508TIP3    H140939   0.566   0.773   4.677  0.6279 -1.1194  0.0870
 6508TIP3    H240940   0.503   0.650   4.738  0.6586 -1.5155 -0.6601
 6509TIP3   OH240941   1.153   3.987   3.174  0.3400  0.1316 -0.3370
 6509TIP3    H140942   1.170   3.922   3.242 -1.9263 -0.8886 -0.6449
 6509TIP3    H240943   1.062   3.970   3.146  1.5223 -0.4696 -4.6176
 6510TIP3   OH240944   3.019   4.781  14.606  0.1289 -0.1629  0.4313
 6510TIP3    H140945   2.967   4.749  14.680 -0.1579 -1.3592 -0.2580
 6510TIP3    H240946   3.003   4.717  14.537 -0.0188  1.2179 -0.8513
 6511TIP3   OH240947   3.521   5.498   5.104 -0.2792  0.4430  0.0298
 6511TIP3    H140948   3.583   5.568   5.084  0.6587 -0.6384 -1.0231
 6511TIP3    H240949   3.574   5.430   5.146 -0.8324 -0.3026 -0.4557
 6512TIP3   OH240950   6.495   6.717  14.582 -0.3002  0.0220  0.1142
 6512TIP3    H140951   6.453   6.739  14.499 -0.6924 -4.4681 -1.1503
 6512TIP3    H240952   6.589   6.723  14.563 -0.3891 -0.7145 -0.6377
 6513TIP3   OH240953   2.216   2.752   1.491 -0.7406 -0.0005  0.9232
 6513TIP3    H140954   2.265   2.675   1.519 -0.7986  0.5127  2.5001
 6513TIP3    H240955   2.241   2.821   1.553 -1.7041  0.8935  0.3545
 6514TIP3   OH240956   6.533   5.405   6.392 -0.2384  0.4642 -0.2962
 6514TIP3    H140957   6.499   5.433   6.477 -0.7023  0.0056 -0.3286
 6514TIP3    H240958   6.486   5.324   6.372 -0.9700  1.1602 -1.5206
 6515TIP3   OH240959   5.749   5.604   4.333  1.2832 -0.0007  0.7905
 6515TIP3    H140960   5.688   5.652   4.276 -0.1741 -0.2245  2.1072
 6515TIP3    H240961   5.784   5.535   4.277  0.0942 -0.0582  0.0734
 6516TIP3   OH240962   2.555   5.711  16.648 -0.2501  0.1250 -0.1126
 6516TIP3    H140963   2.633   5.708  16.702 -0.8159  1.3353  0.8309
 6516TIP3    H240964   2.568   5.788  16.592 -0.5814  0.0815 -0.2554
 6517TIP3   OH240965   1.670   0.479  12.463 -0.0453  0.2176  0.1517
 6517TIP3    H140966   1.733   0.407  12.461 -1.3887 -0.9841 -1.2087
 6517TIP3    H240967   1.601   0.449  12.522  0.2966  1.2288  1.0893
 6518TIP3   OH240968   5.604   4.708   3.193  0.9120  0.3182  0.2153
 6518TIP3    H140969   5.546   4.779   3.164  1.9561 -0.1404 -3.6098
 6518TIP3    H240970   5.545   4.644   3.234 -0.6040  1.7310  0.3298
 6519TIP3   OH240971   0.720   2.077   5.647  0.2457 -0.2151  0.1685
 6519TIP3    H140972   0.797   2.019   5.644  0.3650 -0.0590 -2.8681
 6519TIP3    H240973   0.755   2.164   5.627 -0.6471 -0.1097 -1.0579
 6520TIP3   OH240974   6.650   3.109  11.438  0.4681  0.5783 -0.3877
 6520TIP3    H140975   6.576   3.056  11.409  2.1562 -1.6480 -0.9356
 6520TIP3    H240976   6.658   3.177  11.371 -0.5858  0.3410 -0.7696
 6521TIP3   OH240977   1.852   2.438   3.496  0.1882 -0.2614  0.1837
 6521TIP3    H140978   1.903   2.396   3.426 -2.7893 -2.1277 -1.0520
 6521TIP3    H240979   1.830   2.524   3.460 -0.7434 -0.9414 -0.9352
 6522TIP3   OH240980   6.779   2.985  14.384 -0.0084 -0.5258  0.0946
 6522TIP3    H140981   6.783   2.915  14.318  0.1744 -0.2335 -0.2095
 6522TIP3    H240982   6.787   3.066  14.333  0.4165 -0.3055  0.5120
 6523TIP3   OH240983   6.784   4.641   0.918 -0.1870  0.2013 -0.1461
 6523TIP3    H140984   6.809   4.567   0.863  0.9040  0.9293 -0.6706
 6523TIP3    H240985   6.763   4.711   0.856  3.5703  1.8809  0.2120
 6524TIP3   OH240986   6.205   5.886   1.948  0.0365  0.3862  0.2708
 6524TIP3    H140987   6.121   5.840   1.947  0.2258  0.0266 -0.5807
 6524TIP3    H240988   6.259   5.835   2.008  0.5417 -1.1188 -1.3710
 6525TIP3   OH240989   6.508   2.940   4.812 -0.7847 -0.3744  0.2119
 6525TIP3    H140990   6.558   2.891   4.747 -0.1898 -0.3533  0.6506
 6525TIP3    H240991   6.498   3.028   4.774  1.2669  0.2398  0.9755
 6526TIP3   OH240992   4.035   6.342  12.972 -0.1491  0.6606 -0.1364
 6526TIP3    H140993   4.011   6.319  13.062  0.4111  2.1753  0.4347
 6526TIP3    H240994   3.964   6.307  12.918 -1.0012  0.6050  0.9979
 6527TIP3   OH240995   6.754   6.649  14.012 -0.4438 -0.1177  0.6378
 6527TIP3    H140996   6.683   6.642  13.949  0.3230  1.3253 -0.4702
 6527TIP3    H240997   6.722   6.606  14.091 -2.1491 -0.3475 -0.1504
 6528TIP3   OH240998   5.939   2.781   1.659 -0.3694  0.4486  0.2263
 6528TIP3    H140999   5.974   2.691   1.657 -0.8427  0.2729 -1.5827
 6528TIP3    H241000   5.851   2.773   1.624 -1.0096  1.4266  1.5242
 6529TIP3   OH241001   0.394   1.902  11.448  0.5045 -0.3840  0.4198
 6529TIP3    H141002   0.437   1.816  11.440 -0.8762 -1.1943  1.3979
 6529TIP3    H241003   0.340   1.908  11.369  3.0942  1.1416 -1.4235
 6530TIP3   OH241004   3.755   5.729  13.728 -0.2286 -0.3588 -0.1563
 6530TIP3    H141005   3.728   5.776  13.807 -1.3973 -0.1506 -0.6499
 6530TIP3    H241006   3.704   5.649  13.729  0.6763 -0.9441 -0.0775
 6531TIP3   OH241007   3.018   0.568   2.472  0.2002 -0.4120 -0.0955
 6531TIP3    H141008   3.076   0.644   2.461  1.7700 -1.5579 -0.0868
 6531TIP3    H241009   2.990   0.546   2.384  0.8098 -0.6209 -0.2384
 6532TIP3   OH241010   5.747   3.892  16.817 -0.0659 -0.4163 -0.2304
 6532TIP3    H141011   5.756   3.893  16.722 -1.4892 -0.6334 -0.3928
 6532TIP3    H241012   5.766   3.802  16.842 -1.3866 -0.7946 -0.5243
 6533TIP3   OH241013   5.414   1.960  17.262  0.0462  0.0953 -0.4002
 6533TIP3    H141014   5.416   2.053  17.240  1.7071  0.1370 -0.1737
 6533TIP3    H241015   5.483   1.948  17.327 -1.6874 -0.8907  1.3856
 6534TIP3   OH241016   0.886   3.709   1.524 -0.0785 -0.5268 -0.0090
 6534TIP3    H141017   0.811   3.705   1.465  0.6536 -1.3496 -0.9147
 6534TIP3    H241018   0.901   3.802   1.537 -2.2008 -0.3285  1.4437
 6535TIP3   OH241019   6.151   3.039   1.099 -0.1601 -0.1265 -0.5186
 6535TIP3    H141020   6.060   3.030   1.128  0.2460 -2.1887  0.2849
 6535TIP3    H241021   6.197   3.073   1.176 -0.2997  1.5316 -1.1134
 6536TIP3   OH241022   5.305   2.366   2.004 -0.1012 -0.0510 -0.2783
 6536TIP3    H141023   5.242   2.347   1.934 -0.0617 -0.2733 -0.2523
 6536TIP3    H241024   5.341   2.281   2.028  1.0211  0.1798 -1.0621
 6537TIP3   OH241025   0.948   1.385   5.591 -0.1436  0.3809  0.0294
 6537TIP3    H141026   0.949   1.305   5.539 -1.3450 -0.1016  0.7171
 6537TIP3    H241027   0.953   1.356   5.682  0.8863  1.1634  0.2451
 6538TIP3   OH241028   3.916   0.322   3.583 -0.2813 -0.5090  0.4584
 6538TIP3    H141029   3.967   0.281   3.653  0.3112 -1.1481 -0.3234
 6538TIP3    H241030   3.859   0.384   3.628 -1.6315 -2.5598  1.7826
 6539TIP3   OH241031   0.572   5.216   2.503  0.3637  0.3991 -0.2991
 6539TIP3    H141032   0.606   5.283   2.443  2.1420  0.7430  1.0225
 6539TIP3    H241033   0.620   5.137   2.479 -0.4158  0.0296 -0.6590
 6540TIP3   OH241034   3.084   6.440  13.952 -0.6755 -0.1455 -0.5428
 6540TIP3    H141035   2.996   6.430  13.988 -1.2388 -0.0909 -1.8504
 6540TIP3    H241036   3.132   6.488  14.020 -0.9439 -2.2389  1.2450
 6541TIP3   OH241037   4.731   0.487   1.017 -0.1170  0.0481  0.0986
 6541TIP3    H141038   4.647   0.458   0.982  0.6765 -0.9550 -1.0437
 6541TIP3    H241039   4.735   0.580   0.994 -1.6123  0.5688  1.6584
 6542TIP3   OH241040   0.573   2.411  12.995  0.0843 -0.1299  0.3700
 6542TIP3    H141041   0.601   2.323  13.020 -0.7819 -0.2694  0.8926
 6542TIP3    H241042   0.592   2.466  13.071 -0.7413 -0.1681  0.6177
 6543TIP3   OH241043   4.735   0.703  14.464  0.5112 -0.1522  0.1171
 6543TIP3    H141044   4.774   0.619  14.442 -0.2724 -0.1781 -1.3478
 6543TIP3    H241045   4.722   0.700  14.559  1.4147 -1.2626  0.2283
 6544TIP3   OH241046   5.617   6.531  16.082  0.2754 -0.4740 -0.4899
 6544TIP3    H141047   5.677   6.587  16.033 -2.2261  1.6540 -1.3755
 6544TIP3    H241048   5.602   6.579  16.164 -0.5808 -0.7297 -0.4897
 6545TIP3   OH241049   1.826   0.239  13.200 -0.1466  0.2111  0.4120
 6545TIP3    H141050   1.911   0.200  13.223 -0.7722 -1.5202 -0.0200
 6545TIP3    H241051   1.843   0.333  13.195  1.7562 -0.0986  0.2736
 6546TIP3   OH241052   4.277   5.316  12.686 -0.2577  0.1157 -0.5759
 6546TIP3    H141053   4.300   5.225  12.674 -0.6959 -0.3603  1.6347
 6546TIP3    H241054   4.360   5.360  12.707  0.1547  0.5232 -2.8627
 6547TIP3   OH241055   5.395   2.703  10.445 -0.6119 -0.3050 -0.2218
 6547TIP3    H141056   5.485   2.677  10.467 -1.1292 -1.1218  1.0381
 6547TIP3    H241057   5.362   2.633  10.390 -0.7339 -0.3904 -0.0395
 6548TIP3   OH241058   0.844   3.199  15.953 -0.0436 -0.4008 -0.2583
 6548TIP3    H141059   0.892   3.244  15.884 -1.6186 -0.3936 -1.3922
 6548TIP3    H241060   0.752   3.206  15.927 -0.7489  0.1658  2.1841
 6549TIP3   OH241061   1.934   6.716  13.547  0.3785 -0.2160 -0.1936
 6549TIP3    H141062   1.928   6.627  13.514  0.9237 -0.4862  0.4328
 6549TIP3    H241063   1.844   6.741  13.566  0.3250 -0.9892  0.5766
 6550TIP3   OH241064   1.592   5.475   1.055  0.1582  0.3630  0.0776
 6550TIP3    H141065   1.668   5.417   1.063  0.1659  0.5179  1.2401
 6550TIP3    H241066   1.555   5.479   1.143 -0.0370  1.8459 -0.0482
 6551TIP3   OH241067   0.588   5.583  17.083  0.2796  0.3752  0.0661
 6551TIP3    H141068   0.568   5.494  17.111  0.7557 -0.0227 -0.8076
 6551TIP3    H241069   0.666   5.574  17.028 -0.3800  1.1598 -1.0397
 6552TIP3   OH241070   2.539   1.694  15.661 -0.3064  0.1884 -0.1318
 6552TIP3    H141071   2.580   1.711  15.576 -0.8755 -0.9197 -0.6533
 6552TIP3    H241072   2.518   1.601  15.659  3.6520 -1.0362  2.9718
 6553TIP3   OH241073   4.219   1.251   0.485 -0.7988 -0.0264 -0.0738
 6553TIP3    H141074   4.238   1.162   0.456  1.5822  0.2238  0.5192
 6553TIP3    H241075   4.161   1.241   0.560  0.3961 -1.1746  0.7259
 6554TIP3   OH241076   2.038   0.970  16.311  0.1273 -0.5265 -0.1748
 6554TIP3    H141077   2.070   0.902  16.370  0.5349 -0.7867 -0.6821
 6554TIP3    H241078   2.085   1.049  16.337  0.6110 -0.7314 -0.4071
 6555TIP3   OH241079   2.658   0.796  14.032  0.3628 -0.3880  0.5144
 6555TIP3    H141080   2.581   0.835  13.992  0.5945 -0.7161 -0.2785
 6555TIP3    H241081   2.630   0.707  14.056  0.4834 -0.5008  0.2431
 6556TIP3   OH241082   3.606   2.172  12.897 -0.2125 -0.2344 -0.0656
 6556TIP3    H141083   3.573   2.230  12.828  0.0263  0.5845  0.4992
 6556TIP3    H241084   3.573   2.209  12.978  0.4005 -0.5763  0.3467
 6557TIP3   OH241085   1.967   0.417   1.176  0.3896 -0.3878  0.7836
 6557TIP3    H141086   2.000   0.336   1.215  0.1785 -0.9659 -0.2033
 6557TIP3    H241087   2.040   0.478   1.183  0.5306 -0.6322  1.5939
 6558TIP3   OH241088   1.108   5.844   4.033 -0.0771 -0.0389  0.4139
 6558TIP3    H141089   1.051   5.770   4.012  2.0826 -1.5636 -0.4245
 6558TIP3    H241090   1.068   5.884   4.111 -2.9513 -0.1911 -0.8696
 6559TIP3   OH241091   3.129   4.055   5.185  0.1433  0.3496  0.4385
 6559TIP3    H141092   3.043   4.015   5.191 -0.4278  1.4943  0.0647
 6559TIP3    H241093   3.112   4.148   5.177  1.3715  0.4867 -0.9472
 6560TIP3   OH241094   6.417   2.167   4.732  0.3380 -0.0758 -0.4227
 6560TIP3    H141095   6.445   2.107   4.801  1.0748  2.1100  1.3157
 6560TIP3    H241096   6.400   2.250   4.778 -2.1011  0.6662 -2.4707
 6561TIP3   OH241097   1.853   4.938  17.149 -0.3013  0.3245  0.3177
 6561TIP3    H141098   1.882   5.018  17.104  0.4047  0.1265  0.4083
 6561TIP3    H241099   1.809   4.970  17.228 -1.3726  0.6684 -0.4040
 6562TIP3   OH241100   1.541   3.801   5.970  0.3353  0.5909  0.2814
 6562TIP3    H141101   1.450   3.785   5.946  0.0913 -4.3019  3.0990
 6562TIP3    H241102   1.538   3.873   6.032 -0.6640  4.0636 -3.3820
 6563TIP3   OH241103   2.741   0.392  15.610  0.0484 -0.3030 -0.3855
 6563TIP3    H141104   2.707   0.464  15.663 -3.4708 -0.1895 -2.4697
 6563TIP3    H241105   2.764   0.324  15.673 -1.3842  0.7867  1.4136
 6564TIP3   OH241106   2.858   5.277  13.035 -0.2274 -0.3442  0.1858
 6564TIP3    H141107   2.768   5.308  13.030  0.4059  1.4495 -1.4959
 6564TIP3    H241108   2.872   5.231  12.952  0.0926 -1.6270  0.9266
 6565TIP3   OH241109   5.146   5.580   0.587  0.0915  0.1058 -0.5291
 6565TIP3    H141110   5.062   5.564   0.543  0.6629  0.2536 -1.7259
 6565TIP3    H241111   5.207   5.596   0.515  0.9593  0.8936  0.3644
 6566TIP3   OH241112   6.308   4.204   1.203  0.2406 -0.3584  0.0976
 6566TIP3    H141113   6.281   4.114   1.221 -1.7232 -0.0708 -1.0305
 6566TIP3    H241114   6.396   4.211   1.239 -0.2639 -2.1730  1.8523
 6567TIP3   OH241115   2.412   0.644   4.958 -0.2786 -0.1390  0.0295
 6567TIP3    H141116   2.332   0.592   4.955 -0.6152  0.2194  1.5776
 6567TIP3    H241117   2.381   0.735   4.966  0.2200 -0.1028  2.0987
 6568TIP3   OH241118   6.208   2.849   6.575 -0.3722 -0.3653 -0.2172
 6568TIP3    H141119   6.256   2.870   6.655  1.3185 -0.2616 -1.1907
 6568TIP3    H241120   6.255   2.896   6.506 -1.5750 -0.7083 -1.3213
 6569TIP3   OH241121   1.636   5.948   2.127 -0.5381 -0.1637  0.1743
 6569TIP3    H141122   1.554   5.900   2.113 -1.2675  1.5239 -2.0559
 6569TIP3    H241123   1.705   5.888   2.097 -1.2637 -0.5171 -0.8568
 6570TIP3   OH241124   3.019   0.171  14.580  0.1518 -0.0246 -0.0820
 6570TIP3    H141125   3.060   0.111  14.643  2.4644 -0.3572 -1.7522
 6570TIP3    H241126   3.051   0.141  14.495 -2.9241  0.3393 -1.5092
 6571TIP3   OH241127   4.587   6.403  12.324  0.0145 -0.4794 -0.0921
 6571TIP3    H141128   4.507   6.397  12.377  1.2337  0.7065  1.9799
 6571TIP3    H241129   4.598   6.315  12.288 -0.5165 -1.5575  2.1958
 6572TIP3   OH241130   3.084   5.670  13.590 -0.1216  0.2518  0.2136
 6572TIP3    H141131   3.024   5.633  13.525 -0.8882  0.0380  1.0298
 6572TIP3    H241132   3.089   5.604  13.659  1.7059 -0.1025 -0.1999
 6573TIP3   OH241133   3.171   6.746  11.738  0.3709  0.1416  0.1681
 6573TIP3    H141134   3.235   6.816  11.752  1.2891 -0.9519  1.8428
 6573TIP3    H241135   3.100   6.766  11.799 -0.0831  0.4217 -0.4467
 6574TIP3   OH241136   2.652   1.435  14.895 -0.0029  0.2306 -0.0614
 6574TIP3    H141137   2.695   1.432  14.981  0.4392  0.2032 -0.2828
 6574TIP3    H241138   2.717   1.473  14.837 -0.1869 -0.0607 -0.4596
 6575TIP3   OH241139   5.276   1.968  13.831  0.0066 -0.2078 -0.6611
 6575TIP3    H141140   5.288   1.881  13.868  0.4847 -1.0409 -2.6141
 6575TIP3    H241141   5.197   2.002  13.872 -1.4180 -2.4616 -1.3830
 6576TIP3   OH241142   1.999   6.571  17.054  0.7022 -0.8777  0.4833
 6576TIP3    H141143   1.996   6.515  16.976 -0.5162 -1.5225  0.9701
 6576TIP3    H241144   2.088   6.607  17.054  0.9994 -1.5505 -0.7206
 6577TIP3   OH241145   1.690   3.471  16.414 -0.3485  0.0816  0.1940
 6577TIP3    H141146   1.755   3.525  16.460 -1.2909  1.9284 -0.5203
 6577TIP3    H241147   1.698   3.385  16.454  1.5394  0.6150  1.1099
 6578TIP3   OH241148   3.881   1.811  15.204  0.2927  0.2838 -0.0507
 6578TIP3    H141149   3.937   1.747  15.160  0.1503 -0.3335  0.6404
 6578TIP3    H241150   3.912   1.896  15.173  0.2570 -0.1289 -1.2415
 6579TIP3   OH241151   1.555   1.030   2.217  0.2596  0.1010  0.5125
 6579TIP3    H141152   1.623   1.070   2.163  0.4847  1.4970  1.7633
 6579TIP3    H241153   1.515   1.104   2.263 -1.8733 -0.7283  0.0833
 6580TIP3   OH241154   5.919   1.777   3.118  0.7447  0.3275  0.3492
 6580TIP3    H141155   5.829   1.808   3.130  0.1136 -1.3968  0.2666
 6580TIP3    H241156   5.944   1.742   3.203  1.6251  1.4196  0.5718
 6581TIP3   OH241157   3.439   3.392  13.931  0.2483  0.4128  0.2482
 6581TIP3    H141158   3.525   3.432  13.925  0.1979  0.3569 -1.5478
 6581TIP3    H241159   3.378   3.465  13.923  0.0953  0.4880  1.8144
 6582TIP3   OH241160   3.421   5.815  15.463 -0.1845 -0.6175  0.1139
 6582TIP3    H141161   3.414   5.801  15.558  1.4407  0.3877  0.4327
 6582TIP3    H241162   3.401   5.908  15.451  0.1891 -0.6040 -0.4420
 6583TIP3   OH241163   5.343   3.366   5.914  0.1663  0.2070 -0.2764
 6583TIP3    H141164   5.285   3.361   5.990  0.4914 -1.0782 -0.0923
 6583TIP3    H241165   5.301   3.312   5.848  1.4808 -1.3577  0.1048
 6584TIP3   OH241166   0.291   3.041   2.193 -0.0478 -0.7737  0.2184
 6584TIP3    H141167   0.357   3.027   2.261  1.1758  0.4329 -0.6956
 6584TIP3    H241168   0.340   3.067   2.116 -1.6344  0.9525 -0.2823
 6585TIP3   OH241169   2.210   4.878  10.809  0.1336  0.0184  0.3042
 6585TIP3    H141170   2.264   4.808  10.847  0.4177 -0.1277 -0.3625
 6585TIP3    H241171   2.249   4.895  10.724 -0.3006  0.5785  0.2122
 6586TIP3   OH241172   4.755   3.178   2.284 -0.5027 -0.0912  0.2935
 6586TIP3    H141173   4.725   3.200   2.372 -0.9819 -1.4228  0.4902
 6586TIP3    H241174   4.850   3.181   2.289 -0.5258  1.1925  0.4666
 6587TIP3   OH241175   3.742   2.622   0.671 -0.2209  0.0237 -0.0220
 6587TIP3    H141176   3.761   2.528   0.674  0.6188  0.1825 -0.1402
 6587TIP3    H241177   3.789   2.653   0.594 -0.1953  0.6048  0.2277
 6588TIP3   OH241178   4.205   5.320  16.363  0.1121  0.0056  0.2952
 6588TIP3    H141179   4.116   5.288  16.378  0.7226 -2.1971 -0.4543
 6588TIP3    H241180   4.244   5.324  16.451 -0.8438  1.4439  0.6730
 6589TIP3   OH241181   4.269   1.307   6.382  0.1007  0.0873  0.4506
 6589TIP3    H141182   4.193   1.250   6.372 -0.7137  1.4177 -1.7315
 6589TIP3    H241183   4.344   1.249   6.380 -0.7179 -0.9748 -1.3031
 6590TIP3   OH241184   0.963   2.421   5.156 -0.2796 -0.1155 -0.0077
 6590TIP3    H141185   0.892   2.366   5.188  0.5961 -1.4720 -0.2875
 6590TIP3    H241186   0.937   2.510   5.179 -0.5044 -0.8304  3.0252
 6591TIP3   OH241187   5.236   2.262   2.588  0.1952 -0.5738 -0.3785
 6591TIP3    H141188   5.226   2.284   2.496 -2.6534 -1.0115 -0.2604
 6591TIP3    H241189   5.209   2.341   2.635  0.7672 -0.6478  0.0949
 6592TIP3   OH241190   1.733   6.523   5.470  0.0453 -0.3659 -0.1274
 6592TIP3    H141191   1.738   6.583   5.396 -0.7185 -0.2074 -0.0618
 6592TIP3    H241192   1.813   6.539   5.520  0.7377 -0.7353 -1.1080
 6593TIP3   OH241193   5.111   5.265  14.969  0.1819  0.7007  0.0194
 6593TIP3    H141194   5.145   5.226  15.049 -1.1148  1.8734  1.1905
 6593TIP3    H241195   5.172   5.336  14.949  0.9650 -0.1059 -0.5220
 6594TIP3   OH241196   1.953   3.802   2.117 -0.1167  0.2441  0.1176
 6594TIP3    H141197   2.046   3.790   2.095 -0.1003 -0.7176  0.6614
 6594TIP3    H241198   1.906   3.749   2.053 -0.4501  2.3412 -1.4779
 6595TIP3   OH241199   5.521   3.342   6.231  0.2596  0.1640 -0.1861
 6595TIP3    H141200   5.464   3.416   6.211 -0.8933 -0.7624 -0.4633
 6595TIP3    H241201   5.606   3.382   6.253 -0.2360  1.5318 -0.6383
 6596TIP3   OH241202   2.630   4.503  16.919 -0.3549 -0.0757 -0.0189
 6596TIP3    H141203   2.640   4.515  16.825 -1.8918 -0.5363 -0.2715
 6596TIP3    H241204   2.632   4.409  16.932  1.5683  0.0137  0.6617
 6597TIP3   OH241205   1.757   2.274  13.335 -0.2788  0.2492 -0.0596
 6597TIP3    H141206   1.839   2.294  13.289  0.5768 -2.0831  0.3133
 6597TIP3    H241207   1.741   2.351  13.390  1.7141  0.7175 -0.0525
 6598TIP3   OH241208   3.538   4.616  14.465  0.2399  0.1339  0.0153
 6598TIP3    H141209   3.468   4.583  14.521  2.1148 -0.5501  2.0664
 6598TIP3    H241210   3.563   4.541  14.412  0.1430  0.0914  0.0288
 6599TIP3   OH241211   3.767   3.754  11.092  0.0683 -0.2637 -0.0995
 6599TIP3    H141212   3.791   3.793  11.176  0.8733 -0.8383 -0.0455
 6599TIP3    H241213   3.831   3.684  11.079 -0.3334 -0.4874 -0.9717
 6600TIP3   OH241214   4.038   1.791  13.423 -0.0094  0.1123 -0.5154
 6600TIP3    H141215   3.987   1.808  13.502 -0.1674  2.5283 -1.0501
 6600TIP3    H241216   4.111   1.853  13.428  0.3769 -0.1964 -1.8991
 6601TIP3   OH241217   1.400   6.472  12.161 -0.4437 -0.1813 -0.3546
 6601TIP3    H141218   1.382   6.522  12.241 -0.0038  0.9055 -0.9135
 6601TIP3    H241219   1.398   6.381  12.189 -1.9217  0.0923  0.5719
 6602TIP3   OH241220   3.430   3.601  15.022 -0.5732 -0.2418 -0.2295
 6602TIP3    H141221   3.355   3.641  14.979 -1.3306  0.1244  1.3624
 6602TIP3    H241222   3.506   3.649  14.988 -1.0507 -0.5485 -1.7697
 6603TIP3   OH241223   1.767   4.632  11.585  0.1045 -0.4297 -0.0223
 6603TIP3    H141224   1.722   4.569  11.529 -0.3561 -0.2757  0.1697
 6603TIP3    H241225   1.703   4.653  11.653 -0.0688  0.9248 -0.5833
 6604TIP3   OH241226   4.553   3.276   4.199 -0.7011  0.3666 -0.5220
 6604TIP3    H141227   4.505   3.199   4.230  0.5554 -1.3477 -2.5290
 6604TIP3    H241228   4.486   3.340   4.179 -1.7253  0.3863  2.4860
 6605TIP3   OH241229   4.381   2.172  13.462  0.2610 -0.2657 -0.1616
 6605TIP3    H141230   4.436   2.226  13.519 -2.2470  1.1893  1.0068
 6605TIP3    H241231   4.374   2.221  13.380 -0.6818  0.4189  0.3165
 6606TIP3   OH241232   4.176   1.196  15.092 -0.1560 -0.1823 -0.1078
 6606TIP3    H141233   4.233   1.169  15.020 -1.2110 -0.0247 -1.0313
 6606TIP3    H241234   4.216   1.277  15.125  0.0212  0.0640 -0.8998
 6607TIP3   OH241235   4.500   1.775   2.771  0.3288  0.3180  0.4138
 6607TIP3    H141236   4.456   1.757   2.854  0.2379 -0.5920  0.1835
 6607TIP3    H241237   4.497   1.870   2.762 -0.8305  0.3358  0.8259
 6608TIP3   OH241238   3.263   5.363   0.846 -0.0763 -0.1923  0.3940
 6608TIP3    H141239   3.272   5.396   0.757 -1.3533  0.0225  0.3368
 6608TIP3    H241240   3.321   5.419   0.898  1.6182 -1.0854 -0.4524
 6609TIP3   OH241241   3.540   5.233  12.897  0.0379  0.3350  0.2600
 6609TIP3    H141242   3.481   5.192  12.834  1.4544 -0.2829 -0.7253
 6609TIP3    H241243   3.527   5.327  12.884 -0.9110  0.2164  0.2602
 6610TIP3   OH241244   4.433   2.297  11.984 -0.1064 -0.1321  0.3398
 6610TIP3    H141245   4.351   2.249  11.996  0.5556 -1.5696 -0.5484
 6610TIP3    H241246   4.499   2.229  11.971  0.5598  0.9350 -3.1401
 6611TIP3   OH241247   3.786   0.082   3.403 -0.5692  0.2665  0.0769
 6611TIP3    H141248   3.783   0.127   3.318  1.3600  1.5585  0.6406
 6611TIP3    H241249   3.757   0.148   3.466  1.0105  0.3502  0.7613
 6612TIP3   OH241250   5.960   1.295   2.811 -0.4992 -0.4808 -0.1982
 6612TIP3    H141251   5.925   1.340   2.733 -0.1406  0.7450  0.3241
 6612TIP3    H241252   6.051   1.276   2.789 -0.2747  0.2467  0.0568
 6613TIP3   OH241253   0.792   3.856  15.801 -0.0999 -0.2754  0.0129
 6613TIP3    H141254   0.826   3.781  15.849  0.2448  0.5515  1.1138
 6613TIP3    H241255   0.859   3.876  15.737  0.7562  0.2954  1.0456
 6614TIP3   OH241256   3.019   0.543   5.387 -0.4055 -0.1262  0.2743
 6614TIP3    H141257   2.962   0.556   5.463 -0.2732  0.1813  0.3243
 6614TIP3    H241258   2.961   0.510   5.319 -0.6388  0.1454  0.3367
 6615TIP3   OH241259   0.822   4.356  16.103  0.3663  0.1788  0.2212
 6615TIP3    H141260   0.794   4.281  16.051 -1.5493  1.0349 -0.0493
 6615TIP3    H241261   0.745   4.411  16.110  1.0280  0.9213  2.5737
 6616TIP3   OH241262   4.582   0.374  12.645  0.4837 -0.4962  0.0499
 6616TIP3    H141263   4.585   0.392  12.739  1.2482  0.0359 -0.0605
 6616TIP3    H241264   4.674   0.373  12.618  0.2523  0.1329 -0.8238
 6617TIP3   OH241265   2.458   4.437  14.983 -0.3673  0.3045 -0.0580
 6617TIP3    H141266   2.451   4.365  15.046  1.6944  0.3692  0.3221
 6617TIP3    H241267   2.436   4.397  14.899  0.0149 -0.6066  0.2527
 6618TIP3   OH241268   4.364   4.376   3.081 -0.2314 -0.0441 -0.6899
 6618TIP3    H141269   4.431   4.403   3.144 -0.0876 -2.1315  0.1267
 6618TIP3    H241270   4.312   4.455   3.066  1.1239  1.0823  0.2619
 6619TIP3   OH241271   5.545   0.598  15.043 -0.2131  0.1604  0.0540
 6619TIP3    H141272   5.610   0.528  15.046 -0.5392 -0.1252  0.6806
 6619TIP3    H241273   5.514   0.605  15.134 -1.1568  0.1816 -0.2622
 6620TIP3   OH241274   0.738   3.065  14.379 -0.0569 -0.0618  0.2872
 6620TIP3    H141275   0.800   3.081  14.450  0.8474 -0.7110 -0.3319
 6620TIP3    H241276   0.653   3.057  14.422  0.4728 -0.4001  1.2975
 6621TIP3   OH241277   3.470   4.095  12.056 -0.4271  0.1091  0.4102
 6621TIP3    H141278   3.390   4.043  12.062 -0.7797  0.6064  0.0393
 6621TIP3    H241279   3.528   4.043  11.999 -0.1780 -0.6254  1.3057
 6622TIP3   OH241280   6.573   2.061  11.756  0.6329  0.4454  0.5362
 6622TIP3    H141281   6.538   2.070  11.667  2.7390  0.9760 -0.2935
 6622TIP3    H241282   6.553   2.144  11.798 -1.3170 -0.1848  0.9802
 6623TIP3   OH241283   4.600   2.719   0.366  0.3396 -0.5875 -0.3084
 6623TIP3    H141284   4.576   2.698   0.275 -0.1765 -1.5964  0.0399
 6623TIP3    H241285   4.620   2.812   0.365 -0.5322 -0.3938 -1.2821
 6624TIP3   OH241286   6.368   6.106  15.085 -0.0984 -0.0919  0.0937
 6624TIP3    H141287   6.337   6.184  15.131  0.1366 -0.2087  0.4551
 6624TIP3    H241288   6.324   6.109  15.000  0.5240  0.8814 -0.2172
 6625TIP3   OH241289   4.284   4.472   2.331 -0.2853 -0.4966 -0.0686
 6625TIP3    H141290   4.228   4.428   2.267 -0.6765  1.9547 -1.5226
 6625TIP3    H241291   4.372   4.464   2.296 -0.5255  1.0496 -1.1319
 6626TIP3   OH241292   4.192   3.412   4.577  0.0088  0.4657 -0.4152
 6626TIP3    H141293   4.199   3.475   4.648 -0.7326  1.5951 -1.3143
 6626TIP3    H241294   4.103   3.378   4.584  0.3012 -0.2586 -0.1328
 6627TIP3   OH241295   0.257   4.096   3.898  0.2179  0.6260 -0.1311
 6627TIP3    H141296   0.238   4.060   3.811 -0.1631 -1.0195  0.5884
 6627TIP3    H241297   0.347   4.070   3.915 -1.3605 -4.4487  2.2969
 6628TIP3   OH241298   1.409   0.532  14.839 -0.2393  0.7090  0.1709
 6628TIP3    H141299   1.501   0.521  14.814 -0.1948  0.6911  0.3448
 6628TIP3    H241300   1.365   0.554  14.757  0.1437  2.0785  0.3054
 6629TIP3   OH241301   2.704   3.890  14.860 -0.2889 -0.4393 -0.3519
 6629TIP3    H141302   2.747   3.866  14.778 -0.0513  0.2070 -0.4158
 6629TIP3    H241303   2.642   3.819  14.876 -0.3241 -0.5747 -1.0820
 6630TIP3   OH241304   2.828   0.908  16.843  0.0203 -0.0297 -0.0705
 6630TIP3    H141305   2.911   0.920  16.890  0.6762 -2.2832 -0.5454
 6630TIP3    H241306   2.767   0.877  16.910 -0.5608  1.8884  0.3348
 6631TIP3   OH241307   5.647   2.758   4.566  0.3258 -0.5899 -0.5055
 6631TIP3    H141308   5.647   2.700   4.489  1.0315 -1.4074  0.0942
 6631TIP3    H241309   5.644   2.846   4.529  0.3722 -0.9769 -1.4692
 6632TIP3   OH241310   5.869   2.883   3.504 -0.3332 -0.4127  0.4192
 6632TIP3    H141311   5.797   2.931   3.545 -0.8695  0.0551 -1.0278
 6632TIP3    H241312   5.827   2.809   3.462  0.3719 -1.6039  1.7395
 6633TIP3   OH241313   0.976   2.296   1.563  0.2526 -0.2858  0.7350
 6633TIP3    H141314   1.011   2.269   1.648 -0.3217  0.8734  1.3566
 6633TIP3    H241315   0.907   2.232   1.545  0.6469 -0.7773  0.9332
 6634TIP3   OH241316   2.814   5.712   5.847 -0.4327 -0.0882 -0.1205
 6634TIP3    H141317   2.771   5.769   5.783 -2.8787 -1.1749  0.4575
 6634TIP3    H241318   2.828   5.767   5.923 -0.3182  0.4167 -0.5021
 6635TIP3   OH241319   3.107   2.236  11.513  0.0739 -0.7029 -0.0024
 6635TIP3    H141320   3.014   2.237  11.536 -0.2037  0.9720 -0.9810
 6635TIP3    H241321   3.110   2.195  11.426 -0.1976  1.7468 -1.2806
 6636TIP3   OH241322   2.704   2.274   1.904  0.2871 -0.3514 -0.2357
 6636TIP3    H141323   2.626   2.218   1.908 -0.0583  0.1425 -0.0378
 6636TIP3    H241324   2.774   2.215   1.875 -0.2743 -0.6793 -0.9684
 6637TIP3   OH241325   6.413   0.367  16.645 -0.1011 -0.4360 -0.2263
 6637TIP3    H141326   6.339   0.425  16.631  1.2059  1.2677 -0.4121
 6637TIP3    H241327   6.440   0.383  16.735  1.3325  0.6121 -0.7931
 6638TIP3   OH241328   3.124   4.015   1.687  0.2330  0.0851  0.1184
 6638TIP3    H141329   3.094   4.016   1.778 -1.2684  1.1548 -0.3592
 6638TIP3    H241330   3.092   3.931   1.652 -1.4181  0.7714 -0.0995
 6639TIP3   OH241331   5.467   1.930   2.511 -0.0986 -0.3446 -0.8671
 6639TIP3    H141332   5.460   2.003   2.572 -0.9487 -0.3471 -0.9497
 6639TIP3    H241333   5.557   1.933   2.479  0.3813 -0.3853  0.4399
 6640TIP3   OH241334   1.326   0.095   4.844 -0.6129 -0.4653  0.0541
 6640TIP3    H141335   1.421   0.088   4.851 -0.5959 -1.5801 -0.9805
 6640TIP3    H241336   1.305   0.181   4.881  0.5024 -1.2884  2.8060
 6641TIP3   OH241337   1.340   2.883  12.913  0.2118  0.6592  0.5684
 6641TIP3    H141338   1.363   2.915  12.826 -0.8626 -0.8439 -0.3270
 6641TIP3    H241339   1.280   2.949  12.948  0.7988  1.3696  0.2711
 6642TIP3   OH241340   0.421   0.702  11.423  0.4642  0.5508 -0.1393
 6642TIP3    H141341   0.450   0.611  11.422  0.7188  0.6000  1.1903
 6642TIP3    H241342   0.498   0.752  11.451  0.3181  1.1833 -0.8198
 6643TIP3   OH241343   6.244   3.146  11.900  0.0505 -0.1833 -0.3482
 6643TIP3    H141344   6.231   3.119  11.991  0.8477 -0.9465 -0.4402
 6643TIP3    H241345   6.167   3.198  11.878  1.3211  2.8807  1.7906
 6644TIP3   OH241346   0.824   1.686  15.895 -0.8545 -0.5342  0.0446
 6644TIP3    H141347   0.862   1.632  15.964 -2.4565  1.7175  2.9600
 6644TIP3    H241348   0.811   1.772  15.937 -3.4038  0.5206 -2.5585
 6645TIP3   OH241349   2.295   4.656  16.861  0.3097 -0.1987  0.3132
 6645TIP3    H141350   2.263   4.706  16.786  1.5138  1.1763  0.6727
 6645TIP3    H241351   2.216   4.633  16.910 -0.4141 -0.3296 -0.8785
 6646TIP3   OH241352   2.970   3.596   2.078  0.1780 -0.4096  0.2230
 6646TIP3    H141353   2.966   3.551   2.163 -0.0257 -2.1977 -0.6863
 6646TIP3    H241354   3.059   3.629   2.072 -0.0761  0.6177  1.5309
 6647TIP3   OH241355   1.446   4.697   3.959  0.2773  1.0527 -0.1307
 6647TIP3    H141356   1.454   4.668   4.050  1.0343  1.9829  0.1217
 6647TIP3    H241357   1.488   4.784   3.958  2.1230  0.2217 -1.7935
 6648TIP3   OH241358   5.733   0.343  12.248  0.0956  0.0187 -0.0361
 6648TIP3    H141359   5.655   0.309  12.206 -1.1690  0.2523  1.9872
 6648TIP3    H241360   5.783   0.265  12.274  0.5057 -0.1317 -1.2293
 6649TIP3   OH241361   4.196   1.843   3.284  0.1154  0.1097 -0.2546
 6649TIP3    H141362   4.177   1.759   3.324 -0.6346 -0.0864 -0.9957
 6649TIP3    H241363   4.135   1.849   3.210  1.0808  0.6973 -1.0278
 6650TIP3   OH241364   6.719   2.570   4.556  0.1631 -0.8282 -0.0322
 6650TIP3    H141365   6.706   2.482   4.591 -1.2061  0.5072  3.2422
 6650TIP3    H241366   6.761   2.618   4.627  0.4809  1.3201 -1.5684
 6651TIP3   OH241367   2.073   0.909  13.854  0.3644  0.1534 -0.2430
 6651TIP3    H141368   2.063   0.969  13.928  1.8277  1.0824 -0.7626
 6651TIP3    H241369   2.028   0.952  13.781 -1.1518 -0.8018  0.0816
 6652TIP3   OH241370   2.867   4.658   1.350 -0.0760  0.2510 -0.2831
 6652TIP3    H141371   2.863   4.726   1.417 -0.3469 -0.1140  0.0766
 6652TIP3    H241372   2.786   4.667   1.301  0.6719  1.3297 -1.3796
 6653TIP3   OH241373   6.725   0.242   4.424  0.5922 -0.5137 -0.1389
 6653TIP3    H141374   6.682   0.201   4.349 -2.7660  0.2825  1.1522
 6653TIP3    H241375   6.770   0.318   4.388  2.7338 -2.4978 -1.8570
 6654TIP3   OH241376   0.118   4.048  16.129 -0.2305  1.0242  0.3127
 6654TIP3    H141377   0.045   4.107  16.111 -1.5285 -0.5691  0.0328
 6654TIP3    H241378   0.092   4.002  16.209  0.6972  0.7516  0.4730
 6655TIP3   OH241379   2.885   4.895   0.190  0.1848 -0.4901  0.1387
 6655TIP3    H141380   2.823   4.942   0.247 -2.1172 -1.6769 -1.2504
 6655TIP3    H241381   2.898   4.954   0.115 -0.4770 -0.8733 -0.2814
 6656TIP3   OH241382   3.133   3.707  12.373  0.0741 -0.3165  0.6342
 6656TIP3    H141383   3.073   3.747  12.310  1.1430  1.0457  0.4376
 6656TIP3    H241384   3.094   3.621  12.392 -0.0456 -1.0021 -2.2291
 6657TIP3   OH241385   6.232   2.626   4.540 -0.1593  0.2904 -0.1930
 6657TIP3    H141386   6.280   2.673   4.608  2.8762  0.4411 -2.2140
 6657TIP3    H241387   6.267   2.537   4.544 -2.8834 -0.8068  0.9572
 6658TIP3   OH241388   0.000   4.645  12.560 -0.3431  0.0010 -0.1686
 6658TIP3    H141389   0.051   4.693  12.625  0.8153 -2.2442  0.6857
 6658TIP3    H241390   0.011   4.695  12.480  2.6795  0.0440  0.1362
 6659TIP3   OH241391   4.832   0.456  13.827 -0.4503  0.0433 -0.1231
 6659TIP3    H141392   4.855   0.441  13.736 -2.3487 -0.9774 -0.4939
 6659TIP3    H241393   4.912   0.437  13.876 -0.6597 -4.8786 -1.1615
 6660TIP3   OH241394   4.465   6.724  12.439  0.2276  0.5916  0.1248
 6660TIP3    H141395   4.509   6.676  12.510  0.5359  1.5437  0.6004
 6660TIP3    H241396   4.519   6.802  12.427 -0.8603  1.3679  0.1303
 6661TIP3   OH241397   3.408   6.710  15.724 -0.0036 -0.3359  0.9478
 6661TIP3    H141398   3.312   6.708  15.725  0.0098 -1.7322  1.3012
 6661TIP3    H241399   3.430   6.803  15.733 -1.3340  0.3636 -1.8363
 6662TIP3   OH241400   5.981   0.141   2.123  0.4952  0.2592  0.5055
 6662TIP3    H141401   5.978   0.223   2.173 -1.9093  0.5958 -0.0586
 6662TIP3    H241402   5.958   0.074   2.187 -1.2319  0.5254  0.2112
 6663TIP3   OH241403   5.269   5.767  12.977  0.6326 -0.1123  0.2057
 6663TIP3    H141404   5.357   5.802  12.963  0.3144  1.1094  1.0578
 6663TIP3    H241405   5.277   5.715  13.057  0.4234  0.7045  0.7769
 6664TIP3   OH241406   1.262   0.389   1.010 -0.5430  0.8435  0.4603
 6664TIP3    H141407   1.277   0.322   0.944 -0.3546  1.0435  0.2982
 6664TIP3    H241408   1.176   0.370   1.046 -0.3923  0.3783  0.5726
 6665TIP3   OH241409   1.965   5.241  12.211  0.2120 -0.0431 -0.0179
 6665TIP3    H141410   2.021   5.164  12.218  0.9739  0.5769  0.9889
 6665TIP3    H241411   1.887   5.218  12.263 -0.2757 -0.7193 -1.0229
 6666TIP3   OH241412   2.625   2.518   5.325  0.3207 -0.3156  0.2110
 6666TIP3    H141413   2.601   2.573   5.250 -2.3351  0.2958  1.3962
 6666TIP3    H241414   2.645   2.433   5.287 -1.8907 -0.2869 -1.1851
 6667TIP3   OH241415   5.395   6.295   0.903  0.1775 -0.0275 -0.7291
 6667TIP3    H141416   5.458   6.341   0.847  0.4293  2.2281  1.2231
 6667TIP3    H241417   5.449   6.241   0.960  0.0138 -1.2161 -1.6593
 6668TIP3   OH241418   2.481   0.595  10.477  0.0859 -0.0698 -0.1539
 6668TIP3    H141419   2.550   0.596  10.410  0.8261 -0.0788  0.5868
 6668TIP3    H241420   2.520   0.547  10.551 -0.7391 -0.1233  0.2535
 6669TIP3   OH241421   3.794   1.537   3.782 -0.6207 -0.0203  0.0460
 6669TIP3    H141422   3.787   1.627   3.750  1.3945  0.3448  0.5095
 6669TIP3    H241423   3.852   1.494   3.720  0.0465 -0.4170  0.9149
 6670TIP3   OH241424   4.295   2.080  12.942  0.7463 -0.1684 -0.0439
 6670TIP3    H141425   4.257   2.013  12.998  0.0656 -0.6317 -1.0476
 6670TIP3    H241426   4.383   2.094  12.979  0.4683 -0.7484  0.8801
 6671TIP3   OH241427   3.348   5.623  13.908 -0.1950 -0.0800 -0.0677
 6671TIP3    H141428   3.325   5.562  13.839 -1.1425 -0.5875  0.6732
 6671TIP3    H241429   3.359   5.569  13.986 -1.0223  0.6752  0.5964
 6672TIP3   OH241430   3.905   5.503   4.089 -0.6401  0.1268 -0.1622
 6672TIP3    H141431   3.977   5.479   4.147  0.0618  0.8372 -0.7180
 6672TIP3    H241432   3.873   5.586   4.124  0.6796  1.2709 -1.5449
 6673TIP3   OH241433   0.490   2.688   1.722 -0.3123  0.3302  0.7038
 6673TIP3    H141434   0.511   2.662   1.812 -0.9555  2.1852  1.4367
 6673TIP3    H241435   0.428   2.759   1.732  1.1158  1.9424 -1.1522
 6674TIP3   OH241436   2.986   2.733  15.839 -0.4285 -0.1340 -0.5010
 6674TIP3    H141437   3.016   2.750  15.750  1.2531  2.7679  0.4811
 6674TIP3    H241438   2.892   2.749  15.836 -0.3158  0.4306 -1.6644
 6675TIP3   OH241439   5.516   5.023  13.941 -0.3560 -0.1440  0.2357
 6675TIP3    H141440   5.483   5.041  13.853 -1.1930  0.5477  0.6779
 6675TIP3    H241441   5.495   4.931  13.956  0.4969 -0.4982 -0.5684
 6676TIP3   OH241442   1.481   6.541   1.622  0.0973 -0.2780  0.3382
 6676TIP3    H141443   1.458   6.619   1.571 -1.2186 -0.7297  0.2242
 6676TIP3    H241444   1.577   6.542   1.625  0.2251 -0.2903 -2.2307
 6677TIP3   OH241445   4.616   0.571   3.012  0.4100  0.1499  0.3219
 6677TIP3    H141446   4.586   0.582   3.103  2.3091 -0.1309  1.0297
 6677TIP3    H241447   4.676   0.644   2.998  0.2955  0.0689 -0.6647
 6678TIP3   OH241448   4.355   5.265   0.807  0.5099  0.4629 -0.0406
 6678TIP3    H141449   4.432   5.312   0.839  1.1672 -1.0009  0.5829
 6678TIP3    H241450   4.376   5.243   0.717  0.0554  1.6033 -0.4548
 6679TIP3   OH241451   1.832   2.080   1.839 -0.3233  0.0004  0.1887
 6679TIP3    H141452   1.842   1.989   1.813 -1.3053 -0.3080  0.8542
 6679TIP3    H241453   1.779   2.120   1.770  0.3691  0.1621 -0.2644
 6680TIP3   OH241454   6.653   5.820   4.066 -0.3575 -0.0949 -0.0817
 6680TIP3    H141455   6.707   5.741   4.062  2.0411  1.4891 -1.2550
 6680TIP3    H241456   6.687   5.868   4.141  0.0803  1.0430 -0.9855
 6681TIP3   OH241457   4.634   5.015   4.813  0.2238  0.0520 -0.5499
 6681TIP3    H141458   4.578   4.984   4.742  2.7744 -3.0875 -1.4678
 6681TIP3    H241459   4.698   5.071   4.769  0.1805  0.3461 -0.2356
 6682TIP3   OH241460   2.888   5.922   2.985 -0.5873 -0.0215 -0.0285
 6682TIP3    H141461   2.938   6.000   3.009  2.7246 -1.0423 -2.6141
 6682TIP3    H241462   2.913   5.856   3.050  2.8490 -0.8777 -1.9470
 6683TIP3   OH241463   6.244   6.690  11.207 -0.0057  0.0670 -0.2282
 6683TIP3    H141464   6.197   6.630  11.149 -0.7796 -0.5871  1.0339
 6683TIP3    H241465   6.202   6.775  11.193 -1.0460 -0.3467  0.2888
 6684TIP3   OH241466   3.461   0.954   0.576 -0.2410  0.0595  0.1755
 6684TIP3    H141467   3.540   1.008   0.571 -2.3017  3.2627 -4.3901
 6684TIP3    H241468   3.472   0.890   0.506 -1.2530 -0.0854  0.1383
 6685TIP3   OH241469   4.260   4.908  16.939 -0.3129 -0.1606  0.1886
 6685TIP3    H141470   4.207   4.836  16.974 -0.6114 -0.6817 -1.2999
 6685TIP3    H241471   4.248   4.979  17.002 -1.8965 -0.6390  0.4525
 6686TIP3   OH241472   5.047   0.391   4.882 -0.4839 -0.6589  0.1549
 6686TIP3    H141473   5.127   0.342   4.866 -0.4325 -0.2879 -0.8197
 6686TIP3    H241474   4.984   0.325   4.913  0.3043 -0.8730  1.3463
 6687TIP3   OH241475   4.020   6.214  15.060 -0.5255 -0.0057  0.1070
 6687TIP3    H141476   4.059   6.132  15.032  0.8388  0.3713  0.8410
 6687TIP3    H241477   4.060   6.281  15.005 -3.2625  0.0278 -2.0716
 6688TIP3   OH241478   6.297   6.348  14.082  0.4388 -0.7487 -0.3394
 6688TIP3    H141479   6.242   6.418  14.117  0.6829 -0.3604 -0.7234
 6688TIP3    H241480   6.358   6.327  14.152 -0.0469 -1.0269  0.0098
 6689TIP3   OH241481   0.741   2.467   1.584  0.1861 -0.4717  0.1673
 6689TIP3    H141482   0.698   2.412   1.649 -0.0451  0.9134  1.2520
 6689TIP3    H241483   0.754   2.411   1.508 -0.1399 -1.9584  1.1788
 6690TIP3   OH241484   4.571   4.519  13.007 -0.0581 -0.2400 -0.3811
 6690TIP3    H141485   4.644   4.499  13.066  0.2251  0.4374 -0.4957
 6690TIP3    H241486   4.613   4.542  12.924 -0.4101 -0.0912 -0.5193
 6691TIP3   OH241487   6.065   4.183  13.144  0.1390 -0.1754 -0.3333
 6691TIP3    H141488   6.078   4.125  13.219  1.1576  0.2710 -0.1483
 6691TIP3    H241489   6.025   4.262  13.181  0.4723 -0.0282 -0.2833
 6692TIP3   OH241490   5.036   2.190  16.341  0.4114 -0.0246 -0.3578
 6692TIP3    H141491   5.130   2.173  16.340  0.1736 -1.5593  0.5110
 6692TIP3    H241492   5.021   2.248  16.266  2.0727  0.4613 -0.3504
 6693TIP3   OH241493   3.955   1.966  16.616 -0.0031  0.1969  0.0321
 6693TIP3    H141494   3.945   1.883  16.663  1.5236 -0.0347  0.0163
 6693TIP3    H241495   3.912   1.952  16.532  0.1408 -0.5462  0.0753
 6694TIP3   OH241496   4.793   1.653   6.488 -0.5612 -0.3270  0.3939
 6694TIP3    H141497   4.777   1.746   6.475 -3.0232 -0.5440  1.3599
 6694TIP3    H241498   4.780   1.614   6.401  0.3283  0.1938  0.0182
 6695TIP3   OH241499   1.287   4.381   2.309  0.1413  0.0544  0.3031
 6695TIP3    H141500   1.267   4.428   2.390  1.5011  0.5950  0.3486
 6695TIP3    H241501   1.234   4.301   2.314  1.5403 -0.8150  2.5963
 6696TIP3   OH241502   1.374   5.509   2.685 -0.0697  0.2487  0.3972
 6696TIP3    H141503   1.301   5.571   2.685  0.5982  1.0660  1.6566
 6696TIP3    H241504   1.419   5.523   2.768  0.7588 -1.1660  0.2292
 6697TIP3   OH241505   5.489   6.785   3.685  0.7034 -0.0634 -0.1918
 6697TIP3    H141506   5.482   6.869   3.730  1.4150 -0.2114  0.2032
 6697TIP3    H241507   5.474   6.720   3.754 -0.1560 -0.2625 -0.5544
 6698TIP3   OH241508   1.666   5.098  11.118  0.8081 -0.5876 -0.1692
 6698TIP3    H141509   1.623   5.181  11.138  0.7857 -0.3251 -1.2282
 6698TIP3    H241510   1.753   5.123  11.087  2.2600 -1.1685  3.0549
 6699TIP3   OH241511   2.180   0.925  11.476  0.2693 -0.1393  0.1485
 6699TIP3    H141512   2.263   0.878  11.470 -0.2413 -1.3214  1.7062
 6699TIP3    H241513   2.144   0.922  11.387  0.9624 -1.4060 -0.1017
 6700TIP3   OH241514   2.925   6.481   2.560  0.3155 -0.5291 -0.6477
 6700TIP3    H141515   2.929   6.469   2.655  0.0174 -0.3489 -0.6103
 6700TIP3    H241516   2.996   6.428   2.526 -1.3670 -3.0224 -0.5460
 6701TIP3   OH241517   0.334   3.457  13.772  0.1639 -0.1208 -0.2383
 6701TIP3    H141518   0.392   3.402  13.720  0.2377 -2.0178  1.7090
 6701TIP3    H241519   0.275   3.395  13.815 -0.0016  1.3423  1.7764
 6702TIP3   OH241520   5.417   5.507   2.390 -1.0851  0.1579  0.4811
 6702TIP3    H141521   5.342   5.566   2.385 -0.4685  1.0260  1.1786
 6702TIP3    H241522   5.445   5.497   2.299 -1.3420  0.7591  0.3278
 6703TIP3   OH241523   4.338   6.358  12.512 -0.2762  0.1071 -0.3762
 6703TIP3    H141524   4.246   6.338  12.498 -0.3258  1.3133 -2.1092
 6703TIP3    H241525   4.340   6.407  12.594 -0.9835 -1.0301  0.3443
 6704TIP3   OH241526   2.870   1.867  13.696 -0.0074  0.2122  0.3823
 6704TIP3    H141527   2.892   1.859  13.603 -0.3191 -3.3575  0.4735
 6704TIP3    H241528   2.775   1.879  13.698  0.0753  0.9492  0.2657
 6705TIP3   OH241529   0.963   3.699  15.291 -0.6899 -0.3200 -0.5831
 6705TIP3    H141530   0.919   3.621  15.324 -0.8715 -0.5590 -1.3619
 6705TIP3    H241531   0.910   3.772  15.323 -0.5996 -0.5189  0.0297
 6706TIP3   OH241532   5.537   4.087  15.038  0.0414  0.6857  0.3264
 6706TIP3    H141533   5.590   4.060  15.113 -0.2506 -0.4711  0.1363
 6706TIP3    H241534   5.463   4.134  15.077  0.4994  1.1231  0.6802
 6707TIP3   OH241535   2.657   1.414  14.121  0.2766 -0.4514 -0.2762
 6707TIP3    H141536   2.628   1.502  14.144  1.9080  0.4302 -1.3577
 6707TIP3    H241537   2.711   1.386  14.195  2.3391  0.7959 -1.2224
 6708TIP3   OH241538   5.538   4.303   1.021 -0.1445 -0.1175 -0.5884
 6708TIP3    H141539   5.566   4.393   1.003  2.5134 -0.0717  2.8580
 6708TIP3    H241540   5.618   4.251   1.016 -1.3328 -2.0395 -0.7628
 6709TIP3   OH241541   3.056   4.497  15.846 -0.2238 -0.6390 -0.4878
 6709TIP3    H141542   3.040   4.560  15.776  1.4849 -0.4579 -0.7651
 6709TIP3    H241543   3.106   4.427  15.804 -0.0521 -1.0215  0.3272
 6710TIP3   OH241544   3.789   1.662   2.133 -0.1798 -0.1692  0.5335
 6710TIP3    H141545   3.879   1.669   2.101  0.1326  0.1723  1.4582
 6710TIP3    H241546   3.789   1.583   2.187 -0.2619  0.1818  1.0561
 6711TIP3   OH241547   5.836   4.774   3.349  0.3721  0.5142 -1.0495
 6711TIP3    H141548   5.812   4.722   3.426  0.3169  1.5865 -0.3185
 6711TIP3    H241549   5.780   4.741   3.279 -2.8450  2.4473  0.4142
 6712TIP3   OH241550   2.199   1.612  12.497 -0.3826 -0.0309 -0.1664
 6712TIP3    H141551   2.151   1.543  12.543 -1.8866  1.7184  1.0801
 6712TIP3    H241552   2.187   1.689  12.552  2.3468  0.9594 -0.8201
 6713TIP3   OH241553   5.486   3.208   4.238  0.0197 -0.2301 -0.7451
 6713TIP3    H141554   5.557   3.235   4.179 -0.1299 -1.1386 -1.3754
 6713TIP3    H241555   5.437   3.144   4.187  0.0578 -1.2725  0.4791
 6714TIP3   OH241556   6.405   3.550   2.925 -0.0495 -0.2618  0.3478
 6714TIP3    H141557   6.417   3.642   2.904 -0.1078 -0.2948  0.1677
 6714TIP3    H241558   6.458   3.536   3.003  2.3569 -0.7445 -1.2662
 6715TIP3   OH241559   2.909   5.323   5.518 -0.4000 -0.7234  0.1704
 6715TIP3    H141560   2.853   5.394   5.552 -1.2423 -1.7379  0.9504
 6715TIP3    H241561   2.854   5.245   5.523  1.4577 -2.0026  2.0570
 6716TIP3   OH241562   0.582   0.119   0.122  0.5301  0.0354  0.1854
 6716TIP3    H141563   0.545   0.032   0.135 -0.1969  0.3177  0.0720
 6716TIP3    H241564   0.560   0.142   0.032  1.6182 -0.0757 -0.1183
 6717TIP3   OH241565   2.607   6.539  13.740  0.0169 -0.2327  0.4427
 6717TIP3    H141566   2.573   6.602  13.804  1.4149 -0.6707  1.6663
 6717TIP3    H241567   2.616   6.590  13.659 -0.4999  0.6915  0.9439
 6718TIP3   OH241568   5.647   4.738  13.467 -0.0191  0.0551 -0.2751
 6718TIP3    H141569   5.592   4.817  13.465 -1.1241 -0.6300  1.2981
 6718TIP3    H241570   5.611   4.682  13.397  0.0026  0.4390 -0.5990
 6719TIP3   OH241571   4.980   2.018   4.474  0.2322  0.1303  0.3068
 6719TIP3    H141572   5.067   2.052   4.451  0.4952 -0.1750  0.8298
 6719TIP3    H241573   4.987   1.924   4.463  0.0391  0.0836  0.5676
 6720TIP3   OH241574   2.487   3.437  13.390 -0.2496 -0.6133 -0.1466
 6720TIP3    H141575   2.411   3.413  13.444 -0.7942 -1.8226 -1.3736
 6720TIP3    H241576   2.545   3.484  13.450 -0.1539 -3.1161  1.8796
 6721TIP3   OH241577   6.197   3.380  12.277  0.4357 -0.0418 -0.0368
 6721TIP3    H141578   6.113   3.394  12.320  0.1712 -0.0254 -0.5486
 6721TIP3    H241579   6.200   3.286  12.261  0.6023 -0.0693  0.1523
 6722TIP3   OH241580   5.902   6.643   4.307  0.7648 -0.1544 -0.3281
 6722TIP3    H141581   5.808   6.647   4.295  0.6194 -1.8311  0.0631
 6722TIP3    H241582   5.937   6.709   4.247 -0.7156  1.5476  0.5956
 6723TIP3   OH241583   2.255   2.029   4.191  0.2355  0.1470 -0.1276
 6723TIP3    H141584   2.317   1.957   4.178 -0.5049 -0.4366 -0.5194
 6723TIP3    H241585   2.210   2.007   4.273  0.8168  0.7737  0.3642
 6724TIP3   OH241586   2.294   3.551  15.920  0.0285  0.0347  0.4534
 6724TIP3    H141587   2.212   3.503  15.922  0.2019 -0.2653  0.3854
 6724TIP3    H241588   2.358   3.488  15.888  0.4370  0.0279  1.2591
 6725TIP3   OH241589   4.354   5.370  14.067 -0.3824 -0.3018  0.0233
 6725TIP3    H141590   4.299   5.296  14.091 -1.5253  0.4516 -0.2189
 6725TIP3    H241591   4.363   5.420  14.148  0.4634 -0.7193  0.2078
 6726TIP3   OH241592   6.406   4.691   6.283  0.2301 -0.3425 -0.3503
 6726TIP3    H141593   6.463   4.759   6.318  0.9170 -0.5401 -1.0498
 6726TIP3    H241594   6.323   4.704   6.328  0.7181  0.1731  0.4361
 6727TIP3   OH241595   1.152   1.643  14.507  0.1183 -0.1035  0.3301
 6727TIP3    H141596   1.172   1.569  14.565  0.9121 -0.7542 -0.7158
 6727TIP3    H241597   1.073   1.616  14.460  1.2086 -1.0015 -1.1091
 6728TIP3   OH241598   0.412   0.137  12.316 -0.0255  0.2908 -0.1368
 6728TIP3    H141599   0.323   0.102  12.309  0.2167 -0.4011  0.1631
 6728TIP3    H241600   0.442   0.147  12.226 -0.9487  1.9749 -0.2976
 6729TIP3   OH241601   6.509   1.341  12.110 -0.1688  0.1971 -0.4414
 6729TIP3    H141602   6.502   1.256  12.154  1.1119 -0.1207 -0.7937
 6729TIP3    H241603   6.499   1.321  12.017  0.1909  0.4280 -0.5314
 6730TIP3   OH241604   4.595   6.020   2.488 -0.5716 -0.0318 -0.6554
 6730TIP3    H141605   4.675   6.072   2.499 -0.8474  0.8753 -2.5499
 6730TIP3    H241606   4.569   5.997   2.577  2.3662 -1.2790  0.0115
 6731TIP3   OH241607   1.419   3.870  16.417  0.4573 -0.1633 -0.2908
 6731TIP3    H141608   1.403   3.959  16.385 -1.2583 -0.5200 -0.5619
 6731TIP3    H241609   1.375   3.814  16.353 -0.5596 -1.0577  1.1282
 6732TIP3   OH241610   2.074   1.446  12.710 -0.8308  0.5261 -0.3883
 6732TIP3    H141611   2.146   1.496  12.747 -1.2861  0.5197  0.5428
 6732TIP3    H241612   2.023   1.417  12.786 -1.0923 -0.5639 -0.9574
 6733TIP3   OH241613   1.598   5.166  13.665  0.0162 -0.4354  0.0186
 6733TIP3    H141614   1.673   5.169  13.605  0.5633 -0.4005  0.6934
 6733TIP3    H241615   1.556   5.082  13.647 -0.8986  0.3289 -1.6669
 6734TIP3   OH241616   1.764   0.982   1.559  0.4639 -0.4807 -0.0228
 6734TIP3    H141617   1.846   1.023   1.587  0.9189 -1.4970  0.1544
 6734TIP3    H241618   1.701   1.007   1.626  0.7218 -0.0136  0.0490
 6735TIP3   OH241619   6.382   0.758   4.998 -0.2555 -0.1030  0.3066
 6735TIP3    H141620   6.387   0.851   4.976  0.8462  0.1858  1.6995
 6735TIP3    H241621   6.410   0.752   5.089  0.3055 -1.8804  0.0715
 6736TIP3   OH241622   4.722   4.478  15.115 -0.3821 -0.6255 -0.4172
 6736TIP3    H141623   4.779   4.471  15.038 -2.5863 -0.3557 -2.1747
 6736TIP3    H241624   4.677   4.562  15.104  0.9966  0.6125  2.5116
 6737TIP3   OH241625   6.376   1.040  16.361 -0.5052 -0.2179 -0.0493
 6737TIP3    H141626   6.453   1.078  16.404 -0.7294  0.3236 -0.1172
 6737TIP3    H241627   6.380   1.072  16.271 -1.9769  1.6376  0.4810
 6738TIP3   OH241628   5.300   6.704   0.306  0.3984  0.5363 -0.2538
 6738TIP3    H141629   5.289   6.613   0.279  0.9420  0.7521 -1.2768
 6738TIP3    H241630   5.395   6.714   0.317  0.4907  1.3418 -1.5711
 6739TIP3   OH241631   5.105   5.025   2.047  0.3656 -0.2947 -0.2020
 6739TIP3    H141632   5.147   4.959   2.103 -0.4823 -0.5066  0.2092
 6739TIP3    H241633   5.094   5.101   2.105 -0.1804 -0.3857 -0.1812
 6740TIP3   OH241634   3.317   2.958   3.120 -0.3153 -0.7891 -0.0610
 6740TIP3    H141635   3.234   2.916   3.096 -1.8539  2.9550 -2.1017
 6740TIP3    H241636   3.325   2.942   3.214 -3.5864 -1.0346  0.2874
 6741TIP3   OH241637   4.351   0.640  12.220 -0.5398 -0.2718  0.7410
 6741TIP3    H141638   4.305   0.574  12.272 -0.7303  0.1865  1.1624
 6741TIP3    H241639   4.334   0.722  12.266 -0.1896  0.0506  0.2968
 6742TIP3   OH241640   1.235   0.352   4.956 -0.2747  0.1349  0.3846
 6742TIP3    H141641   1.214   0.414   5.025 -1.0246  1.9248 -1.3321
 6742TIP3    H241642   1.290   0.401   4.895 -1.3107 -0.6713 -1.2959
 6743TIP3   OH241643   4.817   3.201   0.699  0.0741  0.6084  0.3337
 6743TIP3    H141644   4.754   3.135   0.667 -0.2352  1.0823 -0.0423
 6743TIP3    H241645   4.852   3.163   0.780  0.6573 -0.4856 -0.4134
 6744TIP3   OH241646   4.200   4.700   1.658  0.4053  0.3727 -0.2805
 6744TIP3    H141647   4.149   4.768   1.615 -1.4357  0.1308  1.3534
 6744TIP3    H241648   4.263   4.748   1.712 -0.8457  0.8302  0.8241
 6745TIP3   OH241649   1.142   4.260   3.948 -0.1364 -0.1653 -0.3237
 6745TIP3    H141650   1.172   4.179   3.990  1.3593  0.2486 -0.5409
 6745TIP3    H241651   1.187   4.261   3.863 -0.8294  0.4714 -0.6978
 6746TIP3   OH241652   0.810   0.142  12.044  0.2265  0.3520 -0.4883
 6746TIP3    H141653   0.815   0.046  12.049  2.0913  0.1225 -3.6734
 6746TIP3    H241654   0.893   0.173  12.080 -0.4446  0.8442  0.7012
 6747TIP3   OH241655   2.247   1.760  16.919 -0.1243 -0.3215 -0.0302
 6747TIP3    H141656   2.320   1.772  16.857  0.8485 -1.4588  0.8640
 6747TIP3    H241657   2.213   1.673  16.899  0.9496 -1.2061  1.7475
 6748TIP3   OH241658   4.252   5.011   0.819 -0.1346  0.6792 -0.2805
 6748TIP3    H141659   4.306   5.090   0.809  1.0769  0.0249  0.6803
 6748TIP3    H241660   4.177   5.040   0.870  0.2153  1.2626 -0.0793
 6749TIP3   OH241661   3.758   2.625   5.985  0.7401  0.5565 -0.0167
 6749TIP3    H141662   3.737   2.692   5.919 -0.4868  0.6855  0.4693
 6749TIP3    H241663   3.835   2.659   6.030 -0.2216  1.9658  0.6235
 6750TIP3   OH241664   4.818   6.113   4.145 -0.1285 -0.3743 -0.0366
 6750TIP3    H141665   4.780   6.156   4.222 -1.0974  2.0096 -1.7161
 6750TIP3    H241666   4.745   6.105   4.084  0.8375 -1.2813 -1.1058
 6751TIP3   OH241667   1.763   3.537   2.841 -0.3516  0.1120 -0.3321
 6751TIP3    H141668   1.818   3.614   2.826 -0.4319  0.3930  0.6956
 6751TIP3    H241669   1.673   3.568   2.827 -0.3737  0.1799 -0.0588
 6752TIP3   OH241670   2.106   4.803  12.100  0.5168  0.4596  0.0263
 6752TIP3    H141671   2.095   4.755  12.183  0.7829  1.2041  0.4963
 6752TIP3    H241672   2.198   4.827  12.099  0.3172  1.2376 -0.0526
 6753TIP3   OH241673   3.776   3.076   3.471 -0.3431  0.4771  1.0357
 6753TIP3    H141674   3.853   3.083   3.414 -1.9268  1.3106 -1.1129
 6753TIP3    H241675   3.753   3.166   3.491 -0.3410  0.2090  2.3153
 6754TIP3   OH241676   5.878   0.569  10.977 -0.3854  0.5031  0.3416
 6754TIP3    H141677   5.856   0.489  11.026 -0.7129 -0.0295 -0.6416
 6754TIP3    H241678   5.956   0.546  10.927  0.1125  1.1331  0.8142
 6755TIP3   OH241679   1.674   3.258   2.787 -0.0104 -0.3988  0.6119
 6755TIP3    H141680   1.632   3.307   2.858 -1.4608 -0.1292 -0.3801
 6755TIP3    H241681   1.758   3.230   2.824 -0.6908 -0.2413  2.4167
 6756TIP3   OH241682   5.390   1.361  10.731  0.7869 -0.4212 -0.1520
 6756TIP3    H141683   5.431   1.391  10.650 -0.4663  1.1418 -0.2487
 6756TIP3    H241684   5.341   1.436  10.763  1.5382 -0.8642  2.2800
 6757TIP3   OH241685   4.907   4.287  11.561  0.6185  0.4940  0.1211
 6757TIP3    H141686   4.928   4.193  11.557  0.7678  0.5800 -1.7018
 6757TIP3    H241687   4.951   4.325  11.485  0.2485  2.0023  0.6244
 6758TIP3   OH241688   2.144   4.466  15.670 -1.2032  0.1296  0.4080
 6758TIP3    H141689   2.055   4.459  15.704 -1.5784  0.4158 -0.4861
 6758TIP3    H241690   2.168   4.557  15.683 -0.6372 -0.1717  1.5914
 6759TIP3   OH241691   6.051   5.792  16.933 -0.3301  0.5936  1.2197
 6759TIP3    H141692   6.132   5.762  16.891 -1.0055  0.8047 -0.2968
 6759TIP3    H241693   6.061   5.888  16.937 -1.4565  0.8930 -1.2059
 6760TIP3   OH241694   2.074   5.523  15.177 -0.0675  0.2528 -0.0779
 6760TIP3    H141695   2.000   5.572  15.213 -0.4707  0.0458 -0.6119
 6760TIP3    H241696   2.104   5.576  15.103  0.0647  0.1366 -0.1074
 6761TIP3   OH241697   4.965   2.017  11.233 -0.3724 -0.1881  0.3050
 6761TIP3    H141698   4.955   2.112  11.230  1.4203  0.1126  1.9260
 6761TIP3    H241699   5.007   1.994  11.150 -0.0912  0.5470  0.2412
 6762TIP3   OH241700   3.550   3.810   1.560 -0.0187 -0.2109 -0.0207
 6762TIP3    H141701   3.537   3.720   1.593  0.6376 -0.4386 -0.3633
 6762TIP3    H241702   3.467   3.833   1.519 -1.2652  0.4788  2.6697
 6763TIP3   OH241703   1.347   2.782   6.047  0.0018  0.2474  0.3722
 6763TIP3    H141704   1.315   2.749   6.132 -1.0349  2.3387  0.8638
 6763TIP3    H241705   1.267   2.796   5.996  0.4788  0.9704 -0.1859
 6764TIP3   OH241706   4.669   2.556  11.040  0.4762 -0.4075 -0.1595
 6764TIP3    H141707   4.665   2.461  11.046  0.7545 -0.4887 -1.1091
 6764TIP3    H241708   4.763   2.575  11.034  0.3547 -0.3018 -2.8900
 6765TIP3   OH241709   2.194   6.224  16.459 -0.0737 -0.3248  0.5269
 6765TIP3    H141710   2.152   6.165  16.397 -1.8815 -0.4794  1.8381
 6765TIP3    H241711   2.124   6.254  16.516  0.7745  3.0998 -0.0466
 6766TIP3   OH241712   0.129   2.366   2.408  0.3235  0.2586 -0.2907
 6766TIP3    H141713   0.082   2.306   2.350 -0.7017  0.6379  0.1258
 6766TIP3    H241714   0.065   2.389   2.475  0.7691  1.6307 -0.3080
 6767TIP3   OH241715   1.796   5.398   4.979  0.1736  0.5053 -0.0112
 6767TIP3    H141716   1.801   5.328   5.044  2.9040 -0.6513 -1.2946
 6767TIP3    H241717   1.816   5.478   5.028  1.3938 -0.2342  0.7517
 6768TIP3   OH241718   0.425   6.454  11.405 -0.4057  0.4366  0.1967
 6768TIP3    H141719   0.372   6.528  11.436 -0.5435  0.2680  0.3701
 6768TIP3    H241720   0.382   6.377  11.444 -0.2953  0.2632 -0.0258
 6769TIP3   OH241721   3.275   1.988   3.383 -0.3703 -1.0979  0.3655
 6769TIP3    H141722   3.363   2.018   3.405 -0.4888 -1.4812  1.4474
 6769TIP3    H241723   3.288   1.915   3.323 -0.0226 -0.0436 -0.8771
 6770TIP3   OH241724   2.121   6.253  16.062  0.4069  0.0639  0.3199
 6770TIP3    H141725   2.211   6.246  16.030 -0.1218 -2.9501 -0.8545
 6770TIP3    H241726   2.096   6.344  16.043  3.0057  0.8651  0.2710
 6771TIP3   OH241727   4.261   1.781   0.042 -0.2293 -0.4974 -0.1631
 6771TIP3    H141728   4.338   1.835   0.058 -1.0760  0.3119  1.4115
 6771TIP3    H241729   4.261   1.766  -0.053  1.3804  0.1903 -0.2951
 6772TIP3   OH241730   2.783   4.955   2.088 -0.1024  0.5507  0.1415
 6772TIP3    H141731   2.777   5.048   2.067  0.3788  0.2569 -1.4435
 6772TIP3    H241732   2.877   4.938   2.095 -0.2012  0.2726  0.8989
 6773TIP3   OH241733   6.501   5.589   5.827  0.3609 -0.4291 -0.0941
 6773TIP3    H141734   6.511   5.602   5.921  2.2900 -0.1424 -0.2796
 6773TIP3    H241735   6.438   5.655   5.799  1.8101  1.3525  0.6208
 6774TIP3   OH241736   0.797   0.785   3.808 -0.1176  0.0892  0.1762
 6774TIP3    H141737   0.837   0.814   3.726 -0.0338  1.8806  0.7919
 6774TIP3    H241738   0.852   0.826   3.876 -0.0142 -1.5771  1.1443
 6775TIP3   OH241739   1.253   1.157   2.245  0.1242  0.0465 -0.3155
 6775TIP3    H141740   1.206   1.164   2.162  0.1294 -4.0344 -0.8795
 6775TIP3    H241741   1.190   1.117   2.305  1.3496 -0.9065  0.3798
 6776TIP3   OH241742   5.412   2.700   0.287  0.5323 -0.2915  0.1951
 6776TIP3    H141743   5.430   2.761   0.215  0.9232  0.9623  1.3312
 6776TIP3    H241744   5.317   2.686   0.283  0.6547 -0.9754 -1.1118
 6777TIP3   OH241745   3.706   2.840  16.155 -0.3411 -0.3042 -0.1877
 6777TIP3    H141746   3.688   2.747  16.140  0.9074 -0.4624 -0.8975
 6777TIP3    H241747   3.640   2.868  16.218 -0.9039 -1.6057 -0.1720
 6778TIP3   OH241748   6.267   3.517  16.065  0.6090 -0.5878  0.1602
 6778TIP3    H141749   6.176   3.522  16.095  1.0351 -0.4991  1.5368
 6778TIP3    H241750   6.262   3.474  15.980 -0.9527  1.5590 -0.9538
 6779TIP3   OH241751   4.841   5.170   3.489 -0.2781  0.0123  0.0178
 6779TIP3    H141752   4.843   5.089   3.539 -0.0956  0.0481  0.0685
 6779TIP3    H241753   4.822   5.142   3.399  0.8814 -0.1930 -0.1775
 6780TIP3   OH241754   5.204   2.617  15.664  0.2021  0.1848 -0.0463
 6780TIP3    H141755   5.226   2.608  15.571  0.2372  0.3818 -0.0582
 6780TIP3    H241756   5.108   2.614  15.667  0.2184 -0.5245 -0.0131
 6781TIP3   OH241757   4.568   6.189  14.302 -0.3416 -0.8099 -0.5774
 6781TIP3    H141758   4.565   6.160  14.211  1.7343 -1.0539 -0.6042
 6781TIP3    H241759   4.596   6.281  14.297 -5.8900  1.3376 -0.4361
 6782TIP3   OH241760   3.994   1.329  15.923  0.1040  0.0820  0.5574
 6782TIP3    H141761   4.073   1.382  15.915  0.0654 -0.0506 -1.1804
 6782TIP3    H241762   3.922   1.389  15.907  0.0012 -0.2657 -0.3346
 6783TIP3   OH241763   3.581   6.256  14.848  0.2031 -0.6541 -0.2840
 6783TIP3    H141764   3.648   6.315  14.882 -0.5077 -1.1088  2.1084
 6783TIP3    H241765   3.592   6.176  14.898 -2.7748 -0.3808  1.0651
 6784TIP3   OH241766   0.361   6.533  16.527  0.3768  0.1046 -0.1369
 6784TIP3    H141767   0.280   6.490  16.501  0.5679 -0.3302 -0.0215
 6784TIP3    H241768   0.430   6.487  16.478  0.6932 -0.4309  0.7869
 6785TIP3   OH241769   5.829   4.683   2.081 -0.2091 -1.0884  0.0843
 6785TIP3    H141770   5.846   4.636   1.999 -2.2680  0.4349 -1.3085
 6785TIP3    H241771   5.834   4.776   2.057 -0.1888 -0.5890  1.8609
 6786TIP3   OH241772   3.419   1.330  14.583  0.2438  0.9481 -0.0851
 6786TIP3    H141773   3.357   1.304  14.515  0.8818  1.2691 -0.8070
 6786TIP3    H241774   3.411   1.263  14.650 -0.0508  0.3570 -0.7037
 6787TIP3   OH241775   1.913   0.088   0.343  0.3487 -0.2505 -0.0130
 6787TIP3    H141776   1.949   0.162   0.293  0.9689 -0.7495 -0.3185
 6787TIP3    H241777   1.959   0.090   0.426  1.7338 -1.3860 -0.7132
 6788TIP3   OH241778   4.266   5.042  15.271  1.0271 -0.5733 -0.1638
 6788TIP3    H141779   4.217   5.120  15.247  1.2384  0.0174  1.2374
 6788TIP3    H241780   4.307   5.013  15.189 -0.6268 -0.3673 -1.1040
 6789TIP3   OH241781   0.729   0.322  13.227 -0.1352 -0.5963  0.5495
 6789TIP3    H141782   0.678   0.314  13.146 -2.7905  1.3615  1.8645
 6789TIP3    H241783   0.756   0.232  13.246 -1.3898 -1.4556 -1.3205
 6790TIP3   OH241784   1.787   2.670   4.825  0.3449 -0.2206  0.0773
 6790TIP3    H141785   1.804   2.632   4.739  1.6706  0.1411  0.1565
 6790TIP3    H241786   1.857   2.734   4.838  1.0888 -1.3292  2.0381
 6791TIP3   OH241787   6.713   5.135  16.339  0.2637  0.5835 -0.1184
 6791TIP3    H141788   6.755   5.102  16.418  1.6705 -0.4616 -1.2634
 6791TIP3    H241789   6.625   5.096  16.341 -0.2772  1.7817  1.6551
 6792TIP3   OH241790   4.284   1.471   5.575  0.3786  0.4680  0.0396
 6792TIP3    H141791   4.302   1.430   5.490 -0.6523 -1.5188  0.6978
 6792TIP3    H241792   4.189   1.462   5.585  0.2855  2.0357  0.7649
 6793TIP3   OH241793   2.631   2.996   5.238  0.3775  0.1063  0.3753
 6793TIP3    H141794   2.580   2.968   5.315  2.3712 -2.1087  0.9991
 6793TIP3    H241795   2.711   3.032   5.274 -0.3809  3.0447 -0.6201
 6794TIP3   OH241796   2.829   1.905  16.432  0.1832 -0.5438 -0.2353
 6794TIP3    H141797   2.889   1.891  16.359  0.6359 -0.3050  0.0767
 6794TIP3    H241798   2.838   1.999  16.453 -1.4008 -0.1615 -1.1154
 6795TIP3   OH241799   5.531   2.530  17.161  0.7292 -0.1501 -0.2071
 6795TIP3    H141800   5.571   2.615  17.179 -0.4274  0.0246  1.9255
 6795TIP3    H241801   5.439   2.551  17.141  0.6269 -0.8404 -0.4868
 6796TIP3   OH241802   4.768   2.537   5.185 -0.2400 -0.6166 -0.7241
 6796TIP3    H141803   4.818   2.548   5.266 -0.9519  0.5761 -0.4277
 6796TIP3    H241804   4.803   2.604   5.126  0.5172 -1.7034 -1.5534
 6797TIP3   OH241805   0.566   3.981  16.076 -0.0245  0.0325  0.0353
 6797TIP3    H141806   0.509   4.022  16.140  1.3037 -0.3217  1.5029
 6797TIP3    H241807   0.631   4.048  16.054  0.5679 -0.3984  0.4179
 6798TIP3   OH241808   4.070   4.617  13.545  0.7056  0.4054 -0.1395
 6798TIP3    H141809   4.146   4.639  13.491 -0.4281  1.6401 -1.3325
 6798TIP3    H241810   4.083   4.668  13.625  0.6884  1.3834 -0.7348
 6799TIP3   OH241811   0.123   5.454   0.410 -1.0043 -0.7495 -0.1270
 6799TIP3    H141812   0.071   5.494   0.340  1.0199 -1.5568 -2.2286
 6799TIP3    H241813   0.102   5.506   0.488 -2.0087  1.3616 -1.6958
 6800TIP3   OH241814   2.818   0.206  12.359 -0.5568 -0.0579 -0.1431
 6800TIP3    H141815   2.760   0.171  12.426 -0.9326  0.8430  0.0233
 6800TIP3    H241816   2.762   0.264  12.307  0.5135  2.1294  1.0098
 6801TIP3   OH241817   4.570   0.338  14.576 -0.3355 -0.4304 -0.3014
 6801TIP3    H141818   4.481   0.315  14.603  0.0933 -0.5982  1.0721
 6801TIP3    H241819   4.579   0.430  14.603  1.3739 -1.5875  3.9912
 6802TIP3   OH241820   4.018   3.994   6.518 -0.1287  0.2439  0.5305
 6802TIP3    H141821   3.923   3.998   6.516 -0.1794 -0.5405  0.8546
 6802TIP3    H241822   4.038   3.901   6.508  0.6382  0.5014 -0.5406
 6803TIP3   OH241823   5.741   0.282  16.717  0.1509 -0.9115  0.5197
 6803TIP3    H141824   5.834   0.306  16.713  0.3400 -1.4785  1.2642
 6803TIP3    H241825   5.741   0.188  16.731 -0.5632 -1.0914 -0.5442
 6804TIP3   OH241826   2.106   0.822  11.201 -0.1906 -0.6001  0.2186
 6804TIP3    H141827   2.076   0.760  11.134 -0.9334 -1.1883  1.0716
 6804TIP3    H241828   2.118   0.904  11.154 -0.6908 -1.0068 -0.6418
 6805TIP3   OH241829   2.809   5.824   1.793  0.1706  0.1367 -0.3983
 6805TIP3    H141830   2.899   5.819   1.763 -0.5673  0.4086 -2.8949
 6805TIP3    H241831   2.768   5.744   1.760 -0.2649 -0.6491  1.8208
 6806TIP3   OH241832   2.263   3.329   4.418 -0.1667 -0.3183  0.6894
 6806TIP3    H141833   2.266   3.274   4.339  0.8568  0.4419  0.1735
 6806TIP3    H241834   2.178   3.373   4.413 -0.2472 -0.5227  0.1890
 6807TIP3   OH241835   1.189   2.077  14.770 -0.5976 -0.1096  0.2450
 6807TIP3    H141836   1.100   2.049  14.750 -0.3781 -0.2381 -0.5934
 6807TIP3    H241837   1.230   1.999  14.809 -0.4241 -0.5098 -0.7231
 6808TIP3   OH241838   6.546   0.625  10.685 -0.3406  0.3793 -0.5633
 6808TIP3    H141839   6.510   0.681  10.616 -2.1412  0.8550  0.6842
 6808TIP3    H241840   6.469   0.585  10.726  0.8163 -1.7656 -0.3454
 6809TIP3   OH241841   0.007   6.307   3.321 -0.3738 -0.1466 -0.0956
 6809TIP3    H141842   0.051   6.281   3.240  0.5651 -2.2330  0.9997
 6809TIP3    H241843   0.068   6.368   3.362  1.1868 -2.2495  0.9264
 6810TIP3   OH241844   2.613   0.143  17.229 -0.2845  0.2618  0.1109
 6810TIP3    H141845   2.563   0.225  17.230 -0.7432  0.0173 -1.0290
 6810TIP3    H241846   2.682   0.160  17.164  0.2836  0.1196  0.6759
 6811TIP3   OH241847   2.639   3.054   3.915  0.8486 -0.2566  0.3148
 6811TIP3    H141848   2.611   3.121   3.853  0.8687 -0.4941  0.0480
 6811TIP3    H241849   2.560   3.005   3.935  1.0428 -0.8730 -0.3726
 6812TIP3   OH241850   0.038   3.198  15.451 -0.2414 -0.9473  0.9759
 6812TIP3    H141851   0.031   3.220  15.358  2.8864 -1.1022  0.5937
 6812TIP3    H241852   0.022   3.104  15.455 -1.1335 -0.8158  0.7374
 6813TIP3   OH241853   6.410   6.581   4.991  0.3620  0.2419  0.1155
 6813TIP3    H141854   6.416   6.625   4.906 -0.1936  0.5470  0.2284
 6813TIP3    H241855   6.403   6.653   5.054 -0.1426  0.0022  0.3376
 6814TIP3   OH241856   6.412   2.724  11.701 -0.3795  0.6563  0.1701
 6814TIP3    H141857   6.400   2.634  11.731  0.7998  1.3841  3.1756
 6814TIP3    H241858   6.416   2.717  11.605  2.8208 -2.9477  0.3196
 6815TIP3   OH241859   0.042   1.596  16.552  0.2942 -0.0923 -0.3898
 6815TIP3    H141860   0.042   1.672  16.609  0.9431  0.5264 -1.1938
 6815TIP3    H241861  -0.010   1.623  16.476  0.8426 -0.3085 -0.8486
 6816TIP3   OH241862   1.166   5.824   3.009  0.0082 -0.0961  0.2493
 6816TIP3    H141863   1.260   5.843   3.013  0.1727 -0.8858  0.4205
 6816TIP3    H241864   1.128   5.900   2.965  0.6377  0.5297  0.7557
 6817TIP3   OH241865   3.289   0.882  11.027 -0.1972 -0.3104 -0.4035
 6817TIP3    H141866   3.194   0.886  11.036 -0.4463 -2.1794 -1.6382
 6817TIP3    H241867   3.308   0.936  10.951  0.0837  2.1437  1.2932
 6818TIP3   OH241868   5.018   5.568   1.370  0.0473  0.4931  0.1806
 6818TIP3    H141869   5.046   5.581   1.280 -0.8657  0.5796 -0.1088
 6818TIP3    H241870   4.931   5.610   1.373 -0.0679  0.2023  1.0090
 6819TIP3   OH241871   2.978   5.885  14.455 -0.1731 -0.6782  0.0606
 6819TIP3    H141872   3.028   5.956  14.415  0.7334 -1.4310 -0.1837
 6819TIP3    H241873   3.037   5.809  14.452 -1.0878 -1.4262  0.3801
 6820TIP3   OH241874   3.762   4.423  16.094 -0.5155  0.3426  0.0155
 6820TIP3    H141875   3.804   4.438  16.009 -2.1654  0.5434 -0.8128
 6820TIP3    H241876   3.738   4.330  16.093  0.1693  0.1520  0.6149
 6821TIP3   OH241877   5.035   1.956  12.876  0.3680 -0.2485  0.6768
 6821TIP3    H141878   5.063   1.873  12.916 -0.7119 -1.7144 -1.4089
 6821TIP3    H241879   5.089   2.022  12.918  0.6401 -1.8706  3.1083
 6822TIP3   OH241880   5.188   0.402   0.721 -0.1052  0.2594 -0.0529
 6822TIP3    H141881   5.141   0.478   0.755 -0.5714 -0.1820  0.3073
 6822TIP3    H241882   5.156   0.329   0.774  0.8414 -0.0837  0.0680
 6823TIP3   OH241883   2.112   5.998   1.361  0.0308  0.4127 -0.2760
 6823TIP3    H141884   2.065   6.002   1.444 -0.9091 -0.7482 -0.7165
 6823TIP3    H241885   2.119   5.904   1.342  1.7549  0.5958 -0.6821
 6824TIP3   OH241886   6.585   6.129  11.504 -0.0149 -0.7103  0.1003
 6824TIP3    H141887   6.553   6.201  11.558 -0.1518  0.1879 -1.1310
 6824TIP3    H241888   6.549   6.050  11.546 -1.4273  0.0579  0.4275
 6825TIP3   OH241889   2.759   3.753   2.693  0.0890 -0.0252  0.4951
 6825TIP3    H141890   2.815   3.780   2.620 -1.3983  0.8427 -0.3703
 6825TIP3    H241891   2.719   3.672   2.663 -1.2536  0.8245 -0.0935
 6826TIP3   OH241892   0.290   4.723  11.203  0.3856 -0.6584  0.4724
 6826TIP3    H141893   0.234   4.795  11.232  0.0836 -1.1473  1.1562
 6826TIP3    H241894   0.365   4.765  11.162  0.0054  0.0320  0.4667
 6827TIP3   OH241895   3.721   2.215  11.826  0.0950  0.3207 -0.4659
 6827TIP3    H141896   3.764   2.221  11.911 -0.1683 -0.8151 -0.2406
 6827TIP3    H241897   3.655   2.147  11.837 -0.6982  0.9331 -1.2617
 6828TIP3   OH241898   6.616   6.381  13.561 -0.7653 -0.4127 -0.0991
 6828TIP3    H141899   6.607   6.337  13.646  0.6630 -0.3210  0.1249
 6828TIP3    H241900   6.647   6.469  13.584  2.1218 -1.1577 -0.7760
 6829TIP3   OH241901   0.527   3.447   3.587 -0.5570  0.7887  0.0353
 6829TIP3    H141902   0.440   3.419   3.614 -1.0293  1.6803 -0.5101
 6829TIP3    H241903   0.551   3.387   3.516 -1.8988  2.1727 -1.6837
 6830TIP3   OH241904   4.381   1.056   3.104 -0.1671  0.2750  0.6093
 6830TIP3    H141905   4.299   1.038   3.150  0.0801 -1.4555  0.4350
 6830TIP3    H241906   4.444   1.075   3.173  0.0210 -1.5607  0.9884
 6831TIP3   OH241907   3.621   0.931   1.313  0.3084  0.3684 -0.5704
 6831TIP3    H141908   3.623   0.927   1.409  1.6050 -2.1378 -0.6126
 6831TIP3    H241909   3.676   1.005   1.290 -0.4828  1.3566  0.6031
 6832TIP3   OH241910   5.423   2.715   1.199 -0.0807 -0.0584 -0.1917
 6832TIP3    H141911   5.500   2.748   1.245 -0.8612 -1.5458  2.3713
 6832TIP3    H241912   5.459   2.661   1.129  1.1569  1.2255 -0.5911
 6833TIP3   OH241913   1.316   6.626  14.050  0.4094  0.5690 -0.1563
 6833TIP3    H141914   1.232   6.672  14.056  0.1321 -0.0781  1.5388
 6833TIP3    H241915   1.373   6.687  14.004 -0.8119  1.2921 -0.7762
 6834TIP3   OH241916   1.016   0.080  17.026  0.2732 -0.0921 -0.5247
 6834TIP3    H141917   1.057   0.082  16.940  1.0318  1.2474 -0.1522
 6834TIP3    H241918   1.059   0.006  17.071  0.4962 -0.2450 -0.9861
 6835TIP3   OH241919   5.070   6.254  11.800 -0.5916  0.0660 -0.1149
 6835TIP3    H141920   5.007   6.228  11.867  1.0149 -0.9070  1.0920
 6835TIP3    H241921   5.112   6.332  11.837 -1.1514  0.7843 -0.9680
 6836TIP3   OH241922   5.185   0.800   0.970 -1.0388 -0.0863 -0.1408
 6836TIP3    H141923   5.147   0.712   0.978 -0.2037 -0.6019 -1.5532
 6836TIP3    H241924   5.113   0.854   0.937 -1.6408 -0.1521  1.0091
 6837TIP3   OH241925   4.866   6.102  11.984 -0.2090  0.1140 -0.2716
 6837TIP3    H141926   4.815   6.163  11.930 -1.5269  1.3688  2.2146
 6837TIP3    H241927   4.805   6.033  12.007  0.1640 -0.1123  0.0625
 6838TIP3   OH241928   1.875   3.748   2.496 -0.8856  0.3011 -0.9948
 6838TIP3    H141929   1.839   3.663   2.474 -1.0219  0.4316 -1.2773
 6838TIP3    H241930   1.867   3.754   2.591 -1.4421  0.2517 -1.0365
 6839TIP3   OH241931   5.029   5.608  16.348 -0.3618 -0.1828 -0.3764
 6839TIP3    H141932   4.977   5.677  16.307  0.3941  0.5547 -0.1270
 6839TIP3    H241933   4.965   5.552  16.392 -0.9985  0.2779 -0.6968
 6840TIP3   OH241934   1.761   4.068   1.696 -0.4965  0.4432  0.5817
 6840TIP3    H141935   1.735   4.018   1.774 -0.6670 -0.5093 -0.0725
 6840TIP3    H241936   1.857   4.064   1.697 -0.5147 -0.2987  0.2935
 6841TIP3   OH241937   4.960   0.148  11.342 -0.1100  0.2657 -0.0477
 6841TIP3    H141938   5.024   0.184  11.403  1.7849 -1.3368 -0.9981
 6841TIP3    H241939   4.957   0.054  11.362 -0.3413 -0.0829 -1.6121
 6842TIP3   OH241940   4.298   6.659  10.982 -0.2476  0.5688 -0.2414
 6842TIP3    H141941   4.285   6.753  10.977 -0.6896  0.9540  4.0140
 6842TIP3    H241942   4.214   6.622  10.953 -1.0601  1.6863  0.5677
 6843TIP3   OH241943   3.330   6.223  13.734  0.2952 -0.4080 -0.7816
 6843TIP3    H141944   3.253   6.183  13.774  0.7268 -0.0216  0.4939
 6843TIP3    H241945   3.400   6.210  13.799  1.3494 -0.8784 -1.9694
 6844TIP3   OH241946   4.654   0.687   3.809  0.1627 -0.3217  0.1331
 6844TIP3    H141947   4.674   0.613   3.866  0.2520 -0.2880  0.1455
 6844TIP3    H241948   4.559   0.695   3.814 -0.2970 -2.5672 -2.5108
 6845TIP3   OH241949   6.723   3.471  14.988  0.0115  0.3131  0.0095
 6845TIP3    H141950   6.656   3.472  15.057  1.3167  0.4052  1.3261
 6845TIP3    H241951   6.774   3.551  15.003  0.3074  0.3539 -1.1104
 6846TIP3   OH241952   5.785   6.408   5.881 -0.7724 -0.0662  0.5277
 6846TIP3    H141953   5.787   6.470   5.808  0.3416 -0.0729  0.5479
 6846TIP3    H241954   5.876   6.386   5.897 -1.0037 -0.0782  1.9297
 6847TIP3   OH241955   5.877   3.991   5.918  0.6403 -0.4239 -0.2627
 6847TIP3    H141956   5.790   3.952   5.924 -0.3623  1.7404  0.3495
 6847TIP3    H241957   5.861   4.082   5.892  2.4358  0.9652  2.8740
 6848TIP3   OH241958   4.021   1.796  13.939  0.1102 -0.1223  0.0805
 6848TIP3    H141959   3.954   1.817  14.004  0.6437  0.6645  0.3901
 6848TIP3    H241960   3.981   1.818  13.855 -0.6557 -1.3220  0.1074
 6849TIP3   OH241961   6.698   4.272   1.906  0.1513  0.0293  0.3731
 6849TIP3    H141962   6.791   4.254   1.913 -0.0462 -0.6183  1.5688
 6849TIP3    H241963   6.691   4.368   1.906  0.8011  0.0762  0.5171
 6850TIP3   OH241964   2.350   4.823   1.929  0.2968  0.1386 -0.4045
 6850TIP3    H141965   2.296   4.902   1.927 -2.1609 -1.4626 -0.5380
 6850TIP3    H241966   2.358   4.803   2.022  0.0965  0.0030 -0.4168
 6851TIP3   OH241967   5.627   2.963   1.123  0.2167 -0.5265  0.5393
 6851TIP3    H141968   5.679   3.041   1.103 -0.1795 -0.3387  0.2349
 6851TIP3    H241969   5.641   2.950   1.217 -0.5747  0.5707  0.8406
 6852TIP3   OH241970   1.818   0.665  14.879  0.4969  0.2149 -0.0255
 6852TIP3    H141971   1.902   0.703  14.852  1.2102 -0.8095  0.6536
 6852TIP3    H241972   1.792   0.717  14.955  0.6063  0.4403 -0.1421
 6853TIP3   OH241973   0.425   0.778  13.644 -0.1296  0.3007  0.1044
 6853TIP3    H141974   0.453   0.819  13.726  1.8564 -0.2623 -0.2397
 6853TIP3    H241975   0.335   0.808  13.632  1.1109  4.7198 -0.1914
 6854TIP3   OH241976   4.888   1.351  15.483  0.0384  0.6373 -0.3025
 6854TIP3    H141977   4.948   1.383  15.550 -2.1401  2.8407  0.7705
 6854TIP3    H241978   4.876   1.258  15.503  0.2866  0.9928  1.7145
 6855TIP3   OH241979   3.109   0.260   2.239 -0.1056 -0.1000  0.6105
 6855TIP3    H141980   3.049   0.201   2.284 -0.9220 -0.5584 -0.9962
 6855TIP3    H241981   3.054   0.334   2.213  0.1464 -0.2238 -0.3128
 6856TIP3   OH241982   0.328   3.185   0.529 -0.4936  0.0275 -0.2844
 6856TIP3    H141983   0.389   3.243   0.484 -1.1504 -1.3846 -3.2229
 6856TIP3    H241984   0.366   3.174   0.616 -0.0320  4.2719  0.2743
 6857TIP3   OH241985   0.380   2.100   6.025 -0.5315  0.2264  0.2333
 6857TIP3    H141986   0.463   2.109   5.978 -1.0571 -1.4806 -1.1530
 6857TIP3    H241987   0.396   2.030   6.089 -0.8641 -0.0355  0.0331
 6858TIP3   OH241988   4.050   3.921   2.343 -0.3818 -0.0934 -0.3862
 6858TIP3    H141989   4.002   3.939   2.424  0.4984 -1.8089  0.5684
 6858TIP3    H241990   4.031   3.829   2.323  0.7843 -0.1938 -1.1562
 6859TIP3   OH241991   0.661   5.772  13.948 -0.1243  0.3787  0.5641
 6859TIP3    H141992   0.572   5.737  13.939  0.7169 -1.7767 -0.1031
 6859TIP3    H241993   0.709   5.735  13.874  0.8464  3.3096 -0.4062
 6860TIP3   OH241994   2.638   6.126   1.129  0.5493  0.1472 -0.1138
 6860TIP3    H141995   2.577   6.094   1.063  1.1910  0.2420 -0.7657
 6860TIP3    H241996   2.630   6.064   1.201 -2.6774  1.8677  1.2373
 6861TIP3   OH241997   5.482   6.654  11.927 -0.2806  0.4658 -0.2983
 6861TIP3    H141998   5.574   6.653  11.900 -0.7824  1.9091 -2.3103
 6861TIP3    H241999   5.439   6.712  11.863 -2.6004 -0.2215  0.5402
 6862TIP3   OH242000   3.699   0.593  15.281  0.1179  0.0151 -0.1549
 6862TIP3    H142001   3.607   0.571  15.289  0.5887 -1.9239  0.2969
 6862TIP3    H242002   3.735   0.579  15.368  0.8868  0.5616 -0.3714
 6863TIP3   OH242003   1.358   3.859   4.549  0.1815  0.0166 -0.0685
 6863TIP3    H142004   1.317   3.841   4.633  1.4038 -4.8522 -0.2249
 6863TIP3    H242005   1.446   3.891   4.571 -0.7638  2.5546  0.3247
 6864TIP3   OH242006   1.205   6.465   5.221 -0.1012 -0.2541 -0.3882
 6864TIP3    H142007   1.241   6.540   5.174 -1.3001  1.4979  1.3894
 6864TIP3    H242008   1.123   6.444   5.175 -0.1758  0.0366 -0.3844
 6865TIP3   OH242009   1.136   6.311  15.398  0.7774  0.4683 -0.0625
 6865TIP3    H142010   1.116   6.307  15.491  0.3185  0.2549 -0.1645
 6865TIP3    H242011   1.175   6.397  15.385  1.8083  0.0950  0.5007
 6866TIP3   OH242012   6.548   1.938  14.317  0.3110  0.1305 -0.2078
 6866TIP3    H142013   6.587   1.905  14.236 -2.3407 -1.1131 -1.0809
 6866TIP3    H242014   6.480   1.999  14.288 -0.6998 -0.3539  1.0400
 6867TIP3   OH242015   0.456   4.209  17.234  0.3371  0.1122  0.1349
 6867TIP3    H142016   0.543   4.224  17.272  1.0174  2.2761 -2.0042
 6867TIP3    H242017   0.462   4.123  17.192  1.0866 -0.1951  0.8476
 6868TIP3   OH242018   3.721   6.511   2.930  0.4756  0.8507  0.4477
 6868TIP3    H142019   3.657   6.580   2.949 -1.6724  0.2884 -3.5807
 6868TIP3    H242020   3.784   6.551   2.871  1.5652  0.3230  1.2067
 6869TIP3   OH242021   2.559   1.407   4.771  0.3680  0.0939 -0.0998
 6869TIP3    H142022   2.569   1.501   4.759 -1.5852  0.3242 -0.1810
 6869TIP3    H242023   2.550   1.372   4.682 -1.4575  0.1903  0.0128
 6870TIP3   OH242024   4.417   6.497  14.955 -0.6401 -0.0511  0.7295
 6870TIP3    H142025   4.356   6.569  14.971  0.0164  0.9003 -0.8814
 6870TIP3    H242026   4.434   6.499  14.861  1.1918 -0.8590  0.9923
 6871TIP3   OH242027   2.788   5.865  10.799 -0.1303 -0.3663  0.9319
 6871TIP3    H142028   2.822   5.847  10.886 -1.6126  0.0620  1.6432
 6871TIP3    H242029   2.803   5.959  10.786 -0.0290 -0.4031  0.7776
 6872TIP3   OH242030   6.753   2.008  12.058 -0.5084  0.2848 -0.3142
 6872TIP3    H142031   6.662   2.021  12.034 -0.4976 -0.5064 -0.8462
 6872TIP3    H242032   6.759   2.037  12.149 -1.3132  0.2368 -0.2408
 6873TIP3   OH242033   4.004   3.712   6.085 -0.2881  1.1006 -0.4052
 6873TIP3    H142034   4.093   3.693   6.114 -1.0788  0.4951  1.8632
 6873TIP3    H242035   4.008   3.709   5.990  1.7070 -0.8166 -0.3372
 6874TIP3   OH242036   5.618   6.752  13.461  0.5900  0.1454 -0.0392
 6874TIP3    H142037   5.659   6.838  13.452  0.1084  0.2087 -2.2183
 6874TIP3    H242038   5.559   6.761  13.536  0.2956  1.8239 -0.4290
 6875TIP3   OH242039   5.483   5.782   0.460  0.1217 -0.4813 -0.3850
 6875TIP3    H142040   5.512   5.734   0.538 -0.4382 -2.2017 -1.1995
 6875TIP3    H242041   5.557   5.838   0.438  1.1665 -1.6323  0.0741
 6876TIP3   OH242042   6.550   4.899   0.494 -0.5125  0.6232 -0.1390
 6876TIP3    H142043   6.462   4.885   0.529 -0.4685 -2.5731 -0.9894
 6876TIP3    H242044   6.536   4.947   0.413 -1.2014  2.2925  0.9254
 6877TIP3   OH242045   1.042   5.759   2.458  0.4483  0.3824 -0.7157
 6877TIP3    H142046   1.127   5.768   2.500 -0.3412 -0.6114  1.2133
 6877TIP3    H242047   1.057   5.697   2.387  0.8709 -1.9849  1.2838
 6878TIP3   OH242048   1.562   3.922  16.879 -0.2962  0.0207  0.2797
 6878TIP3    H142049   1.498   3.922  16.951 -0.1005  0.2260  0.4586
 6878TIP3    H242050   1.540   4.000  16.828 -0.2390  0.0498  0.2985
 6879TIP3   OH242051   2.327   4.580   0.300 -0.4060 -0.2525  0.1490
 6879TIP3    H142052   2.254   4.602   0.358  0.6337  0.1667  1.3407
 6879TIP3    H242053   2.356   4.493   0.329 -0.4967 -0.4714 -0.3996
 6880TIP3   OH242054   1.251   4.073   1.557 -0.2183  0.1088  0.2710
 6880TIP3    H142055   1.209   3.987   1.553  0.0155 -0.0196  0.5654
 6880TIP3    H242056   1.181   4.135   1.533 -0.8478 -0.0186  1.6897
 6881TIP3   OH242057   6.145   0.654  13.842  0.0570 -0.7336  0.1013
 6881TIP3    H142058   6.135   0.696  13.927  1.1346 -1.1888  0.4825
 6881TIP3    H242059   6.092   0.706  13.782  1.4974  1.3341  0.5046
 6882TIP3   OH242060   2.172   0.784  12.149 -0.4654  0.2216 -0.1842
 6882TIP3    H142061   2.252   0.834  12.161 -1.7310  2.0077  1.3619
 6882TIP3    H242062   2.123   0.834  12.083 -0.5942 -0.5117 -0.6564
 6883TIP3   OH242063   0.104   2.743   5.531  0.1274  0.4786  0.5270
 6883TIP3    H142064   0.044   2.818   5.527 -0.1202  0.2497 -1.2128
 6883TIP3    H242065   0.161   2.754   5.454  1.7454  0.2055  1.6359
 6884TIP3   OH242066   5.422   1.947  13.005  0.1282  0.1120  0.2925
 6884TIP3    H142067   5.492   1.995  13.049  0.1901  0.0441  0.2685
 6884TIP3    H242068   5.367   1.914  13.076  1.2984 -1.6604  0.4515
 6885TIP3   OH242069   2.180   4.841  15.399  0.2650  0.2595  0.4799
 6885TIP3    H142070   2.109   4.777  15.408 -0.7450  1.0704 -1.0866
 6885TIP3    H242071   2.226   4.814  15.319 -0.8855  2.0518 -0.8798
 6886TIP3   OH242072   1.211   0.088  11.470 -0.2608 -0.3531  0.6402
 6886TIP3    H142073   1.156   0.016  11.502  0.6766 -1.5516 -0.3287
 6886TIP3    H242074   1.300   0.063  11.494  0.1742  0.0238 -0.5179
 6887TIP3   OH242075   5.492   4.011  11.919  0.2721 -0.3177  0.1870
 6887TIP3    H142076   5.448   4.096  11.923 -2.5455 -1.6932  1.7729
 6887TIP3    H242077   5.477   3.980  11.830  0.0186  0.2045  0.0414
 6888TIP3   OH242078   3.242   4.392   2.727  0.1496 -0.4186 -0.2345
 6888TIP3    H142079   3.231   4.444   2.647 -2.3348  0.3617  0.5224
 6888TIP3    H242080   3.262   4.457   2.795 -1.2170 -0.6010  0.3856
 6889TIP3   OH242081   3.664   3.317   3.571 -0.1163 -1.0247 -0.7479
 6889TIP3    H142082   3.606   3.267   3.630 -0.5777 -1.7641 -1.7990
 6889TIP3    H242083   3.618   3.317   3.487  1.1658 -1.1616 -1.4728
 6890TIP3   OH242084   4.355   0.418   5.287  0.0444  0.3580  0.0552
 6890TIP3    H142085   4.321   0.330   5.301 -0.2068  0.1639 -1.5257
 6890TIP3    H242086   4.446   0.413   5.314 -0.2517 -0.0817  1.0086
 6891TIP3   OH242087   6.709   1.612  16.038  0.2950 -0.1127 -0.0535
 6891TIP3    H142088   6.778   1.565  16.083  3.3521  1.8666 -2.2630
 6891TIP3    H242089   6.706   1.698  16.081  1.1448  0.7258 -1.5632
 6892TIP3   OH242090   5.094   5.223   4.863 -0.4854  0.6256  0.0275
 6892TIP3    H142091   5.161   5.250   4.799  0.6717  0.5935  1.1921
 6892TIP3    H242092   5.122   5.136   4.891 -1.9601 -0.1112 -0.6835
 6893TIP3   OH242093   3.638   0.852   5.964  0.0874 -0.0283 -0.0990
 6893TIP3    H142094   3.632   0.790   6.036  0.2789 -0.1534 -0.1909
 6893TIP3    H242095   3.678   0.930   6.002 -1.0523  0.4069  0.2564
 6894TIP3   OH242096   6.062   0.433  13.423  0.2489  0.0350  0.2241
 6894TIP3    H142097   6.132   0.498  13.419  1.1283 -0.7741  1.5112
 6894TIP3    H242098   6.106   0.353  13.452 -1.0387 -0.7744 -0.0037
 6895TIP3   OH242099   1.598   0.456   6.194  0.5320  0.5375 -0.4495
 6895TIP3    H142100   1.648   0.487   6.269 -0.2422  0.7655 -0.0152
 6895TIP3    H242101   1.600   0.360   6.201  0.9398  0.5450 -0.4631
 6896TIP3   OH242102   3.304   4.861  13.000  0.1072 -0.6194 -0.2286
 6896TIP3    H142103   3.293   4.791  13.065 -1.1790 -0.4626 -0.2639
 6896TIP3    H242104   3.399   4.875  12.997  0.4933 -2.9183 -0.8155
 6897TIP3   OH242105   0.707   1.680   1.521 -0.2314 -0.4667  0.4422
 6897TIP3    H142106   0.662   1.669   1.605  1.8129 -0.7897  1.5598
 6897TIP3    H242107   0.696   1.772   1.499 -1.7113 -0.6086  0.4811
 6898TIP3   OH242108   1.997   0.424  15.863  0.7966 -0.2072 -0.0218
 6898TIP3    H142109   1.909   0.415  15.899  1.6764 -1.5568  2.0239
 6898TIP3    H242110   2.013   0.341  15.819  0.3290  0.8350 -2.2934
 6899TIP3   OH242111   3.220   4.068   0.316 -0.3449  0.2314  0.2594
 6899TIP3    H142112   3.185   4.055   0.404  0.4245 -1.6735  0.3331
 6899TIP3    H242113   3.151   4.114   0.269 -1.3967 -0.1115  1.4239
 6900TIP3   OH242114   3.557   2.581   3.829  0.0931  0.5763  0.3157
 6900TIP3    H142115   3.531   2.512   3.890 -0.0857  0.5102  0.1676
 6900TIP3    H242116   3.605   2.534   3.760  0.6342  0.7016  0.6035
 6901TIP3   OH242117   2.701   3.443   3.354 -0.0746  0.5855  0.4122
 6901TIP3    H142118   2.613   3.482   3.357  0.1617  1.0909  0.9488
 6901TIP3    H242119   2.760   3.518   3.357  0.3807  0.3397 -1.2974
 6902TIP3   OH242120   2.009   4.588  11.474  0.7507 -0.2975 -0.7751
 6902TIP3    H142121   2.000   4.510  11.420  0.7448 -0.7267 -0.1711
 6902TIP3    H242122   1.926   4.593  11.523  0.2125  0.8344 -1.7592
 6903TIP3   OH242123   1.772   6.026  14.101 -0.0455  0.0196  0.4105
 6903TIP3    H142124   1.714   6.075  14.159 -0.9647  1.4758 -1.6060
 6903TIP3    H242125   1.854   6.018  14.150 -0.9560  0.6601  2.1052
 6904TIP3   OH242126   2.624   6.010   2.705  0.1790  0.1071 -0.7035
 6904TIP3    H142127   2.718   5.999   2.691 -0.0920 -1.5690 -1.5084
 6904TIP3    H242128   2.616   6.029   2.798  1.5153  3.9220 -1.2059
 6905TIP3   OH242129   6.514   6.090   0.033  0.2814  0.6301 -0.0411
 6905TIP3    H142130   6.609   6.077   0.028  0.4267  1.4094  0.5553
 6905TIP3    H242131   6.478   6.022  -0.023  1.1756  0.0470  0.0676
 6906TIP3   OH242132   2.232   1.606  14.749 -0.3337 -1.0795 -0.7440
 6906TIP3    H142133   2.304   1.558  14.708 -0.2881 -1.5771 -0.0937
 6906TIP3    H242134   2.223   1.567  14.836 -0.5677 -0.1832 -0.3513
 6907TIP3   OH242135   2.021   2.628   0.726  0.0241  0.9308  0.0627
 6907TIP3    H142136   1.988   2.710   0.688  0.0098  1.7044  1.6192
 6907TIP3    H242137   2.068   2.585   0.655 -1.1506  1.6232 -1.1721
 6908TIP3   OH242138   1.946   1.755  15.000 -0.0412  0.4730  0.2801
 6908TIP3    H142139   1.984   1.831  15.046  2.1646 -1.5407  2.0475
 6908TIP3    H242140   1.943   1.686  15.067  0.7616 -1.8345 -1.9286
 6909TIP3   OH242141   2.953   0.157   2.459  0.3305 -0.4404  0.3048
 6909TIP3    H142142   2.941   0.237   2.510 -1.0949 -1.0803  1.0418
 6909TIP3    H242143   3.002   0.099   2.516  1.8632  0.0630 -0.4421
 6910TIP3   OH242144   6.429   1.825   2.745  0.4041  0.3854  0.3580
 6910TIP3    H142145   6.406   1.785   2.828  1.8891 -1.7604 -0.1710
 6910TIP3    H242146   6.391   1.767   2.679 -0.3822  1.8150 -0.5224
 6911TIP3   OH242147   1.358   1.113  12.836  0.2021  0.6469 -0.4310
 6911TIP3    H142148   1.426   1.048  12.815 -0.4904  0.5805 -2.7483
 6911TIP3    H242149   1.407   1.191  12.864  1.1155 -0.1372  0.2232
 6912TIP3   OH242150   4.554   5.510   5.408 -0.4621 -0.3276 -0.0905
 6912TIP3    H142151   4.554   5.416   5.390 -0.1992  0.1425 -3.0194
 6912TIP3    H242152   4.640   5.540   5.378 -0.0874  0.7098  1.9006
 6913TIP3   OH242153   0.703   0.607  14.986  0.0283 -0.3833  0.3135
 6913TIP3    H142154   0.737   0.696  14.995 -0.2535 -0.1657 -0.7258
 6913TIP3    H242155   0.767   0.552  15.032 -0.1123  0.4131  1.4965
 6914TIP3   OH242156   2.751   5.644   4.786  0.6259  0.0031  0.5471
 6914TIP3    H142157   2.775   5.556   4.815  2.1360 -0.6828 -2.3963
 6914TIP3    H242158   2.668   5.632   4.740  0.7896  0.1265  0.2196
 6915TIP3   OH242159   6.016   0.068   4.974 -0.1440  0.4264  0.3704
 6915TIP3    H142160   6.008   0.137   5.040 -1.9040 -0.8047  1.5483
 6915TIP3    H242161   6.058  -0.004   5.020 -0.1793  0.0089 -0.2461
 6916TIP3   OH242162   1.873   3.623  16.507  0.4358 -0.6404 -0.2226
 6916TIP3    H142163   1.878   3.652  16.598 -0.4237  0.8281 -0.6175
 6916TIP3    H242164   1.953   3.572  16.494  1.3107  0.3755  0.9402
 6917TIP3   OH242165   2.413   2.824  16.429 -0.1112  0.6098  0.7569
 6917TIP3    H142166   2.342   2.863  16.379  0.7626  1.5599  0.2051
 6917TIP3    H242167   2.483   2.810  16.365 -0.3781 -1.9209  0.9327
 6918TIP3   OH242168   6.459   1.108  16.082 -0.1153  0.2645  0.1364
 6918TIP3    H142169   6.480   1.201  16.077  2.3732 -0.0794  1.8218
 6918TIP3    H242170   6.452   1.079  15.991  2.5475  1.5000 -0.5598
 6919TIP3   OH242171   3.647   4.288   3.912 -0.6287 -0.5112 -0.3100
 6919TIP3    H142172   3.564   4.333   3.925 -1.1141 -1.4183 -0.1841
 6919TIP3    H242173   3.699   4.348   3.859 -0.5501  1.0163  1.3953
 6920TIP3   OH242174   6.077   5.855  16.057 -0.2223  0.1813 -0.0704
 6920TIP3    H142175   6.130   5.925  16.096  1.0992 -1.2876  0.8553
 6920TIP3    H242176   6.101   5.856  15.964 -2.0134  2.4745 -0.6153
 6921TIP3   OH242177   5.331   3.467   1.058  0.1930 -0.2879  0.0353
 6921TIP3    H142178   5.357   3.375   1.061  0.2229 -0.2938 -0.4488
 6921TIP3    H242179   5.276   3.478   1.136 -0.9133 -1.0604 -0.6036
 6922TIP3   OH242180   0.907   3.154   5.364  0.2216 -0.1355  0.2970
 6922TIP3    H142181   0.843   3.114   5.423 -0.1695  0.1202  0.0565
 6922TIP3    H242182   0.858   3.224   5.320  0.4774 -0.3759 -0.3930
 6923TIP3   OH242183   5.074   5.973   2.921  0.3477 -0.4539 -0.1345
 6923TIP3    H142184   5.072   5.894   2.868  1.0523 -0.5807  0.0234
 6923TIP3    H242185   5.167   5.994   2.931  0.2831 -0.8959  1.7454
 6924TIP3   OH242186   6.057   5.438  14.544 -0.0572  0.3845  0.2123
 6924TIP3    H142187   6.049   5.386  14.623  0.6000  0.3582  0.2655
 6924TIP3    H242188   6.118   5.507  14.567  3.1158 -1.6909 -1.2860
 6925TIP3   OH242189   0.294   0.716   5.821  0.7295 -0.0782 -0.5499
 6925TIP3    H142190   0.339   0.660   5.884  1.9254 -0.2526 -1.5169
 6925TIP3    H242191   0.211   0.738   5.863  1.1416 -0.8576  0.7240
 6926TIP3   OH242192   3.910   1.790  13.689  0.0383 -0.3335 -0.3364
 6926TIP3    H142193   3.851   1.866  13.686 -2.5353 -2.2080 -1.0527
 6926TIP3    H242194   3.851   1.715  13.688  2.3641 -2.4079  2.1272
 6927TIP3   OH242195   5.655   4.001   3.990 -0.2848  0.2367  0.2175
 6927TIP3    H142196   5.595   4.069   3.958 -0.7983 -1.1270 -1.9833
 6927TIP3    H242197   5.599   3.942   4.041 -0.1083  0.7260  0.9923
 6928TIP3   OH242198   4.563   0.930  15.259 -0.3269  0.5706  0.2674
 6928TIP3    H142199   4.651   0.956  15.285 -0.1898 -0.6325  1.0489
 6928TIP3    H242200   4.552   0.842  15.295 -2.1988  1.0728  1.0493
 6929TIP3   OH242201   6.465   4.235  15.938  0.3683 -0.3404  0.7358
 6929TIP3    H142202   6.533   4.176  15.907 -0.8424 -1.5765  0.2988
 6929TIP3    H242203   6.386   4.208  15.890 -0.9694 -0.5095  2.8772
 6930TIP3   OH242204   0.791   3.660   4.130 -0.1207  0.5742  0.0716
 6930TIP3    H142205   0.791   3.593   4.062  1.6620 -0.4309  0.9855
 6930TIP3    H242206   0.884   3.680   4.143 -0.5260  1.9233  1.0790
 6931TIP3   OH242207   0.792   4.585  12.177  0.0995  0.1541 -0.3601
 6931TIP3    H142208   0.719   4.523  12.171 -0.2558  0.3062  1.5366
 6931TIP3    H242209   0.757   4.668  12.146 -0.9169  0.4650  1.4431
 6932TIP3   OH242210   0.061   0.536   6.316  0.1927  0.2878 -0.1095
 6932TIP3    H142211   0.010   0.497   6.387 -0.6700 -1.2108 -1.4721
 6932TIP3    H242212   0.009   0.611   6.289 -0.3877 -0.1619 -0.2847
 6933TIP3   OH242213   3.589   0.941  13.215 -0.0415  0.0418 -0.0482
 6933TIP3    H142214   3.673   0.987  13.224  0.5915 -0.6021 -2.1023
 6933TIP3    H242215   3.529   0.991  13.270  1.2305  1.7558 -0.1138
 6934TIP3   OH242216   6.681   3.804   2.775  0.0052 -0.8075  0.0878
 6934TIP3    H142217   6.625   3.822   2.850  1.9601  0.0141  1.3992
 6934TIP3    H242218   6.700   3.890   2.738  0.1287 -1.1130 -0.5711
 6935TIP3   OH242219   3.184   2.249  14.345  0.1049 -0.3374 -0.2818
 6935TIP3    H142220   3.246   2.176  14.347 -0.8152 -1.2246 -1.8195
 6935TIP3    H242221   3.128   2.235  14.422 -0.0512 -1.2811 -0.5456
 6936TIP3   OH242222   1.223   4.671   4.288  0.1131 -0.0766  0.1918
 6936TIP3    H142223   1.199   4.581   4.307 -0.7293  0.0524 -0.2054
 6936TIP3    H242224   1.319   4.673   4.294  0.0830 -0.8183  0.9204
 6937TIP3   OH242225   4.639   4.198   4.056  0.2193  0.5251  0.0659
 6937TIP3    H142226   4.620   4.208   3.963 -0.4700 -0.4303  0.0888
 6937TIP3    H242227   4.557   4.164   4.093  0.6884  0.3010  0.9168
 6938TIP3   OH242228   3.015   4.302   6.365 -0.0747 -0.4867 -0.0811
 6938TIP3    H142229   2.941   4.279   6.422 -0.6426  0.8069 -0.2696
 6938TIP3    H242230   3.054   4.379   6.406  1.0268 -0.9970 -0.1308
 6939TIP3   OH242231   5.624   1.156  12.146 -0.8727 -0.3267  0.4070
 6939TIP3    H142232   5.671   1.166  12.063  0.7134 -1.8101  1.0897
 6939TIP3    H242233   5.611   1.246  12.177 -1.3984  0.2485 -1.3530
 6940TIP3   OH242234   3.385   0.299   4.100  0.2111 -0.5770  0.4992
 6940TIP3    H142235   3.403   0.336   4.187 -0.3010  0.2167  0.2742
 6940TIP3    H242236   3.290   0.293   4.096  0.2316 -0.5513 -0.0348
 6941TIP3   OH242237   0.521   1.068  13.828 -0.3401  0.1835 -0.5071
 6941TIP3    H142238   0.610   1.043  13.804 -0.4755 -0.8789  0.0521
 6941TIP3    H242239   0.492   1.124  13.756  0.1000 -1.0204 -1.6651
 6942TIP3   OH242240   4.432   5.224  13.644 -0.8252 -0.3889 -0.1581
 6942TIP3    H142241   4.404   5.302  13.692  0.3394  1.1538 -1.8390
 6942TIP3    H242242   4.371   5.218  13.570 -0.0317 -0.1780 -0.8474
 6943TIP3   OH242243   0.877   1.714   5.927  0.0475  0.6723 -0.4343
 6943TIP3    H142244   0.871   1.619   5.928  0.3248  0.6559 -0.4122
 6943TIP3    H242245   0.788   1.744   5.949  0.2191  0.4111  0.6776
 6944TIP3   OH242246   5.144   4.310   2.644 -0.9319 -0.0001 -0.0075
 6944TIP3    H142247   5.066   4.362   2.664 -1.4722 -0.8808  0.2191
 6944TIP3    H242248   5.214   4.375   2.638 -1.2075  0.6202  2.2062
 6945TIP3   OH242249   5.195   5.119   5.786 -0.2213  0.0037 -0.0707
 6945TIP3    H142250   5.158   5.034   5.811  0.8422  0.3423  3.0749
 6945TIP3    H242251   5.282   5.098   5.752 -1.4066 -0.3943 -3.2016
 6946TIP3   OH242252   4.491   3.830   5.835 -0.2129 -0.4643 -0.5867
 6946TIP3    H142253   4.482   3.925   5.826  0.3364 -0.5348 -2.0701
 6946TIP3    H242254   4.403   3.799   5.856 -0.4670  0.3347 -0.4646
 6947TIP3   OH242255   1.245   2.863   1.794 -0.3391  0.1630  0.0591
 6947TIP3    H142256   1.203   2.845   1.878 -2.2948 -0.1633 -0.9315
 6947TIP3    H242257   1.194   2.936   1.757  0.5303  0.3485 -0.8186
 6948TIP3   OH242258   5.285   0.338  16.616  0.7845  0.0697 -0.1006
 6948TIP3    H142259   5.359   0.348  16.675  0.7384  0.0288 -0.0355
 6948TIP3    H242260   5.213   0.386  16.658  0.2933 -1.2958  0.6856
 6949TIP3   OH242261   3.243   1.624   3.951 -0.2815 -0.0664 -0.1207
 6949TIP3    H142262   3.155   1.617   3.988 -0.5399  0.3419 -0.6409
 6949TIP3    H242263   3.282   1.538   3.967 -0.4914  0.0054  0.8089
 6950TIP3   OH242264   0.878   1.160   0.654  0.2637  0.0584 -0.1893
 6950TIP3    H142265   0.903   1.068   0.663 -1.4978 -0.5355 -0.9122
 6950TIP3    H242266   0.921   1.189   0.573 -0.2382 -0.5486 -0.6859
 6951TIP3   OH242267   5.131   1.333   2.023 -0.0384 -0.0022 -0.8303
 6951TIP3    H142268   5.156   1.355   1.934  0.4845  1.3860 -0.3680
 6951TIP3    H242269   5.090   1.413   2.057  0.8646 -0.1025  0.5544
 6952TIP3   OH242270   3.722   3.787   1.843 -0.3023  0.4287  0.2882
 6952TIP3    H142271   3.775   3.849   1.894 -1.0081  0.2705  1.2360
 6952TIP3    H242272   3.651   3.840   1.808 -1.0543  0.1247  1.3171
 6953TIP3   OH242273   5.083   2.530  12.531 -0.2851  0.2345 -0.4240
 6953TIP3    H142274   5.030   2.582  12.470  0.0742 -1.0407 -1.8718
 6953TIP3    H242275   5.033   2.449  12.543  0.0230  0.1575  0.4021
 6954TIP3   OH242276   1.975   3.119  13.756  0.0190  0.0391  0.1611
 6954TIP3    H142277   1.957   3.212  13.768 -2.1615 -0.3300  0.2581
 6954TIP3    H242278   1.909   3.075  13.810 -1.3967 -1.5751 -2.6327
 6955TIP3   OH242279   4.753   1.373  11.495 -0.5085  0.0236 -0.4046
 6955TIP3    H142280   4.804   1.303  11.454  0.5745  0.3506  0.3375
 6955TIP3    H242281   4.684   1.327  11.543 -1.0411 -0.4190 -1.5601
 6956TIP3   OH242282   2.173   1.977   1.513  0.0572 -0.1719  0.9293
 6956TIP3    H142283   2.077   1.979   1.503  0.1890 -1.1892 -1.2018
 6956TIP3    H242284   2.202   2.059   1.473  0.1157 -0.1645  0.9882
 6957TIP3   OH242285   0.203   3.856  16.720 -0.3184  0.4211  0.8846
 6957TIP3    H142286   0.276   3.846  16.781  0.1572 -0.3152  0.2188
 6957TIP3    H242287   0.243   3.887  16.639 -0.9066  1.1023  0.8403
 6958TIP3   OH242288   2.420   1.280   5.118  0.1028 -0.2757 -0.1777
 6958TIP3    H142289   2.392   1.241   5.200 -2.1133  0.6003 -0.4390
 6958TIP3    H242290   2.404   1.212   5.052  3.4493 -1.6144  0.1831
 6959TIP3   OH242291   6.078   6.273  14.293 -0.1510  0.3160 -0.4557
 6959TIP3    H142292   6.023   6.273  14.371 -0.5474  0.0863 -0.7359
 6959TIP3    H242293   6.111   6.363  14.288  0.5476  0.1249  0.4400
 6960TIP3   OH242294   6.782   1.100  11.838 -0.0980  0.0156  0.5658
 6960TIP3    H142295   6.854   1.140  11.791  1.3596 -0.5525  2.1986
 6960TIP3    H242296   6.716   1.169  11.845  0.6341  0.8157 -0.2459
 6961TIP3   OH242297   3.760   2.660   1.999  1.1171  0.2245 -0.1411
 6961TIP3    H142298   3.812   2.687   1.923  1.1290  1.5730  0.3210
 6961TIP3    H242299   3.825   2.644   2.068  1.1676 -1.7201 -0.5778
 6962TIP3   OH242300   2.918   0.396  10.944 -0.1058  0.5696  0.0699
 6962TIP3    H142301   2.937   0.394  10.850  0.3167 -0.1693  0.1574
 6962TIP3    H242302   2.839   0.344  10.954 -0.4885  1.1437  0.0572
 6963TIP3   OH242303   1.886   5.669  12.796 -0.6344  0.0898  0.0970
 6963TIP3    H142304   1.968   5.621  12.801  0.0819  1.3389  0.9429
 6963TIP3    H242305   1.857   5.677  12.886 -1.9062 -0.6591 -0.2269
 6964TIP3   OH242306   6.358   5.645  17.163  0.7757  0.3120 -0.2511
 6964TIP3    H142307   6.385   5.553  17.160  0.5455  0.2464 -0.2801
 6964TIP3    H242308   6.263   5.643  17.155  0.8156  0.5832 -0.9318
 6965TIP3   OH242309   1.296   1.498   2.865 -0.2144  0.2282 -0.2579
 6965TIP3    H142310   1.322   1.526   2.953  1.7831  1.2579 -1.1315
 6965TIP3    H242311   1.219   1.552   2.845  0.1198  0.9412  0.3359
 6966TIP3   OH242312   0.215   4.063   4.611  0.3542 -0.0068  0.0431
 6966TIP3    H142313   0.259   4.044   4.694  0.0159  0.2883  0.2943
 6966TIP3    H242314   0.123   4.072   4.634  0.3299  0.6482 -0.2707
 6967TIP3   OH242315   5.579   2.738   2.299  0.0035 -0.2701  0.4434
 6967TIP3    H142316   5.664   2.711   2.263  0.3326  0.1405  0.9042
 6967TIP3    H242317   5.581   2.834   2.297 -0.2153 -0.2509  1.0022
 6968TIP3   OH242318   2.765   4.965  14.494 -0.1628  0.2157 -0.0726
 6968TIP3    H142319   2.732   5.044  14.452 -0.0841  1.1555  1.5437
 6968TIP3    H242320   2.722   4.893  14.448 -0.2229  1.1805 -1.5899
 6969TIP3   OH242321   2.853   3.015   3.088  0.0309 -0.6956  0.3447
 6969TIP3    H142322   2.870   3.101   3.049 -3.4842  1.0153  2.1000
 6969TIP3    H242323   2.884   3.022   3.178 -3.1241  0.0923  1.5078
 6970TIP3   OH242324   5.594   0.135   2.444 -0.2035 -0.2853 -0.0902
 6970TIP3    H142325   5.610   0.047   2.411  0.6645 -0.5214  0.9107
 6970TIP3    H242326   5.681   0.170   2.464 -0.6431 -0.2520  2.1166
 6971TIP3   OH242327   3.675   2.472   3.611 -0.3476  0.4105  0.3676
 6971TIP3    H142328   3.761   2.446   3.644 -0.7308  1.5902  2.4606
 6971TIP3    H242329   3.694   2.514   3.526  1.3664  1.9447  1.4173
 6972TIP3   OH242330   0.307   4.039   5.682 -0.8091 -0.1794 -0.1575
 6972TIP3    H142331   0.372   3.974   5.656  0.1819  1.1923 -1.3234
 6972TIP3    H242332   0.223   4.003   5.654 -0.5309 -1.8285  1.0457
 6973TIP3   OH242333   6.009   5.514  14.832 -0.2226  0.2102  0.4021
 6973TIP3    H142334   6.054   5.567  14.767 -0.7421  0.1999  0.0280
 6973TIP3    H242335   5.946   5.573  14.873 -2.9697 -0.7248 -2.0784
 6974TIP3   OH242336   4.879   2.731   0.140 -0.2061 -0.3088 -0.4731
 6974TIP3    H142337   4.860   2.638   0.146 -0.4477 -0.3003 -1.0385
 6974TIP3    H242338   4.825   2.762   0.067 -1.0453  0.5105  0.4530
 6975TIP3   OH242339   3.106   5.135   4.844  0.4614  0.0552 -0.5642
 6975TIP3    H142340   3.149   5.083   4.776  0.3485 -0.3900 -0.3012
 6975TIP3    H242341   3.176   5.186   4.884  0.9496 -1.4162  0.5551
 6976TIP3   OH242342   1.527   6.037   0.567  0.4749  0.2520  0.2739
 6976TIP3    H142343   1.551   6.114   0.619  1.0748  0.0282  0.3412
 6976TIP3    H242344   1.578   5.966   0.606 -0.6825 -0.3457  0.7253
 6977TIP3   OH242345   2.312   3.203  15.301  0.7468  0.2407  0.2213
 6977TIP3    H142346   2.361   3.122  15.317  2.0908  0.9624 -0.1268
 6977TIP3    H242347   2.320   3.252  15.383 -0.6068 -0.2340  0.6574
 6978TIP3   OH242348   3.363   3.631  11.479  0.3598 -0.1415  0.0691
 6978TIP3    H142349   3.349   3.580  11.399  2.2852  0.1084 -0.4834
 6978TIP3    H242350   3.275   3.649  11.512 -0.4344 -2.1296 -0.7815
 6979TIP3   OH242351   6.767   5.470   3.662  0.0327 -0.4007  0.2267
 6979TIP3    H142352   6.689   5.525   3.652  0.1973 -0.3031 -0.6358
 6979TIP3    H242353   6.754   5.425   3.745 -0.7712 -0.1077  0.2718
 6980TIP3   OH242354   2.675   4.112  14.193  1.0907  0.4754 -0.3032
 6980TIP3    H142355   2.688   4.143  14.103  0.2637 -0.1594 -0.6533
 6980TIP3    H242356   2.719   4.028  14.196  1.5001  0.6949  0.0281
 6981TIP3   OH242357   1.727   4.222  12.143  0.1678  0.6276  0.2982
 6981TIP3    H142358   1.779   4.250  12.067 -1.7569 -1.8894 -2.1491
 6981TIP3    H242359   1.640   4.257  12.127 -1.1588 -2.7241 -0.6035
 6982TIP3   OH242360   4.677   6.228  16.097 -0.2432 -0.3138 -0.0019
 6982TIP3    H142361   4.759   6.233  16.048  0.3481 -0.9001  0.8910
 6982TIP3    H242362   4.703   6.197  16.184 -1.4719 -1.0417  0.1293
 6983TIP3   OH242363   1.781   2.662  14.206  0.0318 -0.0302  0.4608
 6983TIP3    H142364   1.694   2.701  14.199 -1.1514 -2.1426  2.2101
 6983TIP3    H242365   1.765   2.575  14.243  2.3365 -2.7802 -4.0888
 6984TIP3   OH242366   2.575   3.655  16.505 -0.4289  0.2328 -0.3780
 6984TIP3    H142367   2.665   3.681  16.485 -0.7779  1.5961 -0.3207
 6984TIP3    H242368   2.527   3.671  16.423 -0.9836  1.4617  0.1539
 6985TIP3   OH242369   0.254   2.538  11.398  0.3595  0.4014 -0.1636
 6985TIP3    H142370   0.237   2.552  11.491  0.2778 -1.1195  0.0729
 6985TIP3    H242371   0.321   2.603  11.376  1.3980 -0.1225  1.3037
 6986TIP3   OH242372   6.670   4.886   5.255 -0.1807  0.2285 -0.2778
 6986TIP3    H142373   6.706   4.912   5.340 -1.3779 -0.0309  0.3276
 6986TIP3    H242374   6.701   4.954   5.194 -0.8388  1.4490  0.7164
 6987TIP3   OH242375   5.774   6.761   5.509 -0.1536 -0.2835 -0.0839
 6987TIP3    H142376   5.683   6.761   5.536 -0.1422  0.6849  0.0145
 6987TIP3    H242377   5.777   6.823   5.435  0.1730 -1.3574 -1.0096
 6988TIP3   OH242378   3.826   6.197  12.875  0.1369 -0.6856 -0.2455
 6988TIP3    H142379   3.818   6.125  12.937  0.0230 -0.4998 -0.0431
 6988TIP3    H242380   3.823   6.155  12.789  1.3338 -1.0555 -0.1246
 6989TIP3   OH242381   5.540   2.451   1.888  0.2975 -0.4406 -0.6717
 6989TIP3    H142382   5.617   2.414   1.932  2.3590  2.1791 -1.7566
 6989TIP3    H242383   5.472   2.454   1.956  2.3474  0.6017  1.4856
 6990TIP3   OH242384   5.599   2.097   4.198 -0.0668  0.6693 -1.0572
 6990TIP3    H142385   5.549   2.036   4.253  0.0553  1.2091 -0.3312
 6990TIP3    H242386   5.650   2.040   4.139 -0.2142  0.0777 -0.6233
 6991TIP3   OH242387   4.252   0.362   1.020  0.2743 -0.3328  0.0438
 6991TIP3    H142388   4.289   0.292   1.073  0.7787 -1.0417 -1.1986
 6991TIP3    H242389   4.194   0.317   0.958 -0.5856  0.5039  0.2156
 6992TIP3   OH242390   3.057   5.804   1.695 -0.1584 -0.3937 -0.2911
 6992TIP3    H142391   3.040   5.715   1.663  1.1255 -0.6024 -0.4432
 6992TIP3    H242392   3.149   5.820   1.673  0.0885  0.3629  1.1917
 6993TIP3   OH242393   6.190   6.440   1.679 -0.1968  0.5570 -0.2010
 6993TIP3    H142394   6.111   6.393   1.653 -1.5550  1.7517  1.5146
 6993TIP3    H242395   6.185   6.523   1.631  0.7208  0.1392 -1.0610
 6994TIP3   OH242396   0.359   4.126  14.316 -0.2703 -0.1792 -0.2127
 6994TIP3    H142397   0.291   4.193  14.310 -1.2554 -1.1455 -0.1725
 6994TIP3    H242398   0.373   4.097  14.226  1.2653  1.1119 -0.4373
 6995TIP3   OH242399   3.659   4.795  13.150  0.4456 -0.4419 -0.0088
 6995TIP3    H142400   3.575   4.764  13.184  0.7958 -1.1526  0.2259
 6995TIP3    H242401   3.636   4.850  13.076 -0.2696  0.0724  0.5856
 6996TIP3   OH242402   3.742   2.160  14.882 -0.1155 -0.2438 -0.1135
 6996TIP3    H142403   3.693   2.234  14.916 -0.1441 -0.5077  0.4346
 6996TIP3    H242404   3.678   2.088  14.879 -0.4509  0.1031 -1.9694
 6997TIP3   OH242405   5.941   1.240  10.781  0.3423  0.0910  0.1359
 6997TIP3    H142406   5.955   1.319  10.728  1.3462  1.0755  1.7813
 6997TIP3    H242407   6.019   1.235  10.837 -1.5921  0.3028  3.0207
 6998TIP3   OH242408   1.148   6.380  13.468  0.3056 -0.4213  0.5927
 6998TIP3    H142409   1.134   6.406  13.377 -0.9089 -0.4276  0.7597
 6998TIP3    H242410   1.243   6.372  13.477  0.3974 -1.4156 -0.9560
 6999TIP3   OH242411   6.242   6.377  13.188  0.4907 -0.0753 -0.3034
 6999TIP3    H142412   6.333   6.387  13.162  0.1654  2.5789 -0.7187
 6999TIP3    H242413   6.244   6.380  13.283  0.8726 -0.6211 -0.2891
 7000TIP3   OH242414   5.085   2.444  16.827  0.2286  0.0310 -0.2617
 7000TIP3    H142415   5.033   2.434  16.748 -0.1512 -1.3432  0.1454
 7000TIP3    H242416   5.173   2.467  16.796 -0.1663  0.5531 -1.0198
 7001TIP3   OH242417   5.536   4.654   2.547 -0.2178  0.2855  0.0062
 7001TIP3    H142418   5.551   4.582   2.486  0.1323  0.8140 -0.5507
 7001TIP3    H242419   5.515   4.729   2.491  1.4157  1.1186  0.4139
 7002TIP3   OH242420   6.409   5.133   5.832  0.2142  0.1240  0.6212
 7002TIP3    H142421   6.402   5.193   5.906 -0.6182  0.1448  0.5296
 7002TIP3    H242422   6.343   5.066   5.849 -1.7719  1.4690 -1.3357
 7003TIP3   OH242423   0.684   1.857   3.112  0.4603 -0.3432  0.2341
 7003TIP3    H142424   0.692   1.908   3.032  2.0557 -0.1904  0.4695
 7003TIP3    H242425   0.771   1.858   3.151  1.0192 -4.4536 -0.4454
 7004TIP3   OH242426   4.975   3.456   5.423  0.2967 -0.3935 -0.1907
 7004TIP3    H142427   4.952   3.375   5.378 -2.0954 -0.0593  0.3038
 7004TIP3    H242428   4.892   3.487   5.459  1.4924  1.3020  1.2292
 7005TIP3   OH242429   0.678   4.616  16.761 -0.3146 -0.3048  0.1945
 7005TIP3    H142430   0.661   4.582  16.673 -1.7462 -0.4594  0.5038
 7005TIP3    H242431   0.662   4.542  16.819 -2.5926  0.5646  0.8090
 7006TIP3   OH242432   4.429   4.032   0.383 -0.4997 -0.0103 -0.1717
 7006TIP3    H142433   4.460   4.004   0.469 -1.9349  1.8887  1.0472
 7006TIP3    H242434   4.390   4.118   0.399 -1.4266  0.0863 -2.6092
 7007TIP3   OH242435   3.108   4.006   3.170 -0.4804 -0.0573 -0.3806
 7007TIP3    H142436   3.096   3.965   3.255 -0.7443 -0.7082 -0.7276
 7007TIP3    H242437   3.160   4.085   3.188  1.9187 -1.6154  0.0318
 7008TIP3   OH242438   3.741   5.987   3.469  0.0065  0.3421  0.0452
 7008TIP3    H142439   3.748   6.073   3.427 -0.7394  0.1617 -0.4668
 7008TIP3    H242440   3.813   5.937   3.431 -1.2722 -0.1503 -1.8659
 7009TIP3   OH242441   0.762   5.003  12.176 -0.0258  0.0499 -0.2997
 7009TIP3    H142442   0.777   5.064  12.248 -0.2240 -0.0298 -0.1888
 7009TIP3    H242443   0.680   4.959  12.199  0.2702 -0.4672 -0.2368
 7010TIP3   OH242444   1.876   5.165   3.155 -0.1446 -0.3514 -0.1595
 7010TIP3    H142445   1.925   5.095   3.113 -1.0393  0.4476 -2.7370
 7010TIP3    H242446   1.791   5.125   3.176 -1.3152  0.2178 -3.2010
 7011TIP3   OH242447   6.730   1.827   0.475  0.5936  0.6467 -0.5038
 7011TIP3    H142448   6.665   1.759   0.493  0.4855  0.8417 -0.1456
 7011TIP3    H242449   6.813   1.780   0.470  0.4941  0.4632 -0.4376
 7012TIP3   OH242450   2.840   0.700   4.482 -0.1796  0.4800 -0.4087
 7012TIP3    H142451   2.790   0.620   4.472 -2.7072  1.9781 -0.6938
 7012TIP3    H242452   2.864   0.725   4.392  2.2146 -0.8280 -0.1976
 7013TIP3   OH242453   4.254   2.273   2.181  0.0138  0.1886  0.0258
 7013TIP3    H142454   4.248   2.295   2.088 -2.7415  1.0816  0.3284
 7013TIP3    H242455   4.210   2.189   2.189  1.7225 -0.7221  0.3415
 7014TIP3   OH242456   2.723   0.521  13.677 -0.8503 -0.2507 -0.3823
 7014TIP3    H142457   2.659   0.475  13.732  1.9220 -3.0335  0.8330
 7014TIP3    H242458   2.786   0.557  13.740  0.3389 -0.1200 -1.6107
 7015TIP3   OH242459   0.843   2.396  12.105  0.0348  0.0986  0.2582
 7015TIP3    H142460   0.817   2.482  12.073 -0.1269 -0.1942 -0.3998
 7015TIP3    H242461   0.784   2.378  12.179 -0.8396 -0.0398 -0.4648
 7016TIP3   OH242462   4.477   0.256  15.962  0.2626  0.0824  0.3770
 7016TIP3    H142463   4.390   0.241  15.997  0.2773 -0.7133  0.0882
 7016TIP3    H242464   4.482   0.351  15.950  0.4615  0.4677  2.9717
 7017TIP3   OH242465   2.885   0.517  13.261 -0.2836 -0.9806 -0.1412
 7017TIP3    H142466   2.879   0.546  13.170  0.6927 -1.8547 -0.5086
 7017TIP3    H242467   2.899   0.597  13.311 -2.4130 -0.3006 -0.5590
 7018TIP3   OH242468   4.277   1.004   0.401  0.2640 -1.0034 -0.0147
 7018TIP3    H142469   4.243   0.997   0.311  1.7968 -0.1530 -0.7029
 7018TIP3    H242470   4.369   0.978   0.394  1.8329  3.5339  0.2728
 7019TIP3   OH242471   5.557   3.214  17.102 -0.4033 -0.2831  0.1202
 7019TIP3    H142472   5.639   3.189  17.058 -0.3438 -1.2687  0.7678
 7019TIP3    H242473   5.506   3.258  17.033  1.0446  1.2340 -0.0447
 7020TIP3   OH242474   3.570   1.598  16.941 -0.3629 -0.5411  0.0488
 7020TIP3    H142475   3.480   1.631  16.953 -0.7378 -1.4453 -0.1931
 7020TIP3    H242476   3.581   1.594  16.846  0.2398  0.3511  0.0742
 7021TIP3   OH242477   4.664   3.109  16.386 -0.6037 -0.5319  0.1339
 7021TIP3    H142478   4.589   3.164  16.409 -0.4519 -0.2514 -0.0500
 7021TIP3    H242479   4.634   3.019  16.404 -0.0648 -0.2820  2.7216
 7022TIP3   OH242480   6.524   2.799   0.579 -0.1616  0.4282  0.0625
 7022TIP3    H142481   6.487   2.810   0.492  0.8721  1.3722 -0.2810
 7022TIP3    H242482   6.607   2.847   0.576  0.0994  0.1008  1.4283
 7023TIP3   OH242483   4.244   2.291   1.904  0.0411 -0.1437 -0.2872
 7023TIP3    H142484   4.294   2.251   1.833  0.7784 -0.6893  0.5266
 7023TIP3    H242485   4.154   2.293   1.871  0.5524  0.7649 -1.7302
 7024TIP3   OH242486   3.339   6.191  12.562  0.4792  0.1875  0.3726
 7024TIP3    H142487   3.405   6.146  12.509  0.4949  1.7524 -1.0347
 7024TIP3    H242488   3.381   6.204  12.647  1.1203 -0.8297  0.2252
 7025TIP3   OH242489   2.348   0.115   0.462 -0.6613 -0.2073  0.6359
 7025TIP3    H142490   2.390   0.133   0.547  0.1918  0.7394  0.0419
 7025TIP3    H242491   2.412   0.064   0.413 -0.1719  1.2101 -0.2653
 7026TIP3   OH242492   0.777   5.759  13.689 -0.3148 -0.6057 -0.1284
 7026TIP3    H142493   0.724   5.838  13.676  0.7702  0.3269  0.8545
 7026TIP3    H242494   0.776   5.716  13.604 -0.7039  0.6185 -0.7788
 7027TIP3   OH242495   4.436   3.335   4.969 -0.3314 -0.1104  0.0302
 7027TIP3    H142496   4.428   3.431   4.970  0.5533 -0.0356  0.1299
 7027TIP3    H242497   4.346   3.305   4.956 -0.5207  0.7494 -0.7817
 7028TIP3   OH242498   6.187   0.141  16.575  0.2501  0.2324  0.0020
 7028TIP3    H142499   6.221   0.090  16.502  1.6679 -0.1475  0.8878
 7028TIP3    H242500   6.264   0.161  16.628 -0.6846  0.8706  1.1666
 7029TIP3   OH242501   6.140   5.357   4.446  0.4861  0.4850 -0.7108
 7029TIP3    H142502   6.147   5.447   4.415 -0.5136  0.4352 -1.1289
 7029TIP3    H242503   6.172   5.305   4.372  1.6673  0.5168 -0.2306
 7030TIP3   OH242504   3.594   1.349   4.445  0.2105  0.5244  0.0209
 7030TIP3    H142505   3.501   1.364   4.462  0.3718  0.3933  1.1022
 7030TIP3    H242506   3.632   1.437   4.440  0.3553  0.5920  1.6374
 7031TIP3   OH242507   6.333   4.816  17.050 -0.5778  0.3765 -0.2076
 7031TIP3    H142508   6.250   4.778  17.021 -0.0070 -1.0683 -0.0533
 7031TIP3    H242509   6.321   4.910  17.040 -1.3928  0.0886 -2.4595
 7032TIP3   OH242510   3.572   1.464  15.340  0.2751 -0.3889 -0.3321
 7032TIP3    H142511   3.617   1.534  15.292 -0.0576  0.7336  0.9149
 7032TIP3    H242512   3.640   1.425  15.395  0.1348  0.0389  0.1524
 7033TIP3   OH242513   1.140   0.250   4.671 -0.2519 -0.0930  0.4079
 7033TIP3    H142514   1.203   0.283   4.606 -0.0389 -1.2645 -0.0031
 7033TIP3    H242515   1.189   0.183   4.719 -0.5066  0.5471  1.5921
 7034TIP3   OH242516   6.755   5.666   4.861  0.0815  0.6171 -0.7163
 7034TIP3    H142517   6.697   5.725   4.909 -0.4057 -0.3948 -0.0341
 7034TIP3    H242518   6.697   5.596   4.829  1.1572 -1.5942  1.8047
 7035TIP3   OH242519   6.599   4.370   1.258 -0.2205 -0.4262  0.3598
 7035TIP3    H142520   6.654   4.440   1.222 -1.1505  0.4965  0.6835
 7035TIP3    H242521   6.571   4.403   1.344 -0.0245 -1.5480  0.8780
 7036TIP3   OH242522   2.620   5.649  15.716 -0.2837  0.4166  0.3427
 7036TIP3    H142523   2.543   5.600  15.689 -1.3482  1.9659  0.4666
 7036TIP3    H242524   2.620   5.643  15.811 -0.4130  0.6473  0.3582
 7037TIP3   OH242525   0.747   4.083  14.371  0.4395 -0.0819  0.7732
 7037TIP3    H142526   0.719   4.049  14.456  0.0843 -1.0170  0.3021
 7037TIP3    H242527   0.715   4.173  14.369 -0.2850 -0.3143  1.2959
 7038TIP3   OH242528   3.499   2.949   5.494 -0.7466 -0.7102  0.4134
 7038TIP3    H142529   3.482   2.973   5.403  0.3172  0.3506  0.4702
 7038TIP3    H242530   3.473   3.027   5.544 -0.7605 -1.0639  0.9585
 7039TIP3   OH242531   2.106   4.427   5.466 -0.0448 -0.2206  0.0925
 7039TIP3    H142532   2.154   4.403   5.545  2.0364  1.4420 -0.5848
 7039TIP3    H242533   2.139   4.369   5.398 -1.1295 -0.9970  0.2056
 7040TIP3   OH242534   0.361   4.953  14.770  0.1128 -0.3535 -0.7520
 7040TIP3    H142535   0.383   5.028  14.716 -1.4538  0.5695 -0.1724
 7040TIP3    H242536   0.334   4.991  14.854  0.0153 -1.6069 -0.1922
 7041TIP3   OH242537   6.620   4.366   0.128 -0.2876  0.0094  0.0916
 7041TIP3    H142538   6.645   4.289   0.077  3.5025  0.6022  0.7032
 7041TIP3    H242539   6.602   4.433   0.063 -0.6869 -0.5967 -0.4383
 7042TIP3   OH242540   3.845   4.478   0.825  0.3823  0.1010 -0.2594
 7042TIP3    H142541   3.772   4.487   0.764  1.2494  0.7276 -1.2493
 7042TIP3    H242542   3.825   4.540   0.895 -1.3882 -1.7239  0.9513
 7043TIP3   OH242543   2.841   4.035   5.780 -0.2041  0.5692  0.0087
 7043TIP3    H142544   2.923   4.068   5.742 -0.4745  0.1894 -0.9427
 7043TIP3    H242545   2.792   4.114   5.803  1.0604  0.8248  2.0781
 7044TIP3   OH242546   5.133   2.478   0.272 -0.4415  0.0039 -0.3077
 7044TIP3    H142547   5.130   2.566   0.308  0.0324 -0.1774  0.1997
 7044TIP3    H242548   5.193   2.431   0.330  0.7355 -0.1735 -1.6179
 7045TIP3   OH242549   6.657   5.836   0.102 -0.3570  0.0909  0.1703
 7045TIP3    H142550   6.669   5.755   0.053 -0.4194  1.0952 -1.5828
 7045TIP3    H242551   6.723   5.896   0.066  1.9743 -0.0939  3.6810
 7046TIP3   OH242552   4.251   4.336  11.020 -0.1650 -0.3907  0.2231
 7046TIP3    H142553   4.166   4.307  10.985  0.6129 -1.3751 -0.9663
 7046TIP3    H242554   4.247   4.431  11.019 -0.5960 -0.3937 -1.6010
 7047TIP3   OH242555   4.711   6.071  13.576  0.0041 -0.0391  0.1679
 7047TIP3    H142556   4.663   6.146  13.540 -0.5492 -0.0744  0.7943
 7047TIP3    H242557   4.784   6.058  13.516  0.5139  1.4395  0.4352
 7048TIP3   OH242558   5.917   2.949   1.298  0.0694 -0.1145  0.0676
 7048TIP3    H142559   5.973   2.934   1.375 -0.8293 -1.0017  0.5636
 7048TIP3    H242560   5.881   2.863   1.277 -1.0813  0.4320 -0.2727
 7049TIP3   OH242561   4.582   3.937  15.293  0.0918  0.0296  0.1445
 7049TIP3    H142562   4.508   3.896  15.249 -0.8752  2.4544 -0.6690
 7049TIP3    H242563   4.656   3.878  15.277 -0.7153 -0.3097 -2.8365
 7050TIP3   OH242564   4.030   1.865  17.042  0.0837  0.1403  0.0498
 7050TIP3    H142565   3.941   1.854  17.009  0.6613 -1.1373 -1.1598
 7050TIP3    H242566   4.071   1.779  17.034  2.1067  1.1565 -1.5178
 7051TIP3   OH242567   2.473   1.909  14.048  0.0962  0.4687 -0.8344
 7051TIP3    H142568   2.497   2.001  14.046  2.7223 -0.1376 -0.1887
 7051TIP3    H242569   2.401   1.904  14.111  0.8465  1.8855  0.1900
 7052TIP3   OH242570   2.214   3.172  16.916 -0.5046  0.0532 -0.3038
 7052TIP3    H142571   2.250   3.127  16.839 -1.3774  0.9788 -1.2920
 7052TIP3    H242572   2.268   3.142  16.989  1.8739  0.8891 -1.5835
 7053TIP3   OH242573   2.898   2.469   5.972  0.3109  0.1503 -0.1596
 7053TIP3    H142574   2.911   2.498   5.882  0.0119  0.3654 -0.1353
 7053TIP3    H242575   2.817   2.514   6.000  1.4398  1.6583  0.8617
 7054TIP3   OH242576   5.087   6.166   4.208 -0.3888  0.5245  0.2455
 7054TIP3    H142577   5.007   6.116   4.191 -0.3894  1.1491 -1.8595
 7054TIP3    H242578   5.112   6.142   4.298 -1.7812 -1.2494  0.2078
 7055TIP3   OH242579   3.054   4.968   1.003  0.0613 -0.1817  0.2039
 7055TIP3    H142580   3.097   5.004   1.080 -0.8155  0.5474  0.3630
 7055TIP3    H242581   3.087   5.020   0.930  1.0179 -0.9775  0.0330
 7056TIP3   OH242582   1.310   4.305  14.349 -0.1533  0.1213  0.6021
 7056TIP3    H142583   1.224   4.346  14.341 -1.1108 -1.9427 -0.5352
 7056TIP3    H242584   1.295   4.229  14.406  0.3553 -1.4487 -1.2296
 7057TIP3   OH242585   3.985   5.515  14.615  0.0691  0.5658  0.4259
 7057TIP3    H142586   4.002   5.606  14.636  1.4030  0.2703  0.7071
 7057TIP3    H242587   4.020   5.466  14.690 -0.0861 -0.2044  0.0132
 7058TIP3   OH242588   2.176   0.507  16.641  0.0938 -0.5516  0.0681
 7058TIP3    H142589   2.169   0.577  16.576 -0.4590 -1.0433 -0.4076
 7058TIP3    H242590   2.249   0.453  16.610 -0.4360 -1.0230 -0.3896
 7059TIP3   OH242591   4.798   0.670  12.836  0.4670  0.2040 -0.1912
 7059TIP3    H142592   4.847   0.637  12.911  1.5936  0.3451 -0.8350
 7059TIP3    H242593   4.712   0.628  12.842  0.1845  0.9516  1.6992
 7060TIP3   OH242594   3.769   3.959   5.751  0.4990  0.0225 -0.6078
 7060TIP3    H142595   3.752   3.870   5.719 -0.1682 -0.3933  0.8042
 7060TIP3    H242596   3.765   3.951   5.846  2.9009  1.1000 -0.3513
 7061TIP3   OH242597   1.642   2.681   4.246 -0.4487  0.4643 -0.7046
 7061TIP3    H142598   1.626   2.591   4.218  1.5962 -0.7132  1.4934
 7061TIP3    H242599   1.697   2.718   4.177 -0.4835 -0.3099 -1.1638
 7062TIP3   OH242600   0.758   4.165  15.348 -0.2804 -0.1471 -0.0983
 7062TIP3    H142601   0.812   4.154  15.270 -0.5348  0.4125 -0.3624
 7062TIP3    H242602   0.742   4.260  15.353  0.2878 -0.0978  1.0169
 7063TIP3   OH242603   2.770   5.690   3.108 -0.6968  0.4499 -0.1401
 7063TIP3    H142604   2.715   5.762   3.075 -2.0929 -0.4152  0.2001
 7063TIP3    H242605   2.708   5.631   3.150  0.5213 -0.6042  0.2189
 7064TIP3   OH242606   4.584   3.141  12.577  0.2448  0.1191  0.4006
 7064TIP3    H142607   4.617   3.213  12.524  0.7623 -1.4011 -1.4988
 7064TIP3    H242608   4.657   3.079  12.580 -0.0908 -0.2266  2.2027
 7065TIP3   OH242609   0.228   2.472  17.022 -0.2698 -0.1567 -0.2522
 7065TIP3    H142610   0.314   2.512  17.008 -0.3050 -0.1914 -0.5664
 7065TIP3    H242611   0.207   2.429  16.939 -0.5118 -0.2972 -0.1202
 7066TIP3   OH242612   4.448   0.466  12.022 -0.2950  0.0434  0.3048
 7066TIP3    H142613   4.428   0.382  12.065 -1.3114 -0.4467 -1.0569
 7066TIP3    H242614   4.414   0.532  12.082 -4.2296 -0.6790 -0.8278
 7067TIP3   OH242615   0.037   0.383  17.254  0.1888  0.0876  0.2037
 7067TIP3    H142616  -0.017   0.315  17.212  0.5218  0.2502 -0.5058
 7067TIP3    H242617   0.127   0.361  17.228  0.4102  0.1714  0.8775
 7068TIP3   OH242618   2.976   4.607   2.677  0.3895  0.2820  0.4497
 7068TIP3    H142619   2.976   4.566   2.763  0.8715  0.3014  0.4657
 7068TIP3    H242620   3.055   4.573   2.634 -0.5425 -0.7728 -0.4993
 7069TIP3   OH242621   1.626   6.119   5.494  0.0033  0.4060  0.3327
 7069TIP3    H142622   1.647   6.163   5.577 -0.1874  1.1119  0.0125
 7069TIP3    H242623   1.565   6.179   5.450  0.1033  0.0337 -0.3207
 7070TIP3   OH242624   0.968   3.424  11.021 -0.8004  0.2364 -0.3957
 7070TIP3    H142625   1.041   3.391  11.074 -1.7251  0.0330  0.7733
 7070TIP3    H242626   1.001   3.419  10.931  0.3872 -0.4735  0.0481
 7071TIP3   OH242627   5.808   0.276   1.396  0.1420  0.5873 -0.0795
 7071TIP3    H142628   5.754   0.304   1.470 -0.5203  0.9659 -0.6996
 7071TIP3    H242629   5.786   0.184   1.385  1.2358  0.1566  1.0247
 7072TIP3   OH242630   6.049   2.269  12.543 -0.1982  0.0536  0.5534
 7072TIP3    H142631   5.984   2.324  12.588  0.5097  0.9612  0.4865
 7072TIP3    H242632   6.010   2.182  12.544 -0.7656  0.2897  1.8359
 7073TIP3   OH242633   0.525   1.262  13.627 -0.5946 -0.3142  0.1935
 7073TIP3    H142634   0.546   1.348  13.663  0.0689 -0.1897 -0.4768
 7073TIP3    H242635   0.610   1.220  13.614 -0.9275 -1.3333  1.1089
 7074TIP3   OH242636   4.028   1.783  12.466 -0.1987  0.3661  0.8323
 7074TIP3    H142637   4.117   1.802  12.498  0.4210  1.1009 -1.1776
 7074TIP3    H242638   4.031   1.690  12.441 -0.2698  0.1643  1.5476
 7075TIP3   OH242639   3.582   5.761   2.039  0.3566 -0.0384 -0.1432
 7075TIP3    H142640   3.547   5.673   2.023  0.1253  0.4407 -2.7258
 7075TIP3    H242641   3.523   5.819   1.991  1.0955  1.4330  0.6692
 7076TIP3   OH242642   3.814   1.171   2.387 -0.5720  0.0805  0.1530
 7076TIP3    H142643   3.905   1.154   2.363 -0.5246  1.4354 -0.7562
 7076TIP3    H242644   3.775   1.085   2.397  1.1110 -0.5558  1.7982
 7077TIP3   OH242645   2.437   2.144   0.535 -0.2283 -0.3793  0.8579
 7077TIP3    H142646   2.380   2.123   0.608  1.4117 -2.2589  1.6704
 7077TIP3    H242647   2.496   2.069   0.527  1.7856  1.2082 -0.2787
 7078TIP3   OH242648   1.556   5.365   6.068 -0.3336 -0.1162  0.0097
 7078TIP3    H142649   1.549   5.459   6.083 -0.0707 -0.3422  1.7908
 7078TIP3    H242650   1.495   5.326   6.131 -0.5314 -1.1469 -0.7864
 7079TIP3   OH242651   6.286   4.992  14.896 -0.2532 -0.5951 -0.1878
 7079TIP3    H142652   6.215   5.045  14.859 -0.4916  0.6857  1.9249
 7079TIP3    H242653   6.243   4.912  14.926 -0.5053 -0.5534 -0.4326
 7080TIP3   OH242654   6.741   4.837  12.376  0.3379 -0.2776  0.4548
 7080TIP3    H142655   6.699   4.922  12.381 -0.5380 -0.7535  2.5124
 7080TIP3    H242656   6.825   4.853  12.333 -0.4482  1.3186 -0.5514
 7081TIP3   OH242657   0.896   5.486   2.236  1.0489 -0.2826  0.1274
 7081TIP3    H142658   0.946   5.408   2.211  0.7998  0.1152 -1.7730
 7081TIP3    H242659   0.939   5.558   2.190  0.5309  0.5375  0.8751
 7082TIP3   OH242660   6.725   1.956  12.799 -0.4865 -0.6785  0.1495
 7082TIP3    H142661   6.709   2.043  12.763 -2.3540 -0.1869  1.9495
 7082TIP3    H242662   6.820   1.948  12.802 -0.2564  0.1545 -2.5604
 7083TIP3   OH242663   5.605   0.231  13.608  0.5535 -0.2977 -0.3237
 7083TIP3    H142664   5.533   0.278  13.567  0.4061  0.9260  1.2071
 7083TIP3    H242665   5.682   0.286  13.591  0.5823 -0.0599  0.5170
 7084TIP3   OH242666   3.158   5.448   5.826 -0.2218  0.3589  0.1741
 7084TIP3    H142667   3.242   5.450   5.871 -1.5750  0.3823  2.9047
 7084TIP3    H242668   3.145   5.356   5.805  0.7536  0.4441 -0.9236
 7085TIP3   OH242669   4.287   6.597   2.013  0.2650 -0.1052 -0.4392
 7085TIP3    H142670   4.202   6.564   1.985  0.1202 -1.3481  1.2949
 7085TIP3    H242671   4.328   6.523   2.059  1.3064  1.1485  0.7480
 7086TIP3   OH242672   1.464   2.759  11.897 -0.2676 -0.5748  0.0175
 7086TIP3    H142673   1.417   2.803  11.969  1.9606  0.7681  0.7399
 7086TIP3    H242674   1.493   2.831  11.840 -0.6239 -1.5167 -1.4048
 7087TIP3   OH242675   3.349   2.931   2.575 -0.2897  0.0387 -0.3118
 7087TIP3    H142676   3.340   2.846   2.532 -0.3040 -0.1879  0.1242
 7087TIP3    H242677   3.382   2.909   2.663  2.7101  0.6661 -1.1679
 7088TIP3   OH242678   3.360   0.132   2.125 -0.0475  0.3397  0.1684
 7088TIP3    H142679   3.356   0.037   2.126  1.3001  0.1930 -1.6973
 7088TIP3    H242680   3.279   0.160   2.166 -0.3212 -1.6001  1.0604
 7089TIP3   OH242681   3.695   1.222   1.116  0.2360  0.2164  0.2143
 7089TIP3    H142682   3.752   1.286   1.072 -0.5762  1.1920  0.5483
 7089TIP3    H242683   3.689   1.253   1.206  2.5538 -2.2158  1.3732
 7090TIP3   OH242684   3.073   0.193  11.546  0.0893 -0.2614  0.1225
 7090TIP3    H142685   3.124   0.213  11.625  2.0569 -1.5266 -0.7228
 7090TIP3    H242686   3.038   0.277  11.517  1.0973  0.5585  1.1893
 7091TIP3   OH242687   3.438   3.796   0.497 -0.2837  0.6557  0.3884
 7091TIP3    H142688   3.374   3.845   0.548 -0.4258  0.1496  0.7044
 7091TIP3    H242689   3.504   3.861   0.473 -1.1794  1.2933 -0.4037
 7092TIP3   OH242690   4.381   0.832   4.741  0.4739  0.1946  0.4163
 7092TIP3    H142691   4.306   0.774   4.730 -0.2681  1.0197  1.0440
 7092TIP3    H242692   4.350   0.902   4.799  0.7118  2.3027 -1.8018
 7093TIP3   OH242693   5.879   5.563   3.631  0.1212  0.3735 -0.2761
 7093TIP3    H142694   5.954   5.516   3.666 -0.6460 -1.0963 -0.5137
 7093TIP3    H242695   5.898   5.656   3.647  1.9699  0.0404 -0.3622
 7094TIP3   OH242696   1.328   2.113  13.360  0.3208 -0.2595 -0.1633
 7094TIP3    H142697   1.418   2.129  13.334 -0.3154  1.6237 -1.4364
 7094TIP3    H242698   1.320   2.017  13.362  1.7622 -0.4911 -2.1753
 7095TIP3   OH242699   2.149   5.028  11.219 -0.4904  0.0266 -0.4597
 7095TIP3    H142700   2.148   5.071  11.305 -0.8072 -1.1412  0.1328
 7095TIP3    H242701   2.219   5.073  11.171 -2.4429  2.9774 -0.8138
 7096TIP3   OH242702   3.739   3.367  13.041  0.2493 -0.9345 -0.6078
 7096TIP3    H142703   3.821   3.326  13.014  0.6739  1.2795 -3.0725
 7096TIP3    H242704   3.755   3.461  13.035 -1.6053 -0.3613  1.7820
 7097TIP3   OH242705   2.579   2.158  14.087  0.8997 -0.1474 -0.0710
 7097TIP3    H142706   2.586   2.175  13.993  0.3305 -0.1831 -0.1221
 7097TIP3    H242707   2.649   2.095  14.105  0.5382 -0.7165 -0.6135
 7098TIP3   OH242708   2.122   5.770  16.107  0.1711 -0.5516  0.7521
 7098TIP3    H142709   2.216   5.760  16.092 -0.0140 -1.2371 -0.1249
 7098TIP3    H242710   2.106   5.864  16.104  0.7344 -0.4645  0.1734
 7099TIP3   OH242711   0.019   2.098   5.089  0.3092 -0.7731  0.6124
 7099TIP3    H142712   0.085   2.029   5.084  1.5211  0.4178 -1.0684
 7099TIP3    H242713   0.052   2.159   5.154  1.0425 -0.0737 -0.3726
 7100TIP3   OH242714   0.319   0.331   0.284 -0.4900 -0.0308  0.6721
 7100TIP3    H142715   0.299   0.408   0.337  1.2044  1.6760 -0.9729
 7100TIP3    H242716   0.346   0.367   0.199  1.9770 -2.3155  0.3344
 7101TIP3   OH242717   6.453   1.805  14.019  0.4270  0.2574 -0.2400
 7101TIP3    H142718   6.392   1.793  14.092  0.7416  0.6921  0.1007
 7101TIP3    H242719   6.404   1.778  13.941  0.3280 -0.9093  0.2107
 7102TIP3   OH242720   5.551   5.130  17.090  1.3445  0.6613 -0.2944
 7102TIP3    H142721   5.456   5.146  17.089  1.1070 -0.4616  0.8889
 7102TIP3    H242722   5.590   5.216  17.097  0.4989  1.3097 -2.6192
 7103TIP3   OH242723   3.310   1.134   2.534  0.1282  0.3669 -0.6843
 7103TIP3    H142724   3.215   1.125   2.534  0.2351 -0.8785 -0.6742
 7103TIP3    H242725   3.336   1.119   2.443  0.2428  1.8534 -0.9299
 7104TIP3   OH242726   5.006   5.091  17.080 -0.6853  0.0291 -0.1895
 7104TIP3    H142727   4.980   5.165  17.026 -1.8306  0.0158  0.3131
 7104TIP3    H242728   4.964   5.107  17.165  2.2068  0.7979  1.2226
 7105TIP3   OH242729   4.318   0.611  12.805  0.4979  0.3493  0.2727
 7105TIP3    H142730   4.338   0.519  12.791  1.2035  0.5261  0.0270
 7105TIP3    H242731   4.237   0.612  12.856  0.5656 -0.4036  0.3961
 7106TIP3   OH242732   3.049   5.917  12.215  0.1309  0.1005 -0.1681
 7106TIP3    H142733   2.957   5.910  12.192  0.0885 -0.6432  0.2160
 7106TIP3    H242734   3.064   5.846  12.277  0.9407  0.2747 -0.1548
 7107TIP3   OH242735   0.824   1.446   3.176  0.0073 -0.2239  0.4829
 7107TIP3    H142736   0.740   1.467   3.136  0.2025 -1.0040 -0.3739
 7107TIP3    H242737   0.804   1.432   3.269 -0.7949 -0.3271  0.2979
 7108TIP3   OH242738   2.494   1.554   1.360 -0.1325 -0.1439  0.6690
 7108TIP3    H142739   2.585   1.525   1.353  0.0002 -0.1778  2.1022
 7108TIP3    H242740   2.497   1.649   1.349 -0.0734 -0.2512 -0.3100
 7109TIP3   OH242741   4.783   4.296   3.683 -0.5630  0.4844 -0.4422
 7109TIP3    H142742   4.861   4.343   3.714  0.0719 -0.4949 -0.5087
 7109TIP3    H242743   4.754   4.347   3.607 -1.2242  2.0213  0.8052
 7110TIP3   OH242744   2.721   4.285  15.236  0.2764 -0.5463 -0.1599
 7110TIP3    H142745   2.788   4.336  15.191  1.0671  0.2289  1.7737
 7110TIP3    H242746   2.647   4.284  15.176  1.1482  0.7169 -1.3141
 7111TIP3   OH242747   6.014   5.793   0.398 -0.2347  0.2355 -0.1140
 7111TIP3    H142748   5.967   5.768   0.319 -1.7261 -0.9202  1.0866
 7111TIP3    H242749   6.102   5.815   0.368 -0.4424 -1.2423 -1.9534
 7112TIP3   OH242750   5.743   2.684  15.408  0.0670 -0.1398 -0.0415
 7112TIP3    H142751   5.758   2.725  15.494 -1.6586  0.1288  0.1790
 7112TIP3    H242752   5.657   2.718  15.381 -0.3380 -1.8075 -0.9330
 7113TIP3   OH242753   5.908   4.555   1.841 -0.0560  0.3760  0.3539
 7113TIP3    H142754   5.988   4.504   1.853 -0.5993 -0.3182  1.1942
 7113TIP3    H242755   5.837   4.491   1.849 -0.6962  0.8470 -1.1134
 7114TIP3   OH242756   0.700   6.242   1.508 -0.6443 -0.4055  0.3610
 7114TIP3    H142757   0.725   6.230   1.599 -3.0938 -0.2898  1.1184
 7114TIP3    H242758   0.780   6.269   1.464  0.5889 -0.4658  2.4694
 7115TIP3   OH242759   1.818   5.100   0.733 -0.1603  0.1083 -0.1726
 7115TIP3    H142760   1.754   5.046   0.686 -0.8071 -0.0780  0.9040
 7115TIP3    H242761   1.792   5.095   0.825  0.7993  0.8627  0.1617
 7116TIP3   OH242762   3.959   6.779  15.537  0.2848  0.4684  0.2937
 7116TIP3    H142763   4.045   6.799  15.500  1.6644  0.5783  3.2636
 7116TIP3    H242764   3.943   6.848  15.600 -1.1510 -0.5610  1.1326
 7117TIP3   OH242765   3.782   6.582   5.818  0.1133  0.1789 -0.1253
 7117TIP3    H142766   3.814   6.506   5.771 -0.2382 -0.3148  0.4192
 7117TIP3    H242767   3.795   6.561   5.910  0.6274  1.0543  0.0126
 7118TIP3   OH242768   1.593   1.772   1.391 -0.3970 -0.8518 -0.1603
 7118TIP3    H142769   1.576   1.787   1.298 -2.3366 -1.1255  0.0953
 7118TIP3    H242770   1.593   1.859   1.430 -0.1780 -0.7752 -0.3300
 7119TIP3   OH242771   4.924   0.140   1.919  0.0961  0.1341 -0.2437
 7119TIP3    H142772   5.001   0.084   1.930  0.7568  1.4553  2.9955
 7119TIP3    H242773   4.850   0.081   1.928  0.7612 -0.6187  0.4558
 7120TIP3   OH242774   2.881   1.760  10.954  0.0138 -0.3849  0.6131
 7120TIP3    H142775   2.834   1.713  10.884 -1.1009 -0.4480  1.3888
 7120TIP3    H242776   2.967   1.780  10.915 -0.0362 -1.7228 -0.2612
 7121TIP3   OH242777   6.362   4.950  14.631  0.3112  0.2172  0.3144
 7121TIP3    H142778   6.388   5.023  14.576 -1.0933 -0.0589 -0.7598
 7121TIP3    H242779   6.353   4.988  14.719  2.1180  0.7502  0.3082
 7122TIP3   OH242780   4.346   4.233  12.297  0.3062  0.8138  0.2556
 7122TIP3    H142781   4.320   4.145  12.327  2.2862  0.5641  1.3606
 7122TIP3    H242782   4.301   4.293  12.357  0.2674  0.4988  0.5434
 7123TIP3   OH242783   6.037   0.549  16.767  0.0428 -0.6454  0.0292
 7123TIP3    H142784   6.056   0.489  16.839  1.0699  0.1794  0.4689
 7123TIP3    H242785   6.100   0.526  16.699 -0.2948 -0.7937 -0.2344
 7124TIP3   OH242786   1.866   6.464  14.980  0.2497  0.4858 -0.3858
 7124TIP3    H142787   1.797   6.442  14.918  0.8077 -0.3959 -0.7146
 7124TIP3    H242788   1.834   6.431  15.064  0.2275  0.1539 -0.5228
 7125TIP3   OH242789   2.446   1.215  14.064  0.1932  0.1660  0.1556
 7125TIP3    H142790   2.446   1.137  14.120  0.2960  0.4439  0.5408
 7125TIP3    H242791   2.505   1.276  14.107  2.6889 -0.6932 -1.7434
 7126TIP3   OH242792   2.574   1.149   1.428  0.0934 -0.7237  0.1145
 7126TIP3    H142793   2.660   1.185   1.447 -0.3890  0.3790  0.2903
 7126TIP3    H242794   2.547   1.191   1.346 -1.1478  0.6201  1.1393
 7127TIP3   OH242795   5.336   4.956   6.044 -0.4152  0.3688 -0.7790
 7127TIP3    H142796   5.317   4.880   6.098  1.6454 -0.7769 -1.5183
 7127TIP3    H242797   5.327   4.925   5.954 -1.1103  1.4675 -1.1133
 7128TIP3   OH242798   0.042   2.625  16.240 -0.3972  0.3406 -0.1484
 7128TIP3    H142799   0.131   2.609  16.271 -0.0269 -0.5012 -1.5630
 7128TIP3    H242800   0.000   2.674  16.311 -0.1154 -2.8134  2.4159
 7129TIP3   OH242801   0.666   1.279   3.603  0.6199  0.0901 -0.2804
 7129TIP3    H142802   0.607   1.296   3.530  0.1195  0.0316  0.0993
 7129TIP3    H242803   0.723   1.355   3.607  0.3048  0.3329 -0.4086
 7130TIP3   OH242804   6.261   5.585  15.117 -0.1975 -0.1021  0.5333
 7130TIP3    H142805   6.329   5.638  15.158  1.9213 -0.1190 -2.6218
 7130TIP3    H242806   6.205   5.648  15.072 -0.4307 -0.2817  0.5678
 7131TIP3   OH242807   1.227   2.087   5.339  0.8219 -0.0985 -0.5190
 7131TIP3    H142808   1.297   2.026   5.318 -0.2493 -0.8954 -2.0030
 7131TIP3    H242809   1.189   2.053   5.421  0.4839 -1.2447 -1.1228
 7132TIP3   OH242810   1.045   3.138  10.768 -0.2023  0.0445 -0.5970
 7132TIP3    H142811   0.970   3.089  10.735  0.7120 -1.7506 -0.1053
 7132TIP3    H242812   1.049   3.118  10.861 -0.0101  1.3528 -0.3041
 7133TIP3   OH242813   5.315   0.713  15.565  0.2161 -0.9436 -0.1482
 7133TIP3    H142814   5.356   0.708  15.651  0.9698  0.2794 -0.4081
 7133TIP3    H242815   5.236   0.765  15.580  1.7348  1.6953 -0.6041
 7134TIP3   OH242816   6.474   5.008   1.349 -0.0300 -0.3175 -0.3408
 7134TIP3    H142817   6.407   4.991   1.415  0.5513 -0.4149  0.2431
 7134TIP3    H242818   6.557   5.002   1.397  0.3701  0.3994 -0.9159
 7135TIP3   OH242819   0.161   3.039   4.699 -0.6677 -1.0369  0.1911
 7135TIP3    H142820   0.218   3.112   4.676 -1.4187 -1.0435 -1.8781
 7135TIP3    H242821   0.216   2.982   4.754 -0.1806  1.1845  2.1588
 7136TIP3   OH242822   6.276   1.190   1.866  0.2369 -0.4024 -0.7901
 7136TIP3    H142823   6.325   1.146   1.936  0.6548 -1.1413 -1.5304
 7136TIP3    H242824   6.195   1.139   1.858  0.2723 -0.4298 -0.9708
 7137TIP3   OH242825   0.558   6.654   1.384 -0.1362  0.1756  0.2376
 7137TIP3    H142826   0.652   6.661   1.368 -0.0205  1.7519  1.3998
 7137TIP3    H242827   0.518   6.659   1.297  0.7547  1.6811 -0.1097
 7138TIP3   OH242828   4.380   6.029   5.719 -0.6582 -0.1422 -0.3639
 7138TIP3    H142829   4.403   5.978   5.796 -1.1025  0.6105  0.2884
 7138TIP3    H242830   4.334   5.967   5.662  2.5224 -1.6168 -1.5924
 7139TIP3   OH242831   2.048   1.874  11.811  0.1975 -0.6485  0.0401
 7139TIP3    H142832   2.127   1.870  11.865  0.0361 -2.5216  0.2156
 7139TIP3    H242833   2.036   1.784  11.780 -1.8716 -0.4192  0.0325
 7140TIP3   OH242834   5.984   5.679  16.566 -0.2978  0.0297 -0.0472
 7140TIP3    H142835   5.903   5.649  16.608  0.5715  0.0186  1.6958
 7140TIP3    H242836   5.954   5.720  16.485 -2.0379 -0.1593  0.4421
 7141TIP3   OH242837   0.364   1.938  12.241 -0.2872  0.1233  0.1183
 7141TIP3    H142838   0.420   1.983  12.304  1.8391  0.1805 -1.6883
 7141TIP3    H242839   0.387   1.845  12.249  0.7636  0.2366 -1.2126
 7142TIP3   OH242840   6.180   3.429   4.315 -0.1037  0.4967 -0.4146
 7142TIP3    H142841   6.126   3.375   4.373  1.0483  1.2513  1.4830
 7142TIP3    H242842   6.135   3.514   4.314  0.0133  0.5591 -0.3971
 7143TIP3   OH242843   4.796   5.357   4.438  0.8132 -0.0550 -0.1230
 7143TIP3    H142844   4.738   5.290   4.403 -0.1354 -0.2047  1.6157
 7143TIP3    H242845   4.884   5.320   4.428  0.3001 -1.6554  0.8914
 7144TIP3   OH242846   5.663   5.752  12.522  0.4242  0.6598 -0.0848
 7144TIP3    H142847   5.647   5.675  12.577  0.2002  0.6476 -0.1644
 7144TIP3    H242848   5.756   5.748  12.501  0.2017 -0.2132 -1.0211
 7145TIP3   OH242849   6.044   3.503  12.696  0.0002  0.4532 -0.0855
 7145TIP3    H142850   6.078   3.414  12.705 -1.2871 -0.0210  0.2809
 7145TIP3    H242851   6.033   3.533  12.787  2.5451  1.8620 -0.1610
 7146TIP3   OH242852   2.100   2.780   3.953  0.2264 -0.1773 -0.2347
 7146TIP3    H142853   2.155   2.853   3.981  0.3087  0.8408 -2.8248
 7146TIP3    H242854   2.088   2.727   4.033  2.4164  1.1662  1.0802
 7147TIP3   OH242855   5.291   5.324  15.608 -0.1740 -0.6257 -0.2385
 7147TIP3    H142856   5.221   5.315  15.544  0.4175 -0.7684 -0.8691
 7147TIP3    H242857   5.260   5.392  15.668 -1.1268 -1.1416 -0.1342
 7148TIP3   OH242858   5.204   0.484  12.298  0.2580  0.3408 -0.0490
 7148TIP3    H142859   5.187   0.545  12.370  1.6811  1.1384 -0.3565
 7148TIP3    H242860   5.267   0.421  12.333  0.0020 -0.0171 -0.2191
 7149TIP3   OH242861   2.790   0.103   1.151  0.0542 -0.0282 -0.7924
 7149TIP3    H142862   2.694   0.109   1.153 -0.0843 -1.8121 -0.0516
 7149TIP3    H242863   2.820   0.186   1.188 -1.2432 -0.0088  0.2767
 7150TIP3   OH242864   6.450   2.664   5.218 -0.2514  0.0336  0.8072
 7150TIP3    H142865   6.428   2.726   5.288  1.9587  1.3199  0.4828
 7150TIP3    H242866   6.527   2.617   5.251  0.3854  0.1514 -0.4333
 7151TIP3   OH242867   6.060   6.761   3.823 -0.4661 -0.4783 -0.0035
 7151TIP3    H142868   6.095   6.691   3.878  1.4615 -0.7231 -1.4398
 7151TIP3    H242869   5.965   6.747   3.825 -0.2636 -2.0234  1.1800
 7152TIP3   OH242870   0.461   4.661   6.328 -0.1470 -0.1021 -0.0294
 7152TIP3    H142871   0.539   4.703   6.291  0.4637 -1.4242 -0.3075
 7152TIP3    H242872   0.473   4.670   6.423  0.4734 -0.5093 -0.0629
 7153TIP3   OH242873   4.179   6.437   4.846 -0.2916 -0.0209 -0.2641
 7153TIP3    H142874   4.143   6.385   4.918 -0.5679 -0.5528 -0.7754
 7153TIP3    H242875   4.160   6.528   4.870  0.2187 -0.1452  0.6528
 7154TIP3   OH242876   5.309   0.710   4.812  0.5934 -0.0973  0.3327
 7154TIP3    H142877   5.362   0.643   4.769 -0.0425  0.1948 -0.9775
 7154TIP3    H242878   5.359   0.735   4.890  1.6185 -0.9083 -0.0403
 7155TIP3   OH242879   1.503   4.213  13.089  0.4535  0.5137 -0.2388
 7155TIP3    H142880   1.590   4.180  13.070  0.0479 -0.1773 -0.9206
 7155TIP3    H242881   1.508   4.306  13.067  0.4184  0.0545 -2.4250
 7156TIP3   OH242882   3.548   5.660  17.149 -1.1542 -0.1800 -0.4232
 7156TIP3    H142883   3.552   5.729  17.216 -0.7800 -1.7625  1.2646
 7156TIP3    H242884   3.492   5.593  17.188 -2.0469 -0.5741 -2.3072
 7157TIP3   OH242885   5.389   1.547   4.957  0.4675 -0.0570  0.2010
 7157TIP3    H142886   5.328   1.504   4.897 -0.7587 -0.3434  1.5791
 7157TIP3    H242887   5.338   1.559   5.037  1.7793  1.0987  0.8976
 7158TIP3   OH242888   0.657   1.492   4.071  0.4639 -0.3572  0.0130
 7158TIP3    H142889   0.574   1.507   4.025 -0.8454 -1.3858  1.8761
 7158TIP3    H242890   0.677   1.400   4.055  0.6457 -0.4031  0.4875
 7159TIP3   OH242891   6.496   4.605   2.450  0.3439 -0.3988  0.0564
 7159TIP3    H142892   6.500   4.599   2.545  1.6661 -1.7000 -0.0372
 7159TIP3    H242893   6.587   4.592   2.422 -0.0002  0.1403 -1.3701
 7160TIP3   OH242894   2.424   6.075   2.496  0.3469 -0.2622  0.6769
 7160TIP3    H142895   2.460   6.062   2.583  1.3954  1.5196  0.5633
 7160TIP3    H242896   2.499   6.068   2.437 -0.2113 -0.6247 -0.0151
 7161TIP3   OH242897   4.442   4.441  16.478  0.1292  0.0937  0.1153
 7161TIP3    H142898   4.441   4.534  16.454  1.0793  0.2430  0.6021
 7161TIP3    H242899   4.431   4.441  16.573 -1.3869 -0.3869 -0.0269
 7162TIP3   OH242900   0.457   4.300  12.034  0.4576  0.2610 -0.2988
 7162TIP3    H142901   0.446   4.234  12.102 -1.3797  2.6897  1.9846
 7162TIP3    H242902   0.387   4.283  11.971  0.9110 -0.7912 -0.5392
 7163TIP3   OH242903   6.594   5.385   4.752  0.6604 -0.2672  0.6418
 7163TIP3    H142904   6.576   5.427   4.836 -1.1105 -2.4162  1.4465
 7163TIP3    H242905   6.510   5.347   4.726  1.2475  0.0222 -1.9674
 7164TIP3   OH242906   4.702   0.894   2.812 -0.6002 -0.0858 -0.6505
 7164TIP3    H142907   4.730   0.827   2.874 -0.0605 -1.2018 -2.0409
 7164TIP3    H242908   4.694   0.848   2.729 -2.2877  1.1491 -1.2290
 7165TIP3   OH242909   4.378   3.195   0.373  0.5695 -0.0002  0.1675
 7165TIP3    H142910   4.303   3.242   0.336 -0.4614 -1.4907  0.2954
 7165TIP3    H242911   4.417   3.258   0.434  0.6282  1.4987 -1.3331
 7166TIP3   OH242912   5.795   5.801  13.626 -0.3763  0.0566  0.4620
 7166TIP3    H142913   5.847   5.837  13.554  0.1639  3.6362  2.3956
 7166TIP3    H242914   5.853   5.736  13.666  0.9261  0.8808 -0.0082
 7167TIP3   OH242915   2.607   0.199  13.614  0.2171  0.0421 -0.1479
 7167TIP3    H142916   2.654   0.273  13.577 -0.0963 -0.7521 -2.2734
 7167TIP3    H242917   2.675   0.136  13.637  0.5761  1.3030  2.6674
 7168TIP3   OH242918   3.261   2.752  15.913  0.0821 -0.2404  0.1206
 7168TIP3    H142919   3.300   2.839  15.910 -1.0800  0.2843 -0.3007
 7168TIP3    H242920   3.171   2.765  15.886 -0.4307 -1.4035  1.1436
 7169TIP3   OH242921   4.371   2.317   0.105  0.0748 -0.0608  0.0086
 7169TIP3    H142922   4.345   2.310   0.197  0.1019  0.8238  0.0926
 7169TIP3    H242923   4.415   2.235   0.086  2.2121  0.6613  1.4873
 7170TIP3   OH242924   2.998   2.405   4.085  0.4704 -0.0519 -0.1092
 7170TIP3    H142925   2.996   2.329   4.027  1.7122 -0.3725  0.2291
 7170TIP3    H242926   2.979   2.370   4.172  0.0786  0.1916 -0.0928
 7171TIP3   OH242927   2.463   6.600   3.126 -0.3338  0.2434  0.0629
 7171TIP3    H142928   2.527   6.542   3.086  0.0626  0.6212  0.1444
 7171TIP3    H242929   2.405   6.542   3.176 -0.3735 -0.1492 -0.4394
 7172TIP3   OH242930   3.954   0.783   4.574 -0.1732 -0.5450 -0.2867
 7172TIP3    H142931   3.892   0.783   4.501 -0.9734 -0.1905  0.3762
 7172TIP3    H242932   3.902   0.760   4.651 -0.3369  3.2542  0.9523
 7173TIP3   OH242933   6.617   2.977   2.130 -0.0035 -0.2920 -0.2642
 7173TIP3    H142934   6.539   3.026   2.104  0.5804  0.2597 -1.0205
 7173TIP3    H242935   6.593   2.885   2.118 -0.5650 -0.1291 -0.4146
 7174TIP3   OH242936   4.344   2.776  13.384  0.3828 -0.3799 -0.3484
 7174TIP3    H142937   4.297   2.694  13.399 -0.4706  0.0896 -0.4218
 7174TIP3    H242938   4.372   2.803  13.472 -0.8457  0.1318 -0.0958
 7175TIP3   OH242939   4.817   4.673   4.754  0.0602 -0.2683  0.2783
 7175TIP3    H142940   4.874   4.630   4.818 -0.8966 -0.1063  1.2885
 7175TIP3    H242941   4.839   4.766   4.761 -1.4412  0.0307  1.9406
 7176TIP3   OH242942   1.001   4.428  12.147 -0.3312 -0.4334  0.4393
 7176TIP3    H142943   0.911   4.451  12.169 -0.4204  1.1033 -1.2764
 7176TIP3    H242944   0.994   4.375  12.068  0.1301 -3.5491  2.3124
 7177TIP3   OH242945   5.600   4.480   6.757 -0.6711  0.3320 -0.4597
 7177TIP3    H142946   5.560   4.408   6.709 -0.8833  1.2538 -1.7127
 7177TIP3    H242947   5.694   4.469   6.742 -0.7227  0.4866 -0.8974
 7178TIP3   OH242948   5.236   4.902  10.999 -0.1588  0.0655  0.0194
 7178TIP3    H142949   5.239   4.810  11.024 -1.3928 -0.5013 -1.7738
 7178TIP3    H242950   5.153   4.913  10.954  0.0080  2.0479  0.0917
 7179TIP3   OH242951   1.789   6.675   0.176  0.0988  0.1152 -0.0441
 7179TIP3    H142952   1.853   6.712   0.116  0.6558 -0.4263  0.2007
 7179TIP3    H242953   1.810   6.713   0.261  0.0394  0.0041  0.0210
 7180TIP3   OH242954   0.562   3.732  12.696  0.1971 -0.5567 -0.2118
 7180TIP3    H142955   0.565   3.656  12.637 -1.1180  0.7206 -2.0080
 7180TIP3    H242956   0.476   3.727  12.737 -0.1014  0.2336 -0.7286
 7181TIP3   OH242957   4.981   2.935   3.399 -0.2711 -0.2106  0.3784
 7181TIP3    H142958   5.074   2.915   3.392 -0.0953  0.0030  1.8059
 7181TIP3    H242959   4.939   2.877   3.336  0.7624 -0.8754  0.2820
 7182TIP3   OH242960   0.500   2.709  13.368  0.7713  0.5575 -0.7487
 7182TIP3    H142961   0.578   2.661  13.340 -0.4331 -0.8336 -1.9478
 7182TIP3    H242962   0.526   2.800  13.370  2.2829  0.1764 -1.6698
 7183TIP3   OH242963   5.418   3.027   2.096 -0.5989  0.6939 -0.4041
 7183TIP3    H142964   5.479   3.010   2.168 -1.2008 -0.6027 -0.1791
 7183TIP3    H242965   5.461   3.096   2.045  0.3058  0.9326  0.6277
 7184TIP3   OH242966   1.079   4.872   2.155  0.0735  0.1310 -0.5809
 7184TIP3    H142967   1.127   4.789   2.145 -0.8543 -0.2788 -1.8390
 7184TIP3    H242968   1.120   4.914   2.231  0.2132 -1.7103  0.4078
 7185TIP3   OH242969   2.518   0.143  14.631 -0.4161  0.0439 -0.0569
 7185TIP3    H142970   2.446   0.128  14.571 -0.7254  0.2941  0.2480
 7185TIP3    H242971   2.480   0.194  14.703  0.1687  0.5965 -0.1257
 7186TIP3   OH242972   6.531   0.574  15.620 -0.0208  0.7303  0.5923
 7186TIP3    H142973   6.445   0.616  15.623 -0.5694 -0.2208 -0.6421
 7186TIP3    H242974   6.536   0.524  15.701 -1.5236 -0.8078 -0.1935
 7187TIP3   OH242975   2.306   2.664   3.220 -0.4777  0.3853  0.0962
 7187TIP3    H142976   2.212   2.647   3.218 -0.6735  1.4523 -0.5173
 7187TIP3    H242977   2.346   2.584   3.186 -1.0594 -0.6110  1.6444
 7188TIP3   OH242978   4.594   6.597  16.389 -0.1586  0.0504 -0.3538
 7188TIP3    H142979   4.633   6.557  16.311 -0.3428 -0.6738 -0.0832
 7188TIP3    H242980   4.507   6.626  16.360 -0.6445 -1.1582 -0.1674
 7189TIP3   OH242981   6.341   4.294  13.940 -0.1925  0.3990  0.2619
 7189TIP3    H142982   6.263   4.266  13.988 -1.1934  0.0261 -1.4797
 7189TIP3    H242983   6.344   4.389  13.953 -0.5993  0.3387  0.8323
 7190TIP3   OH242984   5.523   5.028   6.236 -0.1831 -0.0096  0.3687
 7190TIP3    H142985   5.475   4.992   6.162 -2.0290 -0.2932  1.6381
 7190TIP3    H242986   5.520   5.123   6.224 -0.2559 -0.0607 -0.0295
 7191TIP3   OH242987   1.620   5.884  13.913  0.0152 -0.5552  0.0395
 7191TIP3    H142988   1.703   5.923  13.941  0.8249 -1.0032 -1.6277
 7191TIP3    H242989   1.635   5.858  13.822 -1.3784 -2.2569  0.2362
 7192TIP3   OH242990   3.072   1.307  11.918  0.0077 -0.4381  0.3986
 7192TIP3    H142991   3.084   1.327  11.825 -1.1886  1.1109  0.5255
 7192TIP3    H242992   3.161   1.306  11.954  0.4436 -0.3769 -0.6384
 7193TIP3   OH242993   5.723   6.164  12.079 -0.3736  0.0252 -0.1319
 7193TIP3    H142994   5.801   6.173  12.024  1.5469 -1.2763  2.1637
 7193TIP3    H242995   5.708   6.252  12.114 -1.4525  0.8057 -2.3392
 7194TIP3   OH242996   0.622   2.538   5.920  0.3444 -0.0612 -0.5516
 7194TIP3    H142997   0.583   2.476   5.982  0.7367  0.0924 -0.1451
 7194TIP3    H242998   0.688   2.487   5.874 -0.4571 -0.3748 -1.3815
 7195TIP3   OH242999   3.023   0.569   4.240 -0.2678  0.0068  0.0602
 7195TIP3    H143000   3.108   0.597   4.207 -0.1459  1.2373  1.3345
 7195TIP3    H243001   2.964   0.641   4.216 -0.3518  0.5027  1.6359
 7196TIP3   OH243002   4.403   4.939  13.559  0.0227 -0.8080 -0.0098
 7196TIP3    H143003   4.416   5.034  13.550  2.3003 -0.9731  0.9985
 7196TIP3    H243004   4.337   4.918  13.493  1.4402  1.0723 -2.1868
 7197TIP3   OH243005   1.000   5.292  15.216  0.1260 -0.0587  0.0650
 7197TIP3    H143006   0.909   5.286  15.244 -0.4982 -0.3401 -1.8771
 7197TIP3    H243007   1.050   5.251  15.287 -1.2055  0.4310  1.3177
 7198TIP3   OH243008   6.028   4.447  11.684 -0.9857 -0.0929 -0.2137
 7198TIP3    H143009   6.029   4.412  11.595 -1.3893  0.5383 -0.4725
 7198TIP3    H243010   5.958   4.513  11.683 -0.9455 -0.0352  0.5503
 7199TIP3   OH243011   4.343   5.655  11.218 -0.4233 -0.0934  0.1239
 7199TIP3    H143012   4.273   5.700  11.171 -0.6025 -1.2951 -0.7973
 7199TIP3    H243013   4.376   5.590  11.157  0.4303 -0.6343  1.1114
 7200TIP3   OH243014   6.674   2.246   2.134 -0.5027  0.1639  0.5397
 7200TIP3    H143015   6.610   2.206   2.076 -0.5981  1.1289 -0.0567
 7200TIP3    H243016   6.681   2.187   2.208 -0.0624 -1.3321 -0.6541
 7201TIP3   OH243017   4.883   5.344   3.686  0.1103 -0.2393 -0.0042
 7201TIP3    H143018   4.801   5.317   3.728  0.9225 -0.1050  1.7764
 7201TIP3    H243019   4.882   5.301   3.601 -0.9116 -1.8744  0.7791
 7202TIP3   OH243020   5.938   1.859   2.288  0.0965  1.0834 -0.2891
 7202TIP3    H143021   5.923   1.793   2.221 -0.3483  0.6595  0.2198
 7202TIP3    H243022   6.032   1.852   2.309 -0.2471 -0.5388  0.9286
 7203TIP3   OH243023   0.832   5.219   0.166 -0.1613 -0.1960 -0.5296
 7203TIP3    H143024   0.854   5.280   0.096 -0.3010 -0.2370 -0.6092
 7203TIP3    H243025   0.798   5.142   0.122 -1.3344  0.2195 -0.3823
 7204TIP3   OH243026   5.138   1.137  10.602 -0.2730  0.3177 -0.7380
 7204TIP3    H143027   5.090   1.219  10.612  0.5595  0.8924 -1.2465
 7204TIP3    H243028   5.191   1.150  10.523  1.8518  0.3352  0.6055
 7205TIP3   OH243029   0.908   1.761   4.319 -0.1789  0.2009 -0.5803
 7205TIP3    H143030   0.826   1.810   4.325 -0.2841  0.0676 -0.9247
 7205TIP3    H243031   0.917   1.739   4.226  1.8758  2.9735 -1.1691
 7206TIP3   OH243032   5.142   2.327  11.968 -0.3079  0.0615  0.1947
 7206TIP3    H143033   5.084   2.401  11.952  0.6988  0.8064 -0.1293
 7206TIP3    H243034   5.099   2.276  12.036 -0.0960  2.0155  1.8877
 7207TIP3   OH243035   3.777   2.303   4.986 -0.0967 -0.1535 -0.0646
 7207TIP3    H143036   3.717   2.377   4.989 -0.2279 -0.2998  1.7569
 7207TIP3    H243037   3.746   2.250   4.913 -2.8612 -0.7573  1.4183
 7208TIP3   OH243038   0.162   6.164   1.392 -0.3100  0.2249 -0.2212
 7208TIP3    H143039   0.163   6.076   1.430 -0.2841  1.2895  2.4509
 7208TIP3    H243040   0.253   6.194   1.398 -0.4778  0.7577 -0.3109
 7209TIP3   OH243041   2.920   4.654   3.210  0.6020  0.2779  0.0083
 7209TIP3    H143042   2.936   4.567   3.173 -0.3044  0.3169 -0.5217
 7209TIP3    H243043   2.884   4.705   3.137  1.0871  1.0919  0.3217
 7210TIP3   OH243044   0.373   1.376   1.879  0.2533 -0.2344 -0.4734
 7210TIP3    H143045   0.285   1.369   1.843 -0.7178  0.6557  1.5701
 7210TIP3    H243046   0.368   1.336   1.965  1.9094 -0.3019 -0.3651
 7211TIP3   OH243047   0.735   2.235  14.032 -0.0501 -0.5034  0.0847
 7211TIP3    H143048   0.736   2.330  14.046  1.4677 -0.5905  0.7348
 7211TIP3    H243049   0.675   2.202  14.100 -2.1264  0.1066 -1.3531
 7212TIP3   OH243050   0.925   6.369  12.490  0.8737 -0.2745 -0.0557
 7212TIP3    H143051   0.915   6.440  12.553 -0.9586 -0.1630 -0.4328
 7212TIP3    H243052   0.933   6.290  12.544  1.0914  0.0065  0.3295
 7213TIP3   OH243053   5.024   6.518   1.662 -0.5145 -0.3361  0.2771
 7213TIP3    H143054   5.035   6.588   1.597 -1.5641 -0.6291 -0.2401
 7213TIP3    H243055   4.948   6.469   1.631 -0.2818 -1.2220  1.0760
 7214TIP3   OH243056   5.686   1.679  12.693 -0.2875 -0.8798  0.4538
 7214TIP3    H143057   5.594   1.703  12.677 -0.1784 -1.2871 -0.8827
 7214TIP3    H243058   5.731   1.703  12.612 -0.0145 -4.7605 -0.7510
 7215TIP3   OH243059   5.999   1.029   4.142 -0.5111 -0.0653  0.1733
 7215TIP3    H143060   5.912   1.053   4.110  0.1072 -0.9265 -2.4121
 7215TIP3    H243061   6.060   1.084   4.092  0.4801 -0.4527  0.9158
 7216TIP3   OH243062   2.336   6.347  12.578  0.2436  0.1120 -0.0173
 7216TIP3    H143063   2.258   6.317  12.625 -0.5111 -0.8604 -1.7916
 7216TIP3    H243064   2.319   6.440  12.561 -0.3926 -0.0104 -0.0910
 7217TIP3   OH243065   3.549   1.903   3.578  0.1912  0.4027 -0.3896
 7217TIP3    H143066   3.470   1.888   3.631 -1.2253 -1.0776 -2.7291
 7217TIP3    H243067   3.537   1.991   3.543 -1.0264 -0.1978 -1.5727
 7218TIP3   OH243068   3.130   1.749   6.317 -0.6292  0.0108  0.3150
 7218TIP3    H143069   3.061   1.802   6.356 -1.0564 -0.4961  0.2710
 7218TIP3    H243070   3.097   1.725   6.231 -0.0624  0.4055 -0.0152
 7219TIP3   OH243071   6.327   1.004  11.635 -0.4470  0.3447 -0.3408
 7219TIP3    H143072   6.274   0.997  11.556 -0.9585  1.5266 -0.1249
 7219TIP3    H243073   6.387   0.930  11.630 -1.0173 -0.0718 -1.4188
 7220TIP3   OH243074   4.093   5.605   2.871 -0.0481 -0.2775 -0.1286
 7220TIP3    H143075   4.056   5.645   2.793 -0.5086  0.3790  0.4156
 7220TIP3    H243076   4.023   5.549   2.905  0.3649 -1.0519 -0.5152
 7221TIP3   OH243077   6.019   0.003  11.818  0.5535  0.3109  0.4857
 7221TIP3    H143078   6.103   0.045  11.802  0.2921  0.7201  0.1687
 7221TIP3    H243079   5.972   0.064  11.875  0.1405  0.4949 -0.0445
 7222TIP3   OH243080   4.916   0.939  10.463 -0.1768  0.9106 -0.3032
 7222TIP3    H143081   5.007   0.921  10.487 -0.5952  0.8667  1.4241
 7222TIP3    H243082   4.886   0.859  10.421  0.5885  0.9504 -0.9537
 7223TIP3   OH243083   0.622   5.542   1.667  0.5059  0.2330  0.9054
 7223TIP3    H143084   0.600   5.624   1.623 -1.6705  0.8101  2.8704
 7223TIP3    H243085   0.692   5.565   1.728 -0.9516  1.0002  2.3572
 7224TIP3   OH243086   1.248   5.764  16.496 -0.2172 -0.0910 -0.4809
 7224TIP3    H143087   1.305   5.816  16.553  1.2299 -1.0896 -0.9372
 7224TIP3    H243088   1.278   5.785  16.408 -2.6966  1.7474 -1.0096
 7225TIP3   OH243089   1.252   3.550  14.359  0.3181  0.1645 -0.3467
 7225TIP3    H143090   1.311   3.539  14.434  0.5656  0.9428 -0.4166
 7225TIP3    H243091   1.246   3.463  14.320  1.2980  0.0353 -0.2328
 7226TIP3   OH243092   1.561   5.984  14.984 -0.3753  0.2615 -0.4934
 7226TIP3    H143093   1.567   6.078  14.967 -1.5317  0.2080 -1.3094
 7226TIP3    H243094   1.647   5.949  14.961 -0.6505  0.7836 -2.4735
 7227TIP3   OH243095   1.730   6.519   5.058  0.0318  0.0979  0.2038
 7227TIP3    H143096   1.792   6.476   5.000 -0.8388  1.2106 -1.6672
 7227TIP3    H243097   1.648   6.471   5.045 -0.0580  0.0545  0.9056
 7228TIP3   OH243098   0.552   2.152   5.221 -0.4227  0.3971  0.0918
 7228TIP3    H143099   0.603   2.207   5.162  0.6314 -0.4101  0.2193
 7228TIP3    H243100   0.486   2.111   5.164  0.2284  0.0608 -0.4418
 7229TIP3   OH243101   1.462   5.183  12.730  0.1639 -0.3369 -0.7389
 7229TIP3    H143102   1.456   5.190  12.635  1.5295 -0.8787 -0.8824
 7229TIP3    H243103   1.436   5.093  12.749 -0.5288 -0.1048 -0.5407
 7230TIP3   OH243104   1.427   5.144  14.581 -0.1468 -0.3779 -0.0456
 7230TIP3    H143105   1.366   5.138  14.508 -0.5601 -1.0369  0.3448
 7230TIP3    H243106   1.489   5.212  14.555 -0.7066 -0.1046 -0.6962
 7231TIP3   OH243107   2.435   5.448   4.230 -0.3278 -0.1596  0.5681
 7231TIP3    H143108   2.361   5.433   4.289 -0.8916 -1.0305 -0.3340
 7231TIP3    H243109   2.410   5.406   4.148  1.2834 -0.7137  0.3222
 7232TIP3   OH243110   0.121   0.809  13.310 -0.1309  0.1696 -0.0794
 7232TIP3    H143111   0.138   0.881  13.371 -3.3116  0.0880  1.0762
 7232TIP3    H243112   0.156   0.840  13.226 -1.4459  3.1668  0.3586
 7233TIP3   OH243113   5.285   2.271   6.682 -0.2481  0.3937 -0.4446
 7233TIP3    H143114   5.302   2.177   6.678  0.5375  0.2406  3.0912
 7233TIP3    H243115   5.372   2.311   6.680 -0.2590  0.6898  1.7641
 7234TIP3   OH243116   5.376   0.164   4.455 -0.1036  0.1755 -0.1256
 7234TIP3    H143117   5.452   0.172   4.511 -0.0287 -1.7035  0.0875
 7234TIP3    H243118   5.340   0.253   4.451  0.2176  0.4853  2.3981
 7235TIP3   OH243119   0.750   1.798  12.450 -0.4612  0.4597  0.0047
 7235TIP3    H143120   0.718   1.882  12.481 -2.2293 -0.2936  0.2955
 7235TIP3    H243121   0.694   1.776  12.376  0.7793  0.0871 -0.8703
 7236TIP3   OH243122   5.360   0.640  13.329 -0.1163  0.2869  0.2970
 7236TIP3    H143123   5.311   0.559  13.348  2.1943 -0.6280  3.1448
 7236TIP3    H243124   5.347   0.694  13.406 -0.0771  1.9106 -0.7851
 7237TIP3   OH243125   4.599   2.015  10.847  0.4219  0.0834 -0.3425
 7237TIP3    H143126   4.561   1.978  10.926  0.3215 -1.2620 -0.9961
 7237TIP3    H243127   4.680   1.966  10.834 -0.0853 -0.4586 -1.6386
 7238TIP3   OH243128   0.405   4.057  11.224  0.5731 -0.5409 -0.6435
 7238TIP3    H143129   0.406   4.128  11.159  0.9038  0.5755  0.5291
 7238TIP3    H243130   0.314   4.054  11.254  0.9472  0.8155  0.7580
 7239TIP3   OH243131   5.589   3.558  14.693  0.1206 -0.5530 -0.1504
 7239TIP3    H143132   5.577   3.634  14.636  3.4402  0.6237  0.4764
 7239TIP3    H243133   5.524   3.570  14.762 -0.4223  0.8935 -0.8655
 7240TIP3   OH243134   1.032   1.493  13.696  0.5080  0.1834 -0.2733
 7240TIP3    H143135   1.004   1.581  13.723 -0.2047 -0.0727 -0.1492
 7240TIP3    H243136   1.093   1.466  13.764 -0.8175 -0.2154  0.7945
 7241TIP3   OH243137   0.086   3.873  11.340 -0.2920 -0.2699 -0.1287
 7241TIP3    H143138   0.138   3.921  11.404 -1.0031 -1.5265  1.4560
 7241TIP3    H243139   0.066   3.938  11.272 -0.4878  1.4352  1.4871
 7242TIP3   OH243140   1.114   2.408  12.117  0.2445 -0.0235  0.5680
 7242TIP3    H143141   1.078   2.420  12.205 -1.0676 -1.6171  0.3017
 7242TIP3    H243142   1.036   2.401  12.060  0.9777 -1.7061 -0.3076
 7243TIP3   OH243143   6.172   5.537   5.013 -0.4826  0.2729 -0.4974
 7243TIP3    H143144   6.166   5.628   4.984  0.3167  0.2087 -0.8923
 7243TIP3    H243145   6.162   5.485   4.934  1.5963  0.0938 -0.6912
 7244TIP3   OH243146   1.838   0.567  16.719 -0.5605  1.1859  0.0985
 7244TIP3    H143147   1.799   0.503  16.660 -1.4119  0.6859  1.1577
 7244TIP3    H243148   1.932   0.562  16.702 -0.6784  0.1489 -0.3226
 7245TIP3   OH243149   0.676   4.791  13.042  0.6714 -0.2356  0.9179
 7245TIP3    H143150   0.604   4.841  13.080  0.6420  0.0423  0.5016
 7245TIP3    H243151   0.754   4.840  13.065  0.5254  0.8725 -0.8225
 7246TIP3   OH243152   6.099   1.326   2.085 -1.0515 -0.6427  0.5811
 7246TIP3    H143153   6.128   1.325   1.993  0.0469 -2.6143  0.8818
 7246TIP3    H243154   6.025   1.265   2.086 -0.3188 -1.5587  1.1670
 7247TIP3   OH243155   2.494   6.396   5.631  0.5699 -0.1901 -0.0596
 7247TIP3    H143156   2.437   6.322   5.653  0.4138 -0.3907 -1.0996
 7247TIP3    H243157   2.576   6.355   5.603  0.9339  0.0766  0.5798
 7248TIP3   OH243158   1.516   0.636   1.432  0.2764 -0.6431  0.1210
 7248TIP3    H143159   1.425   0.614   1.411  0.5203 -0.4517 -1.2056
 7248TIP3    H243160   1.568   0.585   1.370  1.1072 -1.0180  1.0928
 7249TIP3   OH243161   2.935   3.660   1.336  0.2530  0.0403 -0.3920
 7249TIP3    H143162   2.958   3.580   1.290  0.3046 -0.6705  0.8391
 7249TIP3    H243163   2.896   3.716   1.268 -2.1456 -1.9774 -0.8323
 7250TIP3   OH243164   6.527   4.590  14.350  0.7304  0.1368 -0.3394
 7250TIP3    H143165   6.606   4.634  14.382  0.6507 -0.0602  0.1402
 7250TIP3    H243166   6.552   4.498  14.344  0.6333  0.1209 -0.4886
 7251TIP3   OH243167   4.250   5.920  16.141  0.3766  0.1211  0.5322
 7251TIP3    H143168   4.185   5.850  16.141  1.2842 -0.7879 -0.7910
 7251TIP3    H243169   4.247   5.955  16.052 -0.6295  2.3764  1.3802
 7252TIP3   OH243170   2.794   4.720  14.342  0.5610  0.3497  0.1283
 7252TIP3    H143171   2.827   4.631  14.354  0.7232  0.3890 -0.0280
 7252TIP3    H243172   2.711   4.721  14.390  0.5584  0.1148  0.1313
 7253TIP3   OH243173   4.455   5.122   1.857  0.0506 -0.1949 -0.1488
 7253TIP3    H143174   4.380   5.169   1.893  2.6178  1.8654  3.0677
 7253TIP3    H243175   4.469   5.161   1.770 -2.2720 -0.4233 -0.6998
 7254TIP3   OH243176   1.687   5.646   0.056  0.0543 -0.6435 -0.3601
 7254TIP3    H143177   1.702   5.723   0.002 -1.1396 -0.2173 -0.1134
 7254TIP3    H243178   1.599   5.616   0.033  0.7298 -2.3439 -0.9236
 7255TIP3   OH243179   4.813   2.023  15.392  0.0558 -0.1555 -0.0016
 7255TIP3    H143180   4.883   2.077  15.428  0.1452 -1.3205  1.6779
 7255TIP3    H243181   4.844   1.933  15.403 -0.6575 -0.6342 -1.5302
 7256TIP3   OH243182   6.578   1.212  15.654  0.0761 -0.7500 -0.8612
 7256TIP3    H143183   6.533   1.171  15.580 -1.0081 -0.8431 -0.1856
 7256TIP3    H243184   6.653   1.155  15.671 -0.3516 -1.4090 -1.1225
 7257TIP3   OH243185   5.158   5.942   2.595 -0.4419  0.1027  0.1632
 7257TIP3    H143186   5.222   6.008   2.623  0.4509 -0.3422 -0.7925
 7257TIP3    H243187   5.131   5.969   2.508 -2.8039  1.1700  1.1346
 7258TIP3   OH243188   6.352   0.191  15.671  0.0479  0.0781 -0.0454
 7258TIP3    H143189   6.303   0.266  15.705  0.2960 -0.0453  0.6054
 7258TIP3    H243190   6.434   0.192  15.721 -0.1307 -0.8744  0.2767
 7259TIP3   OH243191   2.017   2.494  14.457  0.6563 -0.3712 -0.1833
 7259TIP3    H143192   2.102   2.516  14.420  1.0751 -1.5266  0.0459
 7259TIP3    H243193   2.023   2.400  14.476 -0.6172 -0.4340 -0.0295
 7260TIP3   OH243194   4.596   4.685  14.377  0.1565 -0.0637 -0.2726
 7260TIP3    H143195   4.594   4.610  14.436  1.6049  0.3111  0.2934
 7260TIP3    H243196   4.618   4.647  14.292  0.0296 -0.3826 -0.1647
 7261TIP3   OH243197   4.052   4.031  17.239  0.1277 -0.2447  0.1200
 7261TIP3    H143198   4.109   4.031  17.316  2.1995 -1.3613 -1.3115
 7261TIP3    H243199   4.034   3.939  17.223 -0.0378 -0.0502 -0.8673
 7262TIP3   OH243200   5.771   5.209   0.324 -0.0439 -0.1754  0.2129
 7262TIP3    H143201   5.841   5.244   0.379 -0.9938 -1.0103  2.0400
 7262TIP3    H243202   5.699   5.192   0.384 -1.0789 -1.3446 -1.2706
 7263TIP3   OH243203   5.082   1.908  15.291 -0.1812  0.1912 -0.4419
 7263TIP3    H143204   5.091   1.832  15.349  0.9283 -0.3399 -1.2838
 7263TIP3    H243205   5.171   1.940  15.278 -0.6029  1.4476 -0.3663
 7264TIP3   OH243206   4.113   3.345   4.000  0.0496  0.2081  0.0844
 7264TIP3    H143207   4.165   3.310   4.072 -0.2846  0.6500  0.5459
 7264TIP3    H243208   4.099   3.269   3.942 -0.3082 -0.3376  0.8577
 7265TIP3   OH243209   4.496   2.622  13.122  0.4658 -0.3009  0.0530
 7265TIP3    H143210   4.448   2.556  13.173  1.0255 -0.2894  0.6066
 7265TIP3    H243211   4.558   2.572  13.069 -2.7418 -0.7125 -3.7427
 7266TIP3   OH243212   4.488   2.102   0.433 -0.0990 -0.0566  0.0723
 7266TIP3    H143213   4.582   2.122   0.436  0.1051 -0.8985 -0.3940
 7266TIP3    H243214   4.447   2.186   0.410  0.4351  0.5574  1.2339
 7267TIP3   OH243215   3.507   5.611   0.769  0.6485  0.3472  0.0396
 7267TIP3    H143216   3.449   5.571   0.703 -1.7221  2.6676  0.5619
 7267TIP3    H243217   3.547   5.536   0.813 -2.2680 -1.4744 -0.1144
 7268TIP3   OH243218   6.118   0.380  11.866  0.0198 -0.1228  0.3923
 7268TIP3    H143219   6.190   0.321  11.888 -0.9136 -0.8293  1.6371
 7268TIP3    H243220   6.144   0.464  11.904  1.7692  0.6081 -2.1366
 7269TIP3   OH243221   3.468   2.602  11.797 -0.2734 -0.9298 -0.1666
 7269TIP3    H143222   3.412   2.679  11.786  0.6752 -0.3810 -1.5893
 7269TIP3    H243223   3.420   2.531  11.755 -0.2935 -0.6554 -0.6182
 7270TIP3   OH243224   1.306   1.871  14.917 -0.3147  0.3687  0.7187
 7270TIP3    H143225   1.373   1.802  14.915  0.4682  1.1140 -0.6462
 7270TIP3    H243226   1.334   1.929  14.988 -1.9807 -1.5701  3.1624
 7271TIP3   OH243227   4.647   6.562  12.547  0.0029  0.4964 -0.2852
 7271TIP3    H143228   4.640   6.530  12.457 -1.4860  0.3788 -0.1525
 7271TIP3    H243229   4.683   6.488  12.596  0.0310  0.2750 -0.6368
 7272TIP3   OH243230   3.401   1.787   5.718  0.9974  0.2336  0.0466
 7272TIP3    H143231   3.415   1.746   5.633  1.1538  0.2539  0.0619
 7272TIP3    H243232   3.427   1.720   5.781 -2.2091 -1.0593  0.2027
 7273TIP3   OH243233   0.416   2.788  11.689 -0.3198 -0.2699 -0.6942
 7273TIP3    H143234   0.414   2.868  11.636 -0.4978  0.5461  0.5106
 7273TIP3    H243235   0.482   2.733  11.647  0.0292  0.6333 -1.3571
 7274TIP3   OH243236   4.170   4.998   1.651  0.0911 -0.6455  0.2956
 7274TIP3    H143237   4.221   5.076   1.671 -2.9927  1.5536  0.3047
 7274TIP3    H243238   4.147   5.008   1.558 -2.5195 -0.0515  0.9381
 7275TIP3   OH243239   1.942   3.374   1.566  0.2481 -0.2138 -0.4807
 7275TIP3    H143240   1.874   3.352   1.503  0.6701 -2.0964 -0.3361
 7275TIP3    H243241   2.018   3.397   1.513  0.6014 -1.7869 -0.7073
 7276TIP3   OH243242   1.220   3.732   0.826  0.1298 -0.0901 -0.1507
 7276TIP3    H143243   1.310   3.762   0.839  0.5570 -0.5093 -1.8568
 7276TIP3    H243244   1.193   3.699   0.912  1.1770  1.1070  0.6812
 7277TIP3   OH243245   0.082   2.618  12.606  0.0919  0.2489  0.0944
 7277TIP3    H143246   0.137   2.693  12.629 -2.1965  1.3729  2.3032
 7277TIP3    H243247   0.031   2.648  12.531 -1.7050  1.4775  1.7218
 7278TIP3   OH243248   6.068   2.236  13.443 -0.3814  0.4831  0.2772
 7278TIP3    H143249   6.012   2.219  13.519 -1.5782  0.2286 -0.6303
 7278TIP3    H243250   6.103   2.150  13.420  0.0826  0.5810  0.6181
 7279TIP3   OH243251   2.021   0.203   2.579 -0.0136 -0.1744 -0.1789
 7279TIP3    H143252   2.002   0.185   2.671  1.4126 -0.2712  0.1210
 7279TIP3    H243253   2.116   0.210   2.575 -0.1429  1.7659 -1.2888
 7280TIP3   OH243254   0.127   3.491   0.012  0.1677 -0.1766 -0.0071
 7280TIP3    H143255   0.076   3.427  -0.039 -0.7419  1.0716 -0.7354
 7280TIP3    H243256   0.145   3.447   0.094 -0.0691 -1.5256 -0.6445
 7281TIP3   OH243257   6.626   5.585  12.260  0.1254  0.2478  0.0746
 7281TIP3    H143258   6.665   5.532  12.330  0.8743 -0.2384 -0.6847
 7281TIP3    H243259   6.562   5.526  12.219 -0.9249  0.8034  0.8496
 7282TIP3   OH243260   4.778   3.933   2.141  0.1952  0.3202  0.0704
 7282TIP3    H143261   4.710   3.866   2.129 -0.6339  0.7692  1.9133
 7282TIP3    H243262   4.777   3.951   2.235  1.9725  1.3082 -0.0655
 7283TIP3   OH243263   1.815   6.225  11.753  0.2411  0.0204 -0.3005
 7283TIP3    H143264   1.879   6.195  11.689 -0.9358  0.0610 -1.5287
 7283TIP3    H243265   1.738   6.248  11.702 -0.8109 -0.1195  1.1480
 7284TIP3   OH243266   3.895   0.399   0.039 -0.7053  0.1814 -0.0232
 7284TIP3    H143267   3.938   0.316   0.063 -1.5776 -0.4963 -0.7332
 7284TIP3    H243268   3.811   0.396   0.084 -1.8240 -0.5224 -2.0408
 7285TIP3   OH243269   2.274   5.452   5.793  0.0113 -0.4434  0.2939
 7285TIP3    H143270   2.205   5.517   5.779  0.1384  0.0276  1.7279
 7285TIP3    H243271   2.321   5.450   5.709 -2.1065 -1.2765 -0.9590
 7286TIP3   OH243272   0.308   6.432  12.154 -0.4209  0.0454  0.3330
 7286TIP3    H143273   0.217   6.457  12.136 -0.0759  0.7691 -0.4779
 7286TIP3    H243274   0.306   6.401  12.244 -1.5881 -0.5263  0.1346
 7287TIP3   OH243275   3.194   4.970   0.193  0.6854 -0.1174  0.3143
 7287TIP3    H143276   3.267   4.914   0.168  1.4954  0.7115  0.7617
 7287TIP3    H243277   3.116   4.920   0.169  1.3847 -1.2277  0.2751
 7288TIP3   OH243278   0.172   6.140  12.060 -0.3459  0.4592  0.4429
 7288TIP3    H143279   0.139   6.151  11.971 -0.8928  2.1967  0.8306
 7288TIP3    H243280   0.265   6.162  12.055  0.1124 -1.4320 -0.0555
 7289TIP3   OH243281   6.237   0.223  12.740  0.3888  0.5293  0.6056
 7289TIP3    H143282   6.270   0.134  12.724 -0.1296  0.4481 -0.0354
 7289TIP3    H243283   6.316   0.276  12.746  0.6714  0.2610 -0.4797
 7290TIP3   OH243284   3.445   3.115  13.517  0.3353  0.6240 -0.1986
 7290TIP3    H143285   3.457   3.190  13.460  1.2012 -0.0886 -0.9832
 7290TIP3    H243286   3.534   3.089  13.542  0.2669 -1.7339 -2.0885
 7291TIP3   OH243287   2.479   0.434  13.743  0.3448 -0.2657  0.4603
 7291TIP3    H143288   2.440   0.348  13.763  0.1683 -0.2865  0.0461
 7291TIP3    H243289   2.442   0.493  13.808  1.9128 -0.8567  1.9643
 7292TIP3   OH243290   3.651   5.478   0.341 -0.0867  0.0563  0.0908
 7292TIP3    H143291   3.563   5.511   0.324 -0.4797 -1.3649 -0.7847
 7292TIP3    H243292   3.652   5.461   0.435  0.3747  3.0831  0.7509
 7293TIP3   OH243293   6.543   2.980  13.228  0.0344 -0.8408 -0.6903
 7293TIP3    H143294   6.542   2.968  13.133  0.3081  0.4673 -0.8795
 7293TIP3    H243295   6.614   3.042  13.243  0.0498 -1.1017  0.3871
 7294TIP3   OH243296   5.223   5.529  14.973 -1.0462 -0.1296  0.0186
 7294TIP3    H143297   5.297   5.581  14.940  0.2091 -1.2912  0.8963
 7294TIP3    H243298   5.177   5.588  15.032 -0.8074  0.5973 -0.5013
 7295TIP3   OH243299   5.279   4.404  16.014 -0.0207 -0.4664  0.0771
 7295TIP3    H143300   5.365   4.444  16.002  0.4970 -0.9851  1.6954
 7295TIP3    H243301   5.235   4.461  16.078 -0.2820 -1.0300  0.4120
 7296TIP3   OH243302   6.361   6.434   1.196 -0.8695 -0.5534  0.0156
 7296TIP3    H143303   6.439   6.387   1.167 -1.4418 -0.9945 -0.8434
 7296TIP3    H243304   6.378   6.525   1.173 -0.4585 -0.5879  0.1705
 7297TIP3   OH243305   4.789   5.162   5.724  0.1733 -0.2278  0.8730
 7297TIP3    H143306   4.706   5.120   5.745  0.2737 -0.1156  1.4975
 7297TIP3    H243307   4.764   5.247   5.687 -0.1089 -1.4442 -2.0286
 7298TIP3   OH243308   5.232   1.308  12.465 -0.0092 -0.1212  0.3502
 7298TIP3    H143309   5.312   1.276  12.507 -1.3680 -0.6503  2.7276
 7298TIP3    H243310   5.161   1.264  12.512 -1.8186  2.5528  0.3392
 7299TIP3   OH243311   5.466   3.994  16.668  0.0080  0.2254 -0.8686
 7299TIP3    H143312   5.438   3.905  16.690 -1.0086  0.5539 -0.7816
 7299TIP3    H243313   5.560   3.987  16.653  0.8027 -0.1037  3.2353
 7300TIP3   OH243314   1.320   5.805  15.330 -0.4317  0.1462 -0.0402
 7300TIP3    H143315   1.318   5.852  15.246  0.3393  1.0338  0.4242
 7300TIP3    H243316   1.393   5.844  15.378 -2.1049  1.1073  1.8730
 7301TIP3   OH243317   4.873   1.702  16.162  0.1143  0.0416 -0.1229
 7301TIP3    H143318   4.785   1.722  16.195  0.8776 -0.7077  2.7080
 7301TIP3    H243319   4.927   1.775  16.193  0.2935  1.4302 -3.3681
 7302TIP3   OH243320   5.222   4.885  15.360  0.2517  0.0168  0.1972
 7302TIP3    H143321   5.242   4.809  15.304 -0.1425  0.1143 -0.0804
 7302TIP3    H243322   5.295   4.944  15.347  0.9394 -0.6334  0.9922
 7303TIP3   OH243323   0.703   2.937   0.119 -0.1473 -0.0354  0.1797
 7303TIP3    H143324   0.662   2.960   0.035  0.3583  1.4758  0.3066
 7303TIP3    H243325   0.746   2.854   0.103  0.8699  0.7565 -1.4124
 7304TIP3   OH243326   4.082   1.830   1.076 -0.5694  0.1758 -0.2704
 7304TIP3    H143327   4.099   1.745   1.118  1.0491  1.1437  1.1448
 7304TIP3    H243328   4.006   1.864   1.123 -2.3424 -1.1836 -2.0081
 7305TIP3   OH243329   0.851   0.364   5.454 -0.0266  0.5946  0.3639
 7305TIP3    H143330   0.779   0.344   5.394  0.1020  1.3487 -0.0557
 7305TIP3    H243331   0.882   0.278   5.483  0.3120  0.1882 -1.1243
 7306TIP3   OH243332   0.385   1.700   5.348 -0.5005  0.0374  0.0298
 7306TIP3    H143333   0.457   1.762   5.342 -1.2933  1.1275  1.2613
 7306TIP3    H243334   0.403   1.650   5.428 -0.4768 -0.5369 -0.3269
 7307TIP3   OH243335   3.215   1.625   2.524 -0.3042  0.7915 -0.1452
 7307TIP3    H143336   3.210   1.715   2.558 -1.7708  0.6607  0.0456
 7307TIP3    H243337   3.307   1.615   2.498  0.8254  1.0523  3.2643
 7308TIP3   OH243338   1.519   6.501   3.320  0.3169  0.3523 -0.2274
 7308TIP3    H143339   1.455   6.430   3.315  1.4068 -0.7275  0.2318
 7308TIP3    H243340   1.604   6.455   3.323  1.4291  1.7349 -4.2733
 7309TIP3   OH243341   4.219   5.727  16.595 -0.4002 -0.3943  0.1741
 7309TIP3    H143342   4.211   5.696  16.505 -2.2472 -0.7789  0.4240
 7309TIP3    H243343   4.187   5.817  16.592 -0.6506 -0.4715  0.4688
 7310TIP3   OH243344   0.805   5.521  12.156 -0.4072  0.3312 -0.2829
 7310TIP3    H143345   0.812   5.438  12.203 -0.7263  0.4678  0.0149
 7310TIP3    H243346   0.797   5.496  12.064  1.7282  0.1016 -0.4626
 7311TIP3   OH243347   5.886   4.247   5.092  0.2392 -0.9713 -0.2854
 7311TIP3    H143348   5.870   4.302   5.015 -1.5649 -1.0620 -0.0123
 7311TIP3    H243349   5.955   4.292   5.140  0.5680 -0.3004 -1.3600
 7312TIP3   OH243350   2.238   4.194   0.852  0.3882  0.2993  0.6782
 7312TIP3    H143351   2.294   4.215   0.927  2.9000 -0.7222 -0.7778
 7312TIP3    H243352   2.257   4.262   0.787  0.9431 -0.7713 -0.3114
 7313TIP3   OH243353   4.602   2.948  16.688 -0.3588  0.5106 -0.1479
 7313TIP3    H143354   4.594   2.907  16.602  0.1146  0.7705 -0.3196
 7313TIP3    H243355   4.646   3.031  16.671  1.9697 -0.4880  0.6359
 7314TIP3   OH243356   2.997   0.906  11.342  0.9345  0.2209 -0.1133
 7314TIP3    H143357   2.996   0.985  11.396 -0.4134 -1.0028  1.7550
 7314TIP3    H243358   3.049   0.843  11.393 -2.9774 -2.0145  1.5508
 7315TIP3   OH243359   6.278   0.105   2.553  0.2977  0.4930  0.3632
 7315TIP3    H143360   6.342   0.046   2.512 -1.9013  0.0243 -2.7490
 7315TIP3    H243361   6.235   0.052   2.619  1.6170  0.1592  0.9881
 7316TIP3   OH243362   4.401   5.202   4.759 -0.1054  0.1375  0.2809
 7316TIP3    H143363   4.412   5.143   4.685  1.3574  1.2649 -0.4394
 7316TIP3    H243364   4.350   5.151   4.823 -1.2284 -0.9262 -1.3861
 7317TIP3   OH243365   2.888   0.612   5.933  0.8952  0.1339  0.0534
 7317TIP3    H143366   2.934   0.546   5.883 -0.9340 -0.2510 -1.2182
 7317TIP3    H243367   2.822   0.563   5.983  0.8007  0.8111  0.6173
 7318TIP3   OH243368   0.432   4.274   0.739  0.2207  0.1421 -0.3497
 7318TIP3    H143369   0.383   4.206   0.785  2.4944  0.0959  2.2779
 7318TIP3    H243370   0.480   4.227   0.670 -0.4276 -0.4162 -0.4328
 7319TIP3   OH243371   3.048   1.352  14.316  0.1404  0.6995 -0.1799
 7319TIP3    H143372   3.081   1.408  14.245  3.0454 -0.1067  0.3814
 7319TIP3    H243373   3.050   1.264  14.279  1.8914  0.2410  0.8687
 7320TIP3   OH243374   1.283   0.707   6.187 -0.4765 -0.6571  0.1776
 7320TIP3    H143375   1.229   0.672   6.258 -0.7445  0.6581  0.6441
 7320TIP3    H243376   1.365   0.732   6.229 -0.2084 -0.9171 -0.1870
 7321TIP3   OH243377   1.651   6.713   3.559 -0.4610  0.4721  0.1954
 7321TIP3    H143378   1.625   6.728   3.468 -1.9815  0.9250  0.6551
 7321TIP3    H243379   1.645   6.618   3.571  1.7492  0.1816 -0.6999
 7322TIP3   OH243380   5.953   4.633  14.226  0.3853 -0.6065 -0.2581
 7322TIP3    H143381   5.975   4.646  14.318 -1.0533  0.8415 -0.0845
 7322TIP3    H243382   6.009   4.695  14.179  0.5160 -0.7582 -0.3071
 7323TIP3   OH243383   2.344   1.186   4.258  0.2870 -0.7135 -0.3042
 7323TIP3    H143384   2.327   1.280   4.251  0.9279 -0.5847 -0.1773
 7323TIP3    H243385   2.262   1.145   4.228 -0.5557 -0.1307  1.0902
 7324TIP3   OH243386   2.293   2.266  14.375 -0.0724  0.8142 -0.1931
 7324TIP3    H143387   2.347   2.332  14.419 -0.3019  2.5385 -2.3256
 7324TIP3    H243388   2.304   2.284  14.282  0.3030 -2.5762 -0.9541
 7325TIP3   OH243389   5.020   1.458  14.228  0.6750 -0.0034  0.1340
 7325TIP3    H143390   4.954   1.510  14.183 -0.2270  1.6527  3.1314
 7325TIP3    H243391   5.055   1.400  14.160 -3.8196 -1.0427 -1.6562
 7326TIP3   OH243392   2.157   5.935  12.413  0.0115 -0.1252 -0.7278
 7326TIP3    H143393   2.245   5.943  12.377 -0.3966 -1.9193 -2.3467
 7326TIP3    H243394   2.100   5.931  12.335 -1.5392  1.1588  0.2741
 7327TIP3   OH243395   5.791   0.185   4.256 -0.5237  0.0929  0.5392
 7327TIP3    H143396   5.696   0.195   4.255 -0.4079  1.6910 -1.5496
 7327TIP3    H243397   5.824   0.266   4.218  1.7266 -0.1924  1.7117
 7328TIP3   OH243398   5.636   0.891  10.648 -0.4056  0.0077  0.4820
 7328TIP3    H143399   5.638   0.839  10.567  2.1966 -1.2932  1.2511
 7328TIP3    H243400   5.632   0.826  10.718  1.2437  0.8777  1.4405
 7329TIP3   OH243401   5.456   5.999  13.316 -0.1550  0.1454  0.3933
 7329TIP3    H143402   5.374   5.968  13.279  0.3623 -0.3060 -0.3992
 7329TIP3    H243403   5.506   6.031  13.241  0.3015  0.6480  0.8976
 7330TIP3   OH243404   6.012   4.090  11.303 -0.5900 -0.6359  0.4135
 7330TIP3    H143405   6.057   4.072  11.221  0.6358 -0.4380  1.0184
 7330TIP3    H243406   6.046   4.025  11.365  0.8286  1.0906  1.5455
 7331TIP3   OH243407   5.524   4.433   5.748 -0.5329 -0.5477 -0.1623
 7331TIP3    H143408   5.465   4.494   5.703  0.2631 -0.0058 -0.4866
 7331TIP3    H243409   5.608   4.442   5.703 -0.0761 -0.9785  0.5732
 7332TIP3   OH243410   6.737   6.065   0.706 -0.3370 -0.6479 -0.5378
 7332TIP3    H143411   6.659   6.013   0.689 -1.3609 -0.2612  2.3490
 7332TIP3    H243412   6.703   6.154   0.723  0.8203 -0.2279 -0.3269
 7333TIP3   OH243413   5.710   3.949  16.529 -0.1820  0.1078 -0.4861
 7333TIP3    H143414   5.788   4.004  16.526 -1.0404  1.7000  2.3210
 7333TIP3    H243415   5.676   3.950  16.440  1.6406  1.3888 -1.2303
 7334TIP3   OH243416   6.284   1.246  15.206  0.6210  0.5952 -0.0918
 7334TIP3    H143417   6.322   1.172  15.158 -2.5190 -1.3847  0.1642
 7334TIP3    H243418   6.259   1.208  15.291  1.0584  2.6238  1.0102
 7335TIP3   OH243419   1.043   4.307   3.143 -0.0797 -0.4101  0.9583
 7335TIP3    H143420   1.007   4.308   3.054  0.4857 -0.8318  0.7141
 7335TIP3    H243421   1.019   4.220   3.177  0.6287 -0.6727  0.8138
 7336TIP3   OH243422   3.914   1.147   2.676 -0.4520 -0.0309 -0.2393
 7336TIP3    H143423   3.845   1.182   2.621 -0.6452 -1.6235 -1.0658
 7336TIP3    H243424   3.964   1.224   2.704 -0.5654  0.8777 -2.3430
 7337TIP3   OH243425   3.216   5.669   0.450  0.0069 -0.4963  0.1135
 7337TIP3    H143426   3.177   5.670   0.537 -1.4204  1.3559 -0.4878
 7337TIP3    H243427   3.153   5.619   0.397 -0.0151 -0.1098 -0.2259
 7338TIP3   OH243428   5.042   1.003  14.665  0.0942  0.2153  0.3210
 7338TIP3    H143429   5.018   0.949  14.590 -0.8571  0.0953  0.6928
 7338TIP3    H243430   5.086   0.944  14.726  1.4224  0.4415 -0.3806
 7339TIP3   OH243431   5.697   3.564   0.504  0.3333  0.5915 -0.3041
 7339TIP3    H143432   5.720   3.559   0.597 -1.1646 -1.7754  0.0283
 7339TIP3    H243433   5.748   3.493   0.463  1.7053  2.1995 -1.5349
 7340TIP3   OH243434   4.002   3.810  14.277  0.0518 -0.2140  0.1969
 7340TIP3    H143435   4.056   3.750  14.328  0.3475  1.5324  2.0627
 7340TIP3    H243436   4.060   3.838  14.206  1.2554  0.7186  1.4870
 7341TIP3   OH243437   6.410   2.374   1.241  0.1948  0.3336  0.3427
 7341TIP3    H143438   6.396   2.287   1.204  1.7270 -0.3033  1.1614
 7341TIP3    H243439   6.472   2.415   1.180 -1.2390  1.2519 -0.5647
 7342TIP3   OH243440   1.799   1.006  13.785  0.4968  0.0984  0.2363
 7342TIP3    H143441   1.724   1.033  13.732 -0.4520  0.8040  1.8585
 7342TIP3    H243442   1.870   1.063  13.757 -0.5636  1.9884  1.1550
 7343TIP3   OH243443   3.860   3.125  16.471  0.3533  0.0578  0.1440
 7343TIP3    H143444   3.895   3.150  16.557  1.0144 -0.2470 -0.0335
 7343TIP3    H243445   3.875   3.030  16.465  0.6807  0.1427 -0.4750
 7344TIP3   OH243446   5.894   1.095  11.705 -0.6086  0.0041 -0.1093
 7344TIP3    H143447   5.984   1.078  11.733 -0.9629 -1.3641  0.2731
 7344TIP3    H243448   5.902   1.164  11.638  0.8130 -0.7907 -0.7962
 7345TIP3   OH243449   4.091   0.694   1.562 -0.4925  0.1673  0.3364
 7345TIP3    H143450   4.175   0.717   1.522 -0.1030 -1.1664  0.3262
 7345TIP3    H243451   4.106   0.607   1.600 -1.2883  0.7831  2.1175
 7346TIP3   OH243452   6.643   1.827   3.659  0.4644 -0.3710 -0.3397
 7346TIP3    H143453   6.722   1.826   3.606  0.6257 -1.7157 -0.1328
 7346TIP3    H243454   6.623   1.919   3.672  2.1060  0.0105 -0.2510
 7347TIP3   OH243455   4.001   2.191  13.703  0.0337  0.1289  0.1549
 7347TIP3    H143456   3.977   2.207  13.794  0.5770  1.6594  0.0620
 7347TIP3    H243457   3.942   2.247  13.652 -0.3084 -0.7577 -0.4555
 7348TIP3   OH243458   6.571   4.217  15.089 -1.1977  0.1884 -0.0685
 7348TIP3    H143459   6.510   4.253  15.025 -2.0418  1.3238  1.3255
 7348TIP3    H243460   6.576   4.283  15.159 -0.4800 -1.0814  1.1475
 7349TIP3   OH243461   1.501   0.933  10.454 -0.3808 -0.1908 -0.7234
 7349TIP3    H143462   1.412   0.960  10.476 -0.3183 -1.3904  1.2626
 7349TIP3    H243463   1.492   0.885  10.371 -1.5532 -0.1412 -0.6466
 7350TIP3   OH243464   6.112   3.826  11.297  0.0532  0.2961 -0.2701
 7350TIP3    H143465   6.053   3.790  11.231 -1.7231  0.8551  0.9547
 7350TIP3    H243466   6.131   3.751  11.354  0.4150  0.1569 -0.5663
 7351TIP3   OH243467   2.807   2.607  16.113 -0.4954  0.4677  0.5410
 7351TIP3    H143468   2.785   2.625  16.205  1.0816 -0.8019  1.2045
 7351TIP3    H243469   2.843   2.518  16.113  1.6895  1.2596 -0.9107
 7352TIP3   OH243470   5.225   4.642   0.491 -0.0672 -0.2838  0.0190
 7352TIP3    H143471   5.276   4.613   0.566 -0.2666 -0.0595  0.2426
 7352TIP3    H243472   5.182   4.563   0.459  2.2366 -0.9969 -1.6247
 7353TIP3   OH243473   1.059   1.933  14.559  0.4420  0.5174  0.4416
 7353TIP3    H143474   1.064   1.837  14.558 -0.1150  0.4701 -1.0497
 7353TIP3    H243475   1.148   1.962  14.578  0.6707 -0.2950  0.6364
 7354TIP3   OH243476   2.657   6.213   0.792 -0.2889 -0.3727  0.6120
 7354TIP3    H143477   2.615   6.201   0.877 -0.6038  2.0535  0.8556
 7354TIP3    H243478   2.684   6.305   0.791  0.0547 -0.4389 -1.7687
 7355TIP3   OH243479   6.154   4.026  13.394 -0.0937  0.1599 -0.2432
 7355TIP3    H143480   6.091   4.093  13.420 -1.1837 -0.1428 -1.9913
 7355TIP3    H243481   6.105   3.944  13.397  0.2687 -0.1147 -1.3651
 7356TIP3   OH243482   6.470   5.516   6.634 -0.1497 -0.1449 -0.3560
 7356TIP3    H143483   6.549   5.553   6.673 -0.3055  1.9423 -1.8728
 7356TIP3    H243484   6.399   5.574   6.663 -1.2560 -2.1792  1.2689
 7357TIP3   OH243485   0.611   6.010  16.301 -0.1961  0.4944 -0.9723
 7357TIP3    H143486   0.640   6.044  16.385 -0.9439 -0.4410 -0.3218
 7357TIP3    H243487   0.680   5.950  16.274 -0.2088  0.3868 -0.7674
 7358TIP3   OH243488   5.590   0.712   6.067  0.1419  0.1882 -0.2137
 7358TIP3    H143489   5.608   0.718   5.973 -1.3755 -0.2321 -0.5446
 7358TIP3    H243490   5.677   0.710   6.108  0.8460 -0.9637 -1.6845
 7359TIP3   OH243491   6.424   0.234   3.250 -0.2538 -0.0335  0.0655
 7359TIP3    H143492   6.444   0.327   3.234  0.5073 -0.3724 -1.1054
 7359TIP3    H243493   6.508   0.190   3.243 -0.6769 -0.8693  0.1645
 7360TIP3   OH243494   5.119   0.255  11.805 -0.4326 -0.0364 -0.1218
 7360TIP3    H143495   5.077   0.232  11.887  2.1353 -2.3630  0.6985
 7360TIP3    H243496   5.163   0.339  11.823 -0.2945 -0.2845  0.7351
 7361TIP3   OH243497   1.096   0.975  11.891  0.2162 -0.1027  0.2448
 7361TIP3    H143498   1.092   1.070  11.875  0.3374 -0.0222  0.6687
 7361TIP3    H243499   1.055   0.936  11.815 -2.3727  0.3786  1.2781
 7362TIP3   OH243500   1.744   6.710   5.268 -0.2808  0.1009  0.0009
 7362TIP3    H143501   1.839   6.726   5.272 -0.0146 -1.1532 -0.7038
 7362TIP3    H243502   1.727   6.695   5.175 -0.5602 -2.9279  0.4428
 7363TIP3   OH243503   5.284   6.617   0.926 -0.4990 -0.2779  0.3900
 7363TIP3    H143504   5.211   6.637   0.867  0.3178  0.2406 -0.4749
 7363TIP3    H243505   5.353   6.586   0.867  0.1394 -0.3048  1.1481
 7364TIP3   OH243506   3.650   3.768   5.592 -0.1844  0.8309 -0.0843
 7364TIP3    H143507   3.625   3.840   5.533 -0.2761  0.1324 -0.9199
 7364TIP3    H243508   3.566   3.726   5.613 -0.0566  0.5184 -0.2015
 7365TIP3   OH243509   2.140   6.523  16.463 -0.1686 -0.3822 -0.1208
 7365TIP3    H143510   2.168   6.454  16.404  0.8338 -0.6698  0.6579
 7365TIP3    H243511   2.113   6.477  16.543  1.5180  0.1376  0.8012
 7366TIP3   OH243512   3.739   2.627  14.998 -0.0590 -0.4505  0.0650
 7366TIP3    H143513   3.759   2.715  14.967 -0.0159 -0.8226 -0.9996
 7366TIP3    H243514   3.810   2.607  15.060  0.7047 -0.2499 -0.7177
 7367TIP3   OH243515   2.154   3.153  13.338 -0.3342 -0.3225  0.1942
 7367TIP3    H143516   2.118   3.078  13.385  0.6390 -0.0360  1.4497
 7367TIP3    H243517   2.193   3.208  13.406 -1.7096  1.7394 -0.5946
 7368TIP3   OH243518   1.225   3.629  15.501 -0.0720 -0.2966 -0.3734
 7368TIP3    H143519   1.156   3.571  15.469 -0.5920  0.6774 -1.0741
 7368TIP3    H243520   1.278   3.649  15.424  1.5059 -1.6656  0.3003
 7369TIP3   OH243521   2.365   1.296  10.741  0.2153 -0.3169 -0.7115
 7369TIP3    H143522   2.367   1.387  10.712  0.2068  0.1256  0.6227
 7369TIP3    H243523   2.287   1.260  10.700  0.9632 -0.1426 -2.3850
 7370TIP3   OH243524   3.733   1.566  10.519  0.1965  0.3867  0.4819
 7370TIP3    H143525   3.766   1.643  10.565  1.5489  0.4888 -0.5921
 7370TIP3    H243526   3.811   1.513  10.501 -0.6403 -0.9860  0.7335
 7371TIP3   OH243527   5.606   3.007  11.380 -0.3551  0.2936 -0.4453
 7371TIP3    H143528   5.656   2.984  11.302 -0.4476  0.4885 -0.5625
 7371TIP3    H243529   5.673   3.037  11.442 -0.3478  0.8165 -0.6991
 7372TIP3   OH243530   3.390   3.664  13.884  0.1361 -0.0769  0.2803
 7372TIP3    H143531   3.464   3.719  13.910 -1.2432  1.2312  1.6065
 7372TIP3    H243532   3.320   3.686  13.945 -0.9563 -2.2748 -0.0688
 7373TIP3   OH243533   2.957   2.025  15.198  0.0644  0.7330  0.1099
 7373TIP3    H143534   2.910   2.047  15.279  0.3497 -1.1717  0.8318
 7373TIP3    H243535   2.888   2.010  15.134 -0.1702  1.9681  0.0406
 7374TIP3   OH243536   3.699   0.308   2.592  0.0944 -0.3158 -0.0468
 7374TIP3    H143537   3.793   0.319   2.603 -0.1655  1.2061  0.9657
 7374TIP3    H243538   3.673   0.248   2.662  0.5209 -2.2012 -1.4150
 7375TIP3   OH243539   3.468   6.347  11.730 -0.6292 -0.0104  0.1525
 7375TIP3    H143540   3.473   6.255  11.704 -1.5499  0.1996 -0.8549
 7375TIP3    H243541   3.380   6.374  11.705  0.0828  1.5178 -0.8985
 7376TIP3   OH243542   6.490   6.414   2.909 -0.4035 -0.1649 -0.6000
 7376TIP3    H143543   6.498   6.351   2.980  1.2519  1.4265  0.7277
 7376TIP3    H243544   6.517   6.366   2.831  0.6312 -1.1662  0.3472
 7377TIP3   OH243545   3.351   3.478  13.050 -0.6558 -0.0336  0.2535
 7377TIP3    H143546   3.370   3.433  12.968  0.0204  1.0864 -0.2292
 7377TIP3    H243547   3.419   3.545  13.057 -2.2690  1.6855  0.3264
 7378TIP3   OH243548   2.436   2.893   1.231 -0.0712 -0.5070  0.3308
 7378TIP3    H143549   2.524   2.917   1.258  0.4203 -1.4106 -0.4014
 7378TIP3    H243550   2.422   2.940   1.149 -0.0572 -0.8031  0.1586
 7379TIP3   OH243551   4.625   4.780   2.689 -0.0173 -0.1232  0.7636
 7379TIP3    H143552   4.679   4.704   2.667  0.6054  0.7434 -0.8171
 7379TIP3    H243553   4.687   4.843   2.727  0.2776  1.0928 -1.5693
 7380TIP3   OH243554   3.742   0.296   3.817  0.1611  0.0774  0.2246
 7380TIP3    H143555   3.806   0.225   3.826 -0.9986 -1.1327 -0.8236
 7380TIP3    H243556   3.670   0.272   3.875 -0.0901  0.5889  0.1353
 7381TIP3   OH243557   2.574   4.188   0.826  0.3979 -0.1130 -0.4168
 7381TIP3    H143558   2.595   4.255   0.762  0.3748  0.6871  0.3928
 7381TIP3    H243559   2.540   4.237   0.902 -0.4764 -1.0877 -0.1495
 7382TIP3   OH243560   1.566   0.751  11.977 -0.2908  1.0167 -0.6032
 7382TIP3    H143561   1.495   0.749  11.912 -0.1503 -1.1561 -0.7809
 7382TIP3    H243562   1.524   0.722  12.059 -0.1507  2.2940 -0.0629
 7383TIP3   OH243563   6.146   6.776  15.936  0.4813 -0.3120  0.5364
 7383TIP3    H143564   6.079   6.805  15.997  0.4815 -2.3000  1.5670
 7383TIP3    H243565   6.177   6.692  15.971  0.2504 -1.7336 -2.3345
 7384TIP3   OH243566   6.745   6.482   0.985  0.0231  0.2878  0.1549
 7384TIP3    H143567   6.805   6.432   1.040 -0.4507  0.1436  0.5507
 7384TIP3    H243568   6.743   6.569   1.026  1.0959  0.7452 -0.7188
 7385TIP3   OH243569   0.577   5.692  14.807  0.3479 -0.4235  0.7373
 7385TIP3    H143570   0.658   5.697  14.756  1.1107  0.3742  1.9807
 7385TIP3    H243571   0.530   5.773  14.786  0.2576 -0.5011  0.6407
 7386TIP3   OH243572   2.599   4.704   5.642 -0.1040 -0.0428  0.0832
 7386TIP3    H143573   2.638   4.742   5.563 -2.1077 -1.3681 -1.6630
 7386TIP3    H243574   2.623   4.765   5.712  1.0429  1.6648 -1.6833
 7387TIP3   OH243575   4.323   0.704   1.411  0.5297 -0.5194 -0.1805
 7387TIP3    H143576   4.269   0.654   1.349 -0.6185  0.0264  0.3448
 7387TIP3    H243577   4.402   0.651   1.422  0.4742 -0.9329 -1.6183
 7388TIP3   OH243578   5.359   1.386   4.337 -0.2351  0.3792  0.3165
 7388TIP3    H143579   5.354   1.476   4.306 -0.1683  1.0622  2.2261
 7388TIP3    H243580   5.271   1.365   4.367 -0.2370 -0.1951 -0.0655
 7389TIP3   OH243581   4.454   3.497  15.068  0.2155 -0.6881  0.1897
 7389TIP3    H143582   4.453   3.590  15.045 -0.8495 -0.3723  1.4299
 7389TIP3    H243583   4.523   3.490  15.135  1.2675 -1.0672 -0.9041
 7390TIP3   OH243584   2.774   0.026   3.089  0.2107 -0.1168  0.0632
 7390TIP3    H143585   2.741  -0.031   3.019 -2.8547  0.3358  0.9832
 7390TIP3    H243586   2.816   0.098   3.043  0.9105 -1.2716 -1.1936
 7391TIP3   OH243587   2.453   6.700   1.965 -0.3172  0.2552  0.1098
 7391TIP3    H143588   2.449   6.674   2.057  0.3947  0.0840  0.0958
 7391TIP3    H243589   2.450   6.617   1.917 -0.3525  0.3251 -0.0094
 7392TIP3   OH243590   4.892   3.534  13.782  0.6249  0.0070 -0.1209
 7392TIP3    H143591   4.807   3.526  13.738  0.0394  4.0721 -0.0528
 7392TIP3    H243592   4.881   3.483  13.862 -1.2165 -0.7757 -0.8052
 7393TIP3   OH243593   5.708   2.527   2.870  0.4028  0.0971 -0.2645
 7393TIP3    H143594   5.802   2.522   2.857  0.3841 -0.0297 -0.3533
 7393TIP3    H243595   5.671   2.476   2.798  0.2975 -0.6153  0.2797
 7394TIP3   OH243596   0.365   6.150   4.790  0.0580 -0.7897 -0.0559
 7394TIP3    H143597   0.299   6.191   4.847  1.5228 -0.2398  1.2997
 7394TIP3    H243598   0.431   6.116   4.850  0.9607 -1.4340 -1.3760
 7395TIP3   OH243599   3.772   0.984   3.268 -0.4537  0.4066  0.4691
 7395TIP3    H143600   3.821   0.939   3.337 -1.5840 -0.3567  0.7884
 7395TIP3    H243601   3.835   0.991   3.195 -0.3779 -2.1628  0.2156
 7396TIP3   OH243602   0.129   6.620  15.257 -0.1187 -0.0062  0.1235
 7396TIP3    H143603   0.039   6.590  15.269  0.0727 -0.7805 -0.3218
 7396TIP3    H243604   0.127   6.670  15.175 -0.3850  1.0349  0.7400
 7397TIP3   OH243605   6.249   2.281  10.243  0.1477 -0.1971  0.5101
 7397TIP3    H143606   6.327   2.333  10.262  0.9355 -0.8362 -0.8109
 7397TIP3    H243607   6.215   2.256  10.329  1.5772 -0.1435  1.1179
 7398TIP3   OH243608   1.660   4.538   0.504 -0.1167 -0.4055 -0.5646
 7398TIP3    H143609   1.652   4.445   0.526  1.4444 -0.1038  1.5630
 7398TIP3    H243610   1.625   4.584   0.581  1.8450  0.7432 -0.2947
 7399TIP3   OH243611   0.664   6.738  11.231  0.3492 -0.7361  0.0258
 7399TIP3    H143612   0.691   6.661  11.181  2.5255  0.0835 -0.1686
 7399TIP3    H243613   0.673   6.811  11.169 -0.6934 -0.1756  0.5048
 7400TIP3   OH243614   5.755   0.005  12.679 -0.1254  0.2274 -0.6948
 7400TIP3    H143615   5.737  -0.065  12.617  2.0737 -0.1917 -0.9276
 7400TIP3    H243616   5.850   0.005  12.689 -0.2211  1.9453  0.7545
 7401TIP3   OH243617   3.534   3.320   0.876 -0.2458  0.2548  0.6997
 7401TIP3    H143618   3.566   3.404   0.844  0.3119 -0.4489 -0.6817
 7401TIP3    H243619   3.560   3.257   0.809  0.6024 -1.2600  2.3614
 7402TIP3   OH243620   5.566   1.390  14.505 -0.0132 -0.4070  0.2221
 7402TIP3    H143621   5.510   1.431  14.571 -0.5702  0.3253 -0.6902
 7402TIP3    H243622   5.511   1.325  14.463  0.3083 -0.7948  0.3989
 7403TIP3   OH243623   1.374   3.031   4.468 -0.1304  0.3232 -0.0183
 7403TIP3    H143624   1.422   3.075   4.398 -0.0630 -0.9523 -0.7927
 7403TIP3    H243625   1.441   2.982   4.516 -0.3740  0.1260  0.1226
 7404TIP3   OH243626   1.459   2.734   4.007 -0.1350 -0.5230 -0.3776
 7404TIP3    H143627   1.392   2.787   4.049 -1.2742 -1.5811 -0.7959
 7404TIP3    H243628   1.536   2.790   4.005 -0.7696  0.4486  0.8174
 7405TIP3   OH243629   1.329   3.872  11.914  0.7787 -0.5115  0.1884
 7405TIP3    H143630   1.350   3.901  12.002  0.8574 -0.4960  0.1646
 7405TIP3    H243631   1.235   3.851  11.918 -0.6371  4.2205 -0.9157
 7406TIP3   OH243632   0.821   5.500  16.144 -0.1279  0.1933 -0.2942
 7406TIP3    H143633   0.869   5.417  16.141  0.7821  0.7414 -1.6644
 7406TIP3    H243634   0.866   5.556  16.081  0.0350  2.1669  1.4963
 7407TIP3   OH243635   6.386   5.840  15.488  0.4551  0.2830  0.4953
 7407TIP3    H143636   6.392   5.827  15.394 -0.5248 -1.3903  0.6233
 7407TIP3    H243637   6.429   5.924  15.504 -0.1367  1.0303 -1.5460
 7408TIP3   OH243638   4.697   3.800   5.641  0.2507 -0.0190  0.2906
 7408TIP3    H143639   4.772   3.835   5.688  0.4658  0.8130 -0.6448
 7408TIP3    H243640   4.621   3.831   5.691  0.4022  2.3797 -0.8326
 7409TIP3   OH243641   5.030   6.486  16.770 -0.5206 -0.2638  0.3235
 7409TIP3    H143642   4.964   6.459  16.707 -2.5301  0.2932  2.0569
 7409TIP3    H243643   5.057   6.405  16.814 -0.1668 -0.4743 -0.2790
 7410TIP3   OH243644   5.419   1.073  16.197  0.5079  0.0875 -0.2156
 7410TIP3    H143645   5.345   1.015  16.179 -0.9993  2.0383 -0.7521
 7410TIP3    H243646   5.434   1.064  16.291 -0.1353 -0.6602 -0.1754
 7411TIP3   OH243647   5.406   3.498   5.476  0.0580  0.5038  0.1140
 7411TIP3    H143648   5.323   3.546   5.482  0.3133  0.8886  0.6362
 7411TIP3    H243649   5.381   3.411   5.446 -0.5456  0.5826  0.3739
 7412TIP3   OH243650   4.269   0.719  13.652  0.0591 -0.4770 -0.4308
 7412TIP3    H143651   4.233   0.795  13.700  1.5782 -0.8517  1.4521
 7412TIP3    H243652   4.196   0.659  13.644 -0.9509  0.8037 -1.1534
 7413TIP3   OH243653   5.193   4.457  14.381  0.3036 -0.1382  0.0306
 7413TIP3    H143654   5.106   4.419  14.392 -0.0732  0.8920  0.8320
 7413TIP3    H243655   5.227   4.417  14.301 -0.8555 -0.6362 -0.2398
 7414TIP3   OH243656   2.732   0.147   4.205  0.6464  0.0844 -0.8931
 7414TIP3    H143657   2.702   0.119   4.118 -0.1995  0.4565 -0.7253
 7414TIP3    H243658   2.785   0.225   4.188  1.2704 -0.3914 -1.1610
 7415TIP3   OH243659   5.205   5.948  13.243 -0.1670 -0.4698 -0.0628
 7415TIP3    H143660   5.155   5.888  13.188  0.0301 -1.2831  0.6235
 7415TIP3    H243661   5.171   6.035  13.221  1.0717 -0.5568 -2.7078
 7416TIP3   OH243662   4.298   4.825  14.442  0.1857  0.5048 -0.0503
 7416TIP3    H143663   4.300   4.729  14.448 -0.3802  0.4661 -0.4340
 7416TIP3    H243664   4.212   4.845  14.404  0.2285  1.1740  0.1983
 7417TIP3   OH243665   4.525   3.648   4.937  0.0892  0.3227 -0.0879
 7417TIP3    H143666   4.580   3.670   5.013 -1.1351  2.4424  0.2648
 7417TIP3    H243667   4.575   3.679   4.862 -0.4093  1.9053  0.2029
 7418TIP3   OH243668   0.379   5.960  15.966  0.2509 -0.0734  0.0666
 7418TIP3    H143669   0.287   5.972  15.986  0.3037 -0.6456  0.7070
 7418TIP3    H243670   0.399   6.026  15.900 -0.6988 -0.1838 -0.3337
 7419TIP3   OH243671   3.499   4.582   3.777  0.0600  0.0931  0.2661
 7419TIP3    H143672   3.567   4.635   3.819  1.0704  1.0096 -2.3203
 7419TIP3    H243673   3.475   4.517   3.844  2.4716  0.5952  1.7655
 7420TIP3   OH243674   4.217   3.743  12.540 -0.1600 -0.0140 -0.0686
 7420TIP3    H143675   4.131   3.701  12.539  0.5622 -1.7284 -3.1303
 7420TIP3    H243676   4.250   3.729  12.629 -2.2161 -1.0004  0.6061
 7421TIP3   OH243677   2.768   0.900  13.575 -0.3747  0.1120  0.5659
 7421TIP3    H143678   2.682   0.892  13.617 -1.4559 -1.1539 -1.6870
 7421TIP3    H243679   2.829   0.860  13.637 -1.7945 -1.1610  1.2098
 7422TIP3   OH243680   5.791   3.517   0.764  0.7923 -0.5974 -0.4104
 7422TIP3    H143681   5.737   3.507   0.842  1.7557  2.6230  0.8766
 7422TIP3    H243682   5.827   3.430   0.748 -0.7541 -1.7305  1.7059
 7423TIP3   OH243683   4.485   1.618  14.140 -0.2430  0.4559  0.0497
 7423TIP3    H143684   4.429   1.545  14.113  0.5642  0.6260 -2.2577
 7423TIP3    H243685   4.530   1.585  14.219 -1.1005 -0.9191 -0.0096
 7424TIP3   OH243686   4.478   5.546  17.000 -0.4576 -0.7208  0.1609
 7424TIP3    H143687   4.498   5.619  17.059  2.1545 -0.7331 -0.5703
 7424TIP3    H243688   4.401   5.576  16.951  0.3498  1.4517  0.1028
 7425TIP3   OH243689   3.506   4.097  16.283  0.2807  0.3056 -0.1166
 7425TIP3    H143690   3.427   4.066  16.238 -0.8352  1.8383  0.6883
 7425TIP3    H243691   3.565   4.022  16.282 -1.3946 -1.0750 -0.3020
 7426TIP3   OH243692   4.887   2.215  14.369  0.6227 -0.4353  0.1367
 7426TIP3    H143693   4.889   2.184  14.278  0.4705 -1.1293  0.3651
 7426TIP3    H243694   4.961   2.275  14.375 -0.4275  1.0385 -0.9379
 7427TIP3   OH243695   0.332   1.752   0.754  0.0781 -0.0778 -0.1440
 7427TIP3    H143696   0.303   1.787   0.669  0.1006 -0.0404 -0.1365
 7427TIP3    H243697   0.411   1.802   0.774  1.7216 -1.9913 -1.4221
 7428TIP3   OH243698   5.890   3.898  15.628  0.0680 -0.5941 -0.3145
 7428TIP3    H143699   5.845   3.867  15.707  0.2644 -0.2035 -0.0428
 7428TIP3    H243700   5.931   3.820  15.591 -0.8661 -0.9610 -0.5888
 7429TIP3   OH243701   3.357   1.273   1.818 -0.4532  0.5662 -0.1538
 7429TIP3    H143702   3.405   1.352   1.842 -0.2175  0.0724  1.0602
 7429TIP3    H243703   3.289   1.303   1.757  0.5184  1.4741 -0.8198
 7430TIP3   OH243704   1.291   3.742   5.935  0.4812 -0.2987  0.0359
 7430TIP3    H143705   1.212   3.697   5.904 -0.4400  2.8680 -2.8273
 7430TIP3    H243706   1.264   3.783   6.018 -1.0938  0.9698 -1.0391
 7431TIP3   OH243707   2.067   1.390  14.249 -0.4639  0.2496  0.1098
 7431TIP3    H143708   2.032   1.478  14.238  1.0546  1.0353  1.3125
 7431TIP3    H243709   2.067   1.353  14.161 -0.9586  1.4910 -0.4275
 7432TIP3   OH243710   2.779   6.374   0.510 -0.0995 -0.6094  0.3000
 7432TIP3    H143711   2.812   6.312   0.576  0.5623 -0.0599  0.4909
 7432TIP3    H243712   2.814   6.459   0.537 -0.0574 -0.3308 -0.6013
 7433TIP3   OH243713   3.477   0.113  14.961  0.0055  0.9384  0.8046
 7433TIP3    H143714   3.453   0.194  14.917  0.3968  0.9514  0.6137
 7433TIP3    H243715   3.398   0.060  14.958 -0.2816  1.3524  1.0180
 7434TIP3   OH243716   4.446   2.830   2.012  0.5628  0.0517  0.0863
 7434TIP3    H143717   4.374   2.893   2.018  0.1557 -0.5486  2.5725
 7434TIP3    H243718   4.520   2.874   2.055  0.7411 -0.5292  0.3884
 7435TIP3   OH243719   6.061   5.027  15.932  0.2824  0.1205  0.4328
 7435TIP3    H143720   5.967   5.042  15.944 -0.2050 -0.7814 -1.7327
 7435TIP3    H243721   6.093   5.105  15.887  0.4350  0.1169  0.5329
 7436TIP3   OH243722   3.915   3.444  13.473  0.2384  0.2012 -0.4513
 7436TIP3    H143723   3.831   3.468  13.512 -0.3904 -2.2064 -0.1618
 7436TIP3    H243724   3.893   3.372  13.413  2.1615 -0.8826  0.0867
 7437TIP3   OH243725   2.318   1.919   5.312  0.1673 -0.1641  0.0938
 7437TIP3    H143726   2.294   1.833   5.279 -2.0524  0.4527 -0.0967
 7437TIP3    H243727   2.235   1.965   5.320  1.1760  1.5603  1.3539
 7438TIP3   OH243728   5.061   5.713  15.940  0.0600 -0.0810  0.3211
 7438TIP3    H143729   5.008   5.678  15.869  0.7654 -1.0872  0.2769
 7438TIP3    H243730   5.019   5.679  16.020  0.8855 -1.2910  0.2703
 7439TIP3   OH243731   6.583   6.326   4.414  0.3611 -0.0751  0.0498
 7439TIP3    H143732   6.573   6.383   4.338 -0.2912  0.8095  0.7706
 7439TIP3    H243733   6.670   6.345   4.448  0.0109  0.7736  0.4938
 7440TIP3   OH243734   5.134   2.586  11.761 -0.1623  0.2216  0.1099
 7440TIP3    H143735   5.222   2.550  11.753 -0.7770 -0.9932 -2.2418
 7440TIP3    H243736   5.103   2.592  11.671 -2.3657  0.9447  0.8587
 7441TIP3   OH243737   6.563   6.044  15.458 -0.6753 -0.2567  0.4769
 7441TIP3    H143738   6.521   6.129  15.463 -0.3021 -0.1247  1.5748
 7441TIP3    H243739   6.602   6.031  15.545  1.4951 -0.4021 -0.4510
 7442TIP3   OH243740   4.467   5.326   1.272  0.1568 -0.3892 -0.7328
 7442TIP3    H143741   4.457   5.286   1.359  0.7703 -1.0400 -0.9485
 7442TIP3    H243742   4.562   5.330   1.258  0.1384  1.6629 -0.5092
 7443TIP3   OH243743   2.203   2.261   0.244 -0.4712  0.1490  0.7499
 7443TIP3    H143744   2.186   2.350   0.275  0.8134  1.1325 -1.1837
 7443TIP3    H243745   2.119   2.231   0.209 -0.4106  1.5076 -0.6538
 7444TIP3   OH243746   5.270   6.290   5.235  0.0238  0.2844 -0.4975
 7444TIP3    H143747   5.179   6.294   5.206 -0.5091 -1.3184  0.8164
 7444TIP3    H243748   5.295   6.199   5.223  0.6767  0.1860  1.3540
 7445TIP3   OH243749   4.599   3.742   1.608  0.2124 -0.1424 -0.0474
 7445TIP3    H143750   4.688   3.756   1.577 -0.2612 -0.6257 -1.7317
 7445TIP3    H243751   4.571   3.660   1.566 -1.5692  0.8222 -0.8566
 7446TIP3   OH243752   2.267   4.440  11.322  0.2965 -0.4854 -1.0557
 7446TIP3    H143753   2.268   4.531  11.294  0.3929 -0.9149 -2.5196
 7446TIP3    H243754   2.176   4.412  11.308  0.4873 -0.8776 -1.5367
 7447TIP3   OH243755   5.036   0.112   4.727 -0.3177 -0.1345 -0.7616
 7447TIP3    H143756   4.994   0.163   4.658  0.9971  0.9882 -0.7790
 7447TIP3    H243757   4.978   0.121   4.803 -2.2956 -2.2057 -1.9273
 7448TIP3   OH243758   2.926   4.826  15.969 -0.2732  0.3494 -0.4610
 7448TIP3    H143759   2.910   4.920  15.980  0.2605  0.3257  0.6756
 7448TIP3    H243760   2.987   4.821  15.895  1.1813  1.0682  0.6373
 7449TIP3   OH243761   4.228   1.136  13.406 -0.4237  0.3636  0.2895
 7449TIP3    H143762   4.211   1.087  13.326 -0.2624  1.3730 -0.3763
 7449TIP3    H243763   4.301   1.090  13.447  0.4649  0.6762 -0.8919
 7450TIP3   OH243764   0.332   1.167   3.154  0.1246  0.3872 -0.5628
 7450TIP3    H143765   0.290   1.245   3.118  0.2825  0.9513  0.4267
 7450TIP3    H243766   0.404   1.148   3.094  0.5574  1.4697 -0.3970
 7451TIP3   OH243767   2.286   4.560   4.264 -0.4420 -0.1344  0.0802
 7451TIP3    H143768   2.267   4.477   4.308  0.5898  0.0463  0.8976
 7451TIP3    H243769   2.275   4.540   4.171 -0.1173 -1.2158  0.2561
 7452TIP3   OH243770   0.674   1.875  16.360 -0.2595 -0.0617 -0.1830
 7452TIP3    H143771   0.627   1.951  16.394 -2.5048 -1.3723 -0.1265
 7452TIP3    H243772   0.669   1.810  16.431 -0.7784 -1.1571 -1.1815
 7453TIP3   OH243773   3.094   1.259   4.295 -0.1424 -0.1863 -0.0655
 7453TIP3    H143774   3.061   1.242   4.383 -1.1444  1.8357  0.0127
 7453TIP3    H243775   3.177   1.213   4.291 -0.1796 -0.5012  1.8654
 7454TIP3   OH243776   0.521   2.167  16.855 -0.1700 -0.2895  0.5661
 7454TIP3    H143777   0.599   2.114  16.870  2.6725  3.3137  0.0339
 7454TIP3    H243778   0.495   2.196  16.943  0.8359  0.6791  0.5574
 7455TIP3   OH243779   2.680   4.334  15.787  0.8548  0.3018 -0.1927
 7455TIP3    H143780   2.602   4.308  15.738  0.2908  0.7212  0.4449
 7455TIP3    H243781   2.751   4.335  15.722  0.0308  1.3544 -1.1204
 7456TIP3   OH243782   5.711   5.350   6.492 -0.0323  0.1681 -0.2646
 7456TIP3    H143783   5.692   5.432   6.537  0.0033  0.2562 -0.4093
 7456TIP3    H243784   5.782   5.310   6.542  0.6251  0.6899 -0.7548
 7457TIP3   OH243785   5.736   1.804  11.606 -0.5048 -0.2121  0.8866
 7457TIP3    H143786   5.705   1.716  11.625 -0.8402 -0.0583  1.0570
 7457TIP3    H243787   5.660   1.860  11.621 -0.3503  0.0831  0.5819
 7458TIP3   OH243788   0.375   3.438   0.253  0.3383 -0.1264 -0.5861
 7458TIP3    H143789   0.457   3.391   0.236  0.0419 -0.7931 -0.1928
 7458TIP3    H243790   0.312   3.370   0.277 -0.9380  0.0867 -2.9527
 7459TIP3   OH243791   6.606   0.862  15.219  0.5026  0.5344  0.1840
 7459TIP3    H143792   6.594   0.767  15.230  2.8835  0.1196 -0.2165
 7459TIP3    H243793   6.657   0.888  15.295 -1.3905  1.8370  1.0721
 7460TIP3   OH243794   1.135   1.470   6.146 -0.2921 -0.2838  0.5568
 7460TIP3    H143795   1.131   1.542   6.209 -0.7124 -0.7611  1.0846
 7460TIP3    H243796   1.045   1.460   6.115 -0.3643 -1.0242  0.9930
 7461TIP3   OH243797   2.010   3.951  11.298  0.3922 -0.2321  0.0062
 7461TIP3    H143798   1.966   4.019  11.247  2.2665  0.3516 -0.9157
 7461TIP3    H243799   1.998   3.871  11.246 -0.7616 -0.3747  0.4733
 7462TIP3   OH243800   5.180   4.401   2.369 -0.7317 -0.0943 -0.4367
 7462TIP3    H143801   5.183   4.464   2.441  1.7469 -1.5308  0.8751
 7462TIP3    H243802   5.230   4.326   2.402 -2.0831 -2.0571 -2.5604
 7463TIP3   OH243803   6.463   3.871   4.175  0.0223  0.1619  0.4501
 7463TIP3    H143804   6.546   3.903   4.211  0.0268  1.1677 -0.3986
 7463TIP3    H243805   6.401   3.878   4.248  0.0246  2.1881  0.3129
 7464TIP3   OH243806   6.626   1.574   4.107 -0.5593  0.6577 -0.2041
 7464TIP3    H143807   6.613   1.657   4.061 -2.3811  0.0785 -0.8484
 7464TIP3    H243808   6.592   1.508   4.046  0.5033 -0.5277  0.4505
 7465TIP3   OH243809   2.135   5.368  17.053 -0.3740 -0.8684  0.8161
 7465TIP3    H143810   2.103   5.286  17.092  0.1868 -0.3560  2.4074
 7465TIP3    H243811   2.139   5.430  17.126  0.0569  0.3346 -0.1957
 7466TIP3   OH243812   5.377   4.608  10.840  0.5864  0.2720 -0.5896
 7466TIP3    H143813   5.285   4.627  10.860  0.3138 -0.7982 -0.7573
 7466TIP3    H243814   5.377   4.517  10.810  1.7613  0.1374 -0.2345
 7467TIP3   OH243815   2.214   1.657   2.554 -0.2025 -0.6518  0.3494
 7467TIP3    H143816   2.254   1.599   2.620  0.0629  0.0665  0.8361
 7467TIP3    H243817   2.127   1.620   2.540  0.4148 -1.9391 -0.3367
 7468TIP3   OH243818   2.112   1.659  11.341  0.0036  0.7148 -0.2113
 7468TIP3    H143819   2.098   1.682  11.249  0.4159  1.8242 -0.0080
 7468TIP3    H243820   2.031   1.616  11.367 -0.8823  2.0788 -0.5938
 7469TIP3   OH243821   3.183   0.859   6.006 -0.6343  0.2013 -0.2757
 7469TIP3    H143822   3.166   0.831   5.916  0.3778  2.0282 -1.0926
 7469TIP3    H243823   3.105   0.910   6.030 -0.7800 -0.0481 -0.2149
 7470TIP3   OH243824   4.798   6.666   6.117  0.1474 -0.2513  0.3113
 7470TIP3    H143825   4.868   6.639   6.057 -0.7825  0.3457 -1.0980
 7470TIP3    H243826   4.839   6.732   6.172  0.9667 -0.6375  0.1880
 7471TIP3   OH243827   3.931   0.449  14.860 -0.2867  0.1612  0.1364
 7471TIP3    H143828   3.976   0.499  14.928  0.7554 -0.4766 -0.0566
 7471TIP3    H243829   3.840   0.444  14.890 -0.0130  0.5843  1.0718
 7472TIP3   OH243830   0.112   3.310  11.733  0.0785 -0.1331  0.3043
 7472TIP3    H143831   0.091   3.296  11.640  1.2438 -0.6610  0.0941
 7472TIP3    H243832   0.182   3.375  11.731  0.1976 -0.2436  0.8101
 7473TIP3   OH243833   5.259   1.560  10.855 -0.0987  0.0742  0.7717
 7473TIP3    H143834   5.168   1.531  10.864 -0.0123 -1.2560 -1.7185
 7473TIP3    H243835   5.252   1.656  10.847 -1.1160  0.1253  1.9557
 7474TIP3   OH243836   6.419   3.502   5.538 -0.0328  0.4924  0.0517
 7474TIP3    H143837   6.430   3.582   5.487 -0.9600  1.1090  0.7821
 7474TIP3    H243838   6.501   3.492   5.586  0.4815  0.4205 -0.8267
 7475TIP3   OH243839   5.429   2.010  12.178  0.0461 -0.2371 -0.0834
 7475TIP3    H143840   5.344   2.005  12.135  1.5578 -1.5965 -3.2361
 7475TIP3    H243841   5.445   2.104  12.190 -1.7085  0.0461  0.2927
 7476TIP3   OH243842   3.486   4.206  16.613  0.2341  0.1363 -0.5481
 7476TIP3    H143843   3.526   4.233  16.530  0.3772  1.2459 -0.1356
 7476TIP3    H243844   3.392   4.209  16.597  0.2554  0.6603 -0.5772
 7477TIP3   OH243845   4.841   2.535  16.575 -0.0842 -0.4022  0.2119
 7477TIP3    H143846   4.852   2.441  16.564 -0.4663 -0.5488  1.0531
 7477TIP3    H243847   4.747   2.549  16.581 -0.0607  0.1012 -0.4454
 7478TIP3   OH243848   5.679   6.613  14.637  0.0654  0.4223 -0.4860
 7478TIP3    H143849   5.687   6.568  14.553  0.5208  0.5822 -0.5279
 7478TIP3    H243850   5.586   6.606  14.659  0.4431 -2.4507  0.5720
 7479TIP3   OH243851   1.249   4.715  11.943  0.0325  0.0683  0.4786
 7479TIP3    H143852   1.203   4.736  12.024 -1.5214  2.2429 -0.8552
 7479TIP3    H243853   1.180   4.684  11.884  0.7243  0.7600 -0.7384
 7480TIP3   OH243854   2.748   4.698   4.451  0.6050  0.5631 -0.3241
 7480TIP3    H143855   2.763   4.606   4.432  0.8896  0.7222 -0.8666
 7480TIP3    H243856   2.657   4.713   4.425  0.6269  0.4912 -0.4405
 7481TIP3   OH243857   0.225   1.285  10.505 -0.4111 -0.2662 -0.2581
 7481TIP3    H143858   0.276   1.257  10.428 -0.1671 -1.3048  0.2605
 7481TIP3    H243859   0.135   1.260  10.484 -0.0531 -2.5493  0.6389
 7482TIP3   OH243860   4.041   1.251   5.586  0.4733 -0.0237  0.0068
 7482TIP3    H143861   4.075   1.217   5.669 -1.7125  1.0933  1.4560
 7482TIP3    H243862   4.030   1.174   5.531  0.1646 -1.0540  1.4662
 7483TIP3   OH243863   1.268   3.277  14.278  0.2950 -0.2192 -0.0912
 7483TIP3    H143864   1.334   3.255  14.212  1.3340  1.9657  0.1511
 7483TIP3    H243865   1.302   3.238  14.359  0.0758 -1.1031 -0.4111
 7484TIP3   OH243866   3.053   5.405  14.920  0.0492 -0.0928  0.6824
 7484TIP3    H143867   2.970   5.449  14.936 -0.7532 -1.7070  1.2081
 7484TIP3    H243868   3.076   5.365  15.004  1.1929  0.0454  0.4565
 7485TIP3   OH243869   3.082   1.533   1.969  0.2888  0.3388  0.2644
 7485TIP3    H143870   3.127   1.611   1.937 -1.9909  1.5290 -0.3002
 7485TIP3    H243871   3.106   1.527   2.061  1.2911  1.1029  0.0731
 7486TIP3   OH243872   5.229   2.351   6.402  0.7559  0.1855 -0.0157
 7486TIP3    H143873   5.148   2.306   6.378 -0.1586  2.1110 -0.7548
 7486TIP3    H243874   5.239   2.333   6.496 -1.9509  1.9132  0.7174
 7487TIP3   OH243875   3.699   6.103  11.309 -0.4553 -1.0765  0.2194
 7487TIP3    H143876   3.641   6.152  11.251  0.7097  0.3811  0.2387
 7487TIP3    H243877   3.679   6.135  11.396  1.2096  0.4056  0.1150
 7488TIP3   OH243878   4.813   1.605  13.210  0.0657 -0.0286 -0.7288
 7488TIP3    H143879   4.905   1.630  13.200 -0.2831  1.2307 -0.9568
 7488TIP3    H243880   4.778   1.667  13.274 -0.9889  0.5419 -1.8097
 7489TIP3   OH243881   2.262   0.198  11.758  0.0565  0.0174  0.4643
 7489TIP3    H143882   2.235   0.110  11.785 -0.9151  0.5497  1.2826
 7489TIP3    H243883   2.228   0.207  11.668 -2.4365  0.5935  1.3896
 7490TIP3   OH243884   5.875   5.473   5.600 -0.3347 -0.1933  0.5585
 7490TIP3    H143885   5.873   5.437   5.689  2.4180 -0.8190  0.4429
 7490TIP3    H243886   5.961   5.515   5.593  0.5412 -2.2067 -2.5449
 7491TIP3   OH243887   6.671   1.465  17.216  0.4177  0.4779  0.2942
 7491TIP3    H143888   6.753   1.415  17.215 -0.0298 -0.2623 -0.3895
 7491TIP3    H243889   6.676   1.520  17.138 -0.8600 -1.4950 -1.2885
 7492TIP3   OH243890   1.773   0.470   3.079  0.4152  0.5541  0.1205
 7492TIP3    H143891   1.753   0.541   3.139 -1.9856 -0.1703  0.2749
 7492TIP3    H243892   1.763   0.509   2.992 -1.4879  0.3205  0.1979
 7493TIP3   OH243893   4.435   0.010  16.628 -0.2455  0.8226 -0.4923
 7493TIP3    H143894   4.425   0.103  16.612  0.1063  1.1487  1.0000
 7493TIP3    H243895   4.398  -0.032  16.551 -0.8421  2.1883 -0.9789
 7494TIP3   OH243896   2.398   6.237  15.993 -0.2432  0.1874  0.1490
 7494TIP3    H143897   2.419   6.203  16.080 -1.4120 -0.1597  0.3100
 7494TIP3    H243898   2.462   6.306  15.977  0.5844 -0.4021  0.8796
 7495TIP3   OH243899   3.827   5.005  11.282  0.0803 -0.2568  0.1984
 7495TIP3    H143900   3.778   4.926  11.307  1.7964 -0.7762  2.2073
 7495TIP3    H243901   3.847   5.048  11.365  1.7233  0.7255 -0.6578
 7496TIP3   OH243902   3.205   4.323   4.417 -0.1557 -0.6389  0.2828
 7496TIP3    H143903   3.237   4.239   4.449  0.1011 -1.1627 -1.2246
 7496TIP3    H243904   3.165   4.303   4.332  1.2699  0.9202 -0.8631
 7497TIP3   OH243905   4.232   2.265   5.704 -0.0355 -0.7183  0.3948
 7497TIP3    H143906   4.163   2.244   5.767  2.2737  1.2389  3.9617
 7497TIP3    H243907   4.229   2.361   5.698  1.9652 -0.6400  0.2179
 7498TIP3   OH243908   4.204   1.284  15.424  0.2602  0.2114 -0.4735
 7498TIP3    H143909   4.243   1.321  15.346  0.5094 -2.3153 -1.6627
 7498TIP3    H243910   4.244   1.197  15.432 -1.2596 -0.4030  1.2759
 7499TIP3   OH243911   1.356   4.233   2.988  0.3524 -0.0026 -0.6780
 7499TIP3    H143912   1.273   4.275   2.968  0.1249 -1.0804 -2.2320
 7499TIP3    H243913   1.415   4.304   3.012 -1.0801  0.7425  0.7638
 7500TIP3   OH243914   2.437   5.931  14.340 -0.1909  0.0216 -0.0094
 7500TIP3    H143915   2.522   5.905  14.377  0.0928  2.3526  1.1650
 7500TIP3    H243916   2.373   5.885  14.395  0.2871 -0.2094  0.3734
 7501TIP3   OH243917   0.307   1.793   3.362  0.4833  0.8441  0.5447
 7501TIP3    H143918   0.360   1.837   3.296 -0.8757  0.9841 -0.4947
 7501TIP3    H243919   0.343   1.705   3.368  2.0675  1.5051  1.3104
 7502TIP3   OH243920   2.000   3.802  12.430  0.4270 -0.1408 -0.0316
 7502TIP3    H143921   1.940   3.728  12.439 -0.1452  0.1831 -0.9906
 7502TIP3    H243922   1.951   3.866  12.377  1.7240 -0.0015 -1.1239
 7503TIP3   OH243923   6.330   4.857  15.634  0.3105  0.7177  0.3522
 7503TIP3    H143924   6.397   4.837  15.569  0.3247  3.5379 -0.6142
 7503TIP3    H243925   6.361   4.813  15.714  0.3447 -2.7340 -1.4002
 7504TIP3   OH243926   0.034   4.254   5.662 -0.1605  0.2036  0.2410
 7504TIP3    H143927  -0.044   4.202   5.679 -0.6771  0.2516 -1.7263
 7504TIP3    H243928   0.079   4.208   5.591  1.9651 -0.1675  1.7419
 7505TIP3   OH243929   6.169   4.069  11.010  0.0542 -0.8678 -0.4108
 7505TIP3    H143930   6.158   4.162  10.994  1.3274 -0.7324 -0.6193
 7505TIP3    H243931   6.183   4.031  10.923  2.5818 -0.7764 -0.1237
 7506TIP3   OH243932   2.223   6.730  16.830  0.0630 -0.0036  0.4244
 7506TIP3    H143933   2.159   6.795  16.800 -1.3706 -1.5972 -0.1304
 7506TIP3    H243934   2.286   6.781  16.881 -0.9595  1.8244 -0.0263
 7507TIP3   OH243935   5.483   6.226   4.156 -0.2940  0.2895 -0.4486
 7507TIP3    H143936   5.550   6.253   4.094 -1.0393  1.8391 -0.6128
 7507TIP3    H243937   5.400   6.236   4.109 -0.8322  0.9453  0.5889
 7508TIP3   OH243938   0.858   2.115   2.035  0.3530  0.3778  0.1995
 7508TIP3    H143939   0.935   2.122   1.978 -1.1234  0.8618 -1.8576
 7508TIP3    H243940   0.856   2.023   2.062 -0.1722 -0.4792 -2.5028
 7509TIP3   OH243941   5.612   5.100   4.879 -0.2608  0.0523 -0.2146
 7509TIP3    H143942   5.532   5.052   4.898 -0.6623  0.8331  0.1130
 7509TIP3    H243943   5.607   5.117   4.785  0.0254 -0.7814 -0.3892
 7510TIP3   OH243944   2.992   6.106   2.404  0.0530  0.0052 -0.2169
 7510TIP3    H143945   3.061   6.070   2.460  0.6475 -0.1107 -1.0014
 7510TIP3    H243946   2.961   6.031   2.353 -0.6192  0.0709  0.0914
 7511TIP3   OH243947   4.833   0.414   2.962  0.0419  0.5684  0.0185
 7511TIP3    H143948   4.756   0.463   2.990  1.5352  2.5010  1.0651
 7511TIP3    H243949   4.878   0.473   2.901  0.8034 -0.4077 -0.3918
 7512TIP3   OH243950   2.413   1.010   0.151 -0.3392 -0.3102  0.3650
 7512TIP3    H143951   2.444   0.924   0.124 -1.4764 -1.2126  1.7706
 7512TIP3    H243952   2.480   1.071   0.120  1.6849 -1.9230  1.3672
 7513TIP3   OH243953   2.798   1.630   5.751  0.5983 -0.5585 -0.2050
 7513TIP3    H143954   2.786   1.707   5.808  0.2765 -0.6076 -0.2033
 7513TIP3    H243955   2.718   1.579   5.763  2.0850 -2.4995  2.1991
 7514TIP3   OH243956   3.977   5.167  15.094  0.2939 -0.1516  0.2500
 7514TIP3    H143957   3.938   5.213  15.019 -1.6799 -1.3929  0.4298
 7514TIP3    H243958   4.062   5.209  15.107  0.2442  0.7969 -2.0250
 7515TIP3   OH243959   2.792   3.037  13.213  0.1073 -0.0861 -0.8579
 7515TIP3    H143960   2.802   3.114  13.269 -1.6516 -0.2915 -0.2170
 7515TIP3    H243961   2.804   3.071  13.124 -1.3875  1.0953 -0.6424
 7516TIP3   OH243962   6.599   5.142   2.738 -0.2865 -0.0208  0.4025
 7516TIP3    H143963   6.693   5.160   2.728  0.3600 -2.9435  0.5239
 7516TIP3    H243964   6.560   5.171   2.656  0.8159  0.6022  0.0804
 7517TIP3   OH243965   0.495   4.565  10.809  1.1293  1.0369 -0.0917
 7517TIP3    H143966   0.410   4.607  10.819  1.0275  1.0571 -0.9837
 7517TIP3    H243967   0.476   4.471  10.805  1.2027  1.0067  0.2116
 7518TIP3   OH243968   5.620   2.532   0.175 -0.0330 -0.7228 -0.2385
 7518TIP3    H143969   5.571   2.514   0.094 -0.2673 -0.9961 -0.0407
 7518TIP3    H243970   5.555   2.572   0.233  0.1212 -0.5777 -0.1657
 7519TIP3   OH243971   5.431   2.508  11.841 -0.6014 -0.1535 -0.3003
 7519TIP3    H143972   5.411   2.438  11.903  1.0565  0.4210  0.9501
 7519TIP3    H243973   5.510   2.478  11.797 -0.6609  0.3308 -0.7377
 7520TIP3   OH243974   4.155   3.854   4.687  0.5670 -1.0175  0.3994
 7520TIP3    H143975   4.227   3.792   4.684  1.1757 -0.2918 -0.2397
 7520TIP3    H243976   4.161   3.893   4.774  2.0267  0.2702 -0.2329
 7521TIP3   OH243977   5.381   3.280   2.401  0.2216  0.3129 -0.1554
 7521TIP3    H143978   5.375   3.373   2.380  1.9969  1.4200  3.4976
 7521TIP3    H243979   5.465   3.252   2.364  0.8120  0.8325  0.7574
 7522TIP3   OH243980   2.113   3.515   5.769  0.3268  0.2581 -0.2739
 7522TIP3    H143981   2.033   3.489   5.723 -0.3818  0.6381  0.7019
 7522TIP3    H243982   2.179   3.453   5.738 -0.6108 -0.8039 -0.2513
 7523TIP3   OH243983   2.730   2.843  11.829 -0.0779  0.2833  0.5221
 7523TIP3    H143984   2.688   2.782  11.769  0.4783  0.6632 -0.2785
 7523TIP3    H243985   2.661   2.868  11.890 -0.8932  0.4884 -0.4439
 7524TIP3   OH243986   5.067   6.580  12.950 -0.1001  0.7995  0.0904
 7524TIP3    H143987   5.007   6.574  12.874 -3.0484 -1.8283  2.3368
 7524TIP3    H243988   5.146   6.536  12.921 -1.5522 -1.1259 -1.2549
 7525TIP3   OH243989   3.853   4.305   1.652  0.1974 -0.0646 -0.3203
 7525TIP3    H143990   3.948   4.318   1.656  0.3098 -1.0872  0.8846
 7525TIP3    H243991   3.823   4.319   1.742 -0.8495  0.5244 -0.7408
 7526TIP3   OH243992   6.483   1.085   1.484 -0.2183 -0.2669 -0.3502
 7526TIP3    H143993   6.522   1.060   1.568  0.5625  1.7278 -0.0666
 7526TIP3    H243994   6.392   1.107   1.505  0.3816  1.8074  0.3644
 7527TIP3   OH243995   6.440   6.403   0.345  0.3695  0.5474  0.2412
 7527TIP3    H143996   6.434   6.313   0.313  0.9834  0.7924 -0.5792
 7527TIP3    H243997   6.509   6.400   0.412 -0.0741  0.2839  0.6982
 7528TIP3   OH243998   5.862   1.765   5.421  0.0522 -0.1278  0.6298
 7528TIP3    H143999   5.944   1.805   5.450 -0.3479  2.0141 -0.9040
 7528TIP3    H244000   5.794   1.826   5.451 -0.6961 -0.2759 -0.6930
 7529TIP3   OH244001   6.468   2.356  16.930  0.8130  0.0245  0.2687
 7529TIP3    H144002   6.508   2.333  17.014  0.3357 -2.8505 -0.1894
 7529TIP3    H244003   6.387   2.401  16.954  1.8438  1.4516  1.2525
 7530TIP3   OH244004   1.127   4.695  11.658 -0.2756  0.6951 -0.1791
 7530TIP3    H144005   1.082   4.747  11.725  2.0395  0.7399  1.4714
 7530TIP3    H244006   1.165   4.759  11.598 -0.8489  0.7252 -0.5153
 7531TIP3   OH244007   6.457   1.153  12.680 -0.0330 -0.0854  0.2808
 7531TIP3    H144008   6.387   1.212  12.706 -0.5357 -0.8749  0.7733
 7531TIP3    H244009   6.465   1.091  12.753  0.6352 -0.4909 -0.1184
 7532TIP3   OH244010   4.896   3.146   6.486 -0.1124  0.1232  0.4715
 7532TIP3    H144011   4.829   3.175   6.548 -0.3893  2.1439 -0.6724
 7532TIP3    H244012   4.974   3.196   6.509 -0.4136  1.4470 -1.1538
 7533TIP3   OH244013   0.114   0.598   0.137 -0.0523  0.1119 -0.1174
 7533TIP3    H144014   0.057   0.589   0.213 -0.9607 -0.9508 -0.8788
 7533TIP3    H244015   0.088   0.525   0.080  1.9372 -0.2857 -0.5835
 7534TIP3   OH244016   5.553   5.112   3.791  0.2622  0.9324  0.3657
 7534TIP3    H144017   5.505   5.099   3.709  1.4761 -1.8874 -0.0250
 7534TIP3    H244018   5.613   5.184   3.773  0.1775  0.6729 -1.0902
 7535TIP3   OH244019   6.707   0.472   3.059  0.2676 -0.4494  0.0961
 7535TIP3    H144020   6.796   0.482   3.093  0.0961 -0.0820  0.4426
 7535TIP3    H244021   6.717   0.411   2.985  1.0678  0.8613 -0.9266
 7536TIP3   OH244022   3.684   5.394  16.457 -0.0400 -0.4909 -0.4999
 7536TIP3    H144023   3.759   5.438  16.417  0.1693  3.0783  3.2244
 7536TIP3    H244024   3.608   5.429  16.411  0.2866  1.9707  0.6925
 7537TIP3   OH244025   3.766   6.186  10.323  0.2169  0.0648  0.5075
 7537TIP3    H144026   3.780   6.174  10.229 -0.6440  1.8848  0.1049
 7537TIP3    H244027   3.811   6.267  10.344  1.6188 -1.0342  2.0102
 7538TIP3   OH244028   2.331   0.347   4.691 -0.3959  0.6363 -0.7928
 7538TIP3    H144029   2.332   0.442   4.679  0.8212  0.5204 -1.8488
 7538TIP3    H244030   2.417   0.326   4.728 -1.1954  0.0783  0.8638
 7539TIP3   OH244031   5.465   1.158   2.542  0.4912  0.1911 -0.3924
 7539TIP3    H144032   5.556   1.184   2.528  0.5519  0.5832  0.6360
 7539TIP3    H244033   5.466   1.063   2.533  0.7924  0.2844 -1.4457
 7540TIP3   OH244034   1.232   4.665  15.483 -0.1303 -0.4627  0.2318
 7540TIP3    H144035   1.159   4.725  15.494  1.5940  1.4320  3.0026
 7540TIP3    H244036   1.227   4.607  15.559  0.4987 -1.1443 -0.2295
 7541TIP3   OH244037   6.594   6.229   2.704 -0.0955  0.2433  0.4219
 7541TIP3    H144038   6.546   6.146   2.712 -2.2754  1.4597  0.9952
 7541TIP3    H244039   6.599   6.244   2.610 -1.0647  0.1711  0.3427
 7542TIP3   OH244040   3.478   0.607  11.411 -0.0279 -0.1941 -0.1430
 7542TIP3    H144041   3.415   0.539  11.387  1.8057 -1.6663 -1.1441
 7542TIP3    H244042   3.466   0.676  11.346 -1.1046 -0.0873  0.1538
 7543TIP3   OH244043   3.821   2.525  15.312 -0.0353 -0.1583 -0.0391
 7543TIP3    H144044   3.893   2.482  15.358 -0.7944  0.6942  2.0286
 7543TIP3    H244045   3.801   2.602  15.364  0.1173  1.8373 -2.7085
 7544TIP3   OH244046   2.752   1.171  14.772 -0.1675  0.2510  0.4285
 7544TIP3    H144047   2.662   1.204  14.763 -0.3796 -0.6257 -1.0556
 7544TIP3    H244048   2.751   1.122  14.854 -1.0724  0.2503  0.4333
 7545TIP3   OH244049   1.637   2.461   4.966  0.2629  0.2387  0.3049
 7545TIP3    H144050   1.682   2.544   4.952 -0.0952  0.1975 -1.2797
 7545TIP3    H244051   1.568   2.459   4.900 -0.2095 -0.9932  0.7968
 7546TIP3   OH244052   4.127   4.928  11.221 -0.4818 -0.3087 -0.1131
 7546TIP3    H144053   4.065   4.981  11.272  2.3527  1.7810  1.4149
 7546TIP3    H244054   4.206   4.925  11.274  0.9595 -2.4537 -2.1748
 7547TIP3   OH244055   4.673   2.459  11.724  0.3736 -1.0329 -0.6883
 7547TIP3    H144056   4.628   2.375  11.711  1.6786 -1.8863  0.0681
 7547TIP3    H244057   4.616   2.509  11.782 -0.2536 -1.5363 -0.8630
 7548TIP3   OH244058   0.316   4.640   0.999 -0.2579 -0.1571  0.1840
 7548TIP3    H144059   0.348   4.727   1.023 -1.3540  0.7603 -1.4660
 7548TIP3    H244060   0.276   4.652   0.913 -1.0767 -2.1551  0.2245
 7549TIP3   OH244061   0.037   4.700   4.795 -0.2385 -0.2208 -0.3435
 7549TIP3    H144062   0.046   4.709   4.890  0.0439 -1.0032 -0.2840
 7549TIP3    H244063   0.085   4.774   4.759 -3.3765  2.2639  0.1435
 7550TIP3   OH244064   6.029   3.552  16.266 -0.5370 -0.3000  0.2941
 7550TIP3    H144065   5.966   3.614  16.302 -1.9166 -0.9136 -0.9722
 7550TIP3    H244066   5.976   3.492  16.213  1.2288 -0.1683 -1.7356
 7551TIP3   OH244067   3.392   6.184   6.364  0.0556  0.0516 -0.4764
 7551TIP3    H144068   3.435   6.211   6.445 -1.1976 -0.9001  0.5598
 7551TIP3    H244069   3.326   6.252   6.349 -0.4462 -0.3283 -0.0597
 7552TIP3   OH244070   4.884   2.990   6.258 -0.1132 -0.5017  0.9090
 7552TIP3    H144071   4.885   2.909   6.308  0.2183 -0.6542  0.6594
 7552TIP3    H244072   4.895   3.059   6.324 -2.7915 -0.4538  1.4519
 7553TIP3   OH244073   5.653   0.845   2.398  0.0292  0.4640 -0.1282
 7553TIP3    H144074   5.610   0.905   2.337  1.1046 -0.6788 -2.1295
 7553TIP3    H244075   5.626   0.875   2.484 -0.0475  3.3627 -1.0545
 7554TIP3   OH244076   3.017   1.638  14.396  0.1817 -0.3994 -1.2176
 7554TIP3    H144077   3.009   1.545  14.373 -0.2650 -0.2598 -1.6336
 7554TIP3    H244078   3.059   1.637  14.481 -0.3914 -1.0115 -0.9283
 7555TIP3   OH244079   5.631   5.603  13.159  0.3886 -0.3228 -0.0313
 7555TIP3    H144080   5.659   5.550  13.084 -1.8693 -0.8486 -0.5778
 7555TIP3    H244081   5.536   5.592  13.162  0.0547  2.1557  1.0586
 7556TIP3   OH244082   4.867   4.325   0.229  0.0117 -0.8121  0.6819
 7556TIP3    H144083   4.789   4.293   0.184 -0.1486  0.6100 -0.0913
 7556TIP3    H244084   4.870   4.274   0.310 -0.3440 -2.6050 -0.3762
 7557TIP3   OH244085   3.104   1.907  10.248 -0.1124 -0.7365 -0.2890
 7557TIP3    H144086   3.190   1.936  10.278 -0.6418 -0.5154  1.0939
 7557TIP3    H244087   3.051   1.987  10.242 -0.3258 -0.9087 -0.8072
 7558TIP3   OH244088   3.656   2.310  13.162 -0.0903  0.8040 -0.1200
 7558TIP3    H144089   3.715   2.363  13.109  1.9215  0.4697  1.6164
 7558TIP3    H244090   3.694   2.222  13.160 -1.4088  0.2162 -0.1773
 7559TIP3   OH244091   5.807   5.010   0.671  0.2783  0.0515  0.2633
 7559TIP3    H144092   5.829   4.952   0.598  1.0037  0.8466 -0.1639
 7559TIP3    H244093   5.716   5.035   0.655  0.0791 -0.6569  0.2473
 7560TIP3   OH244094   5.801   6.545   1.264 -0.9764 -0.2661 -0.2406
 7560TIP3    H144095   5.894   6.522   1.262 -1.2500 -1.5459  0.7915
 7560TIP3    H244096   5.761   6.482   1.325 -2.6624 -0.2582 -1.2637
 7561TIP3   OH244097   0.535   1.846   1.218 -0.0007 -0.3129 -0.5016
 7561TIP3    H144098   0.490   1.816   1.139  0.2214 -1.9633 -0.0507
 7561TIP3    H244099   0.613   1.792   1.223  0.7571  0.7949  0.0733
 7562TIP3   OH244100   1.481   1.779   6.085 -0.5632 -0.1069  0.4590
 7562TIP3    H144101   1.392   1.788   6.120 -0.4093  0.9323  0.6146
 7562TIP3    H244102   1.500   1.865   6.045  0.7662  0.0552  1.3885
 7563TIP3   OH244103   4.329   4.039   5.701 -0.0080  0.0004 -0.2425
 7563TIP3    H144104   4.391   4.060   5.631  1.1761 -1.7429  0.2312
 7563TIP3    H244105   4.247   4.080   5.673  0.3867 -0.7313 -2.7238
 7564TIP3   OH244106   4.990   5.009  10.873 -0.0611 -0.3684  0.0746
 7564TIP3    H144107   4.933   5.077  10.838 -0.7144 -0.7398  0.4023
 7564TIP3    H244108   5.061   5.001  10.809 -0.0898  0.4745 -0.0648
 7565TIP3   OH244109   1.251   5.111  13.713  0.0671 -0.1339 -0.0487
 7565TIP3    H144110   1.271   5.024  13.680  0.6141  0.0259 -0.1467
 7565TIP3    H244111   1.170   5.100  13.764  0.4146 -0.7957  0.3679
 7566TIP3   OH244112   2.226   2.067  13.209 -0.1593 -0.0541 -0.5100
 7566TIP3    H144113   2.133   2.058  13.228  0.0500 -3.3754 -0.3341
 7566TIP3    H244114   2.235   2.037  13.119  0.7692 -0.0649 -0.4236
 7567TIP3   OH244115   5.158   1.832   5.484  0.0786 -0.1202 -0.7881
 7567TIP3    H144116   5.248   1.831   5.453  0.3829 -2.0883  0.0005
 7567TIP3    H244117   5.143   1.744   5.519 -2.7372 -0.4956 -2.5711
 7568TIP3   OH244118   0.784   0.352   0.531 -0.3241 -0.1597  0.0800
 7568TIP3    H144119   0.718   0.326   0.467  0.1165  2.2327 -1.4463
 7568TIP3    H244120   0.733   0.370   0.610 -0.9453 -2.4707  0.3027
 7569TIP3   OH244121   4.217   4.003   2.616  0.6146  0.3043 -0.0909
 7569TIP3    H144122   4.198   4.026   2.526  0.9140  0.3224 -0.1497
 7569TIP3    H244123   4.217   4.087   2.663  0.3053  0.2805 -0.0417
 7570TIP3   OH244124   1.670   5.707   4.328  0.1231  0.0974 -0.1265
 7570TIP3    H144125   1.616   5.713   4.250  1.8650  1.5545 -1.3053
 7570TIP3    H244126   1.688   5.798   4.352 -2.0411 -0.1942  3.2887
 7571TIP3   OH244127   5.848   6.330   0.695  0.0360  0.4234 -0.1813
 7571TIP3    H144128   5.906   6.256   0.675  0.7825  1.4495 -2.1161
 7571TIP3    H244129   5.901   6.407   0.673 -1.0902  1.4927  0.7776
 7572TIP3   OH244130   2.826   4.114   2.134 -0.9491 -0.3552  0.2837
 7572TIP3    H144131   2.747   4.146   2.177 -1.0392 -0.9550  0.5742
 7572TIP3    H244132   2.840   4.027   2.171 -0.2196 -0.3035  0.1473
 7573TIP3   OH244133   5.119   6.189   2.455  0.1736 -0.2621  0.1070
 7573TIP3    H144134   5.091   6.246   2.384 -2.0391  2.5021  2.9345
 7573TIP3    H244135   5.154   6.249   2.521  2.5576 -2.7256  1.2875
 7574TIP3   OH244136   0.978   3.083  16.372 -0.5017 -0.0929 -0.2766
 7574TIP3    H144137   0.938   3.084  16.285  0.6545  0.1424 -0.8247
 7574TIP3    H244138   1.001   2.992  16.388 -2.3363 -0.4420  0.5774
 7575TIP3   OH244139   4.966   6.069   0.872  0.0287  0.0361 -0.0175
 7575TIP3    H144140   4.947   5.978   0.894 -0.0812  0.0502 -0.0498
 7575TIP3    H244141   5.061   6.074   0.865 -0.0253 -0.3968 -1.4211
 7576TIP3   OH244142   4.158   4.875   2.000 -1.0266 -0.1032  0.1884
 7576TIP3    H144143   4.141   4.812   2.069  2.4990  1.5360  2.8521
 7576TIP3    H244144   4.239   4.845   1.959 -1.4783  0.5741 -1.2878
 7577TIP3   OH244145   4.370   3.790   5.153 -0.1572  0.0113 -0.1894
 7577TIP3    H144146   4.429   3.743   5.094  0.0404 -0.4275  0.3504
 7577TIP3    H244147   4.401   3.767   5.241 -1.2127 -0.3350  0.1058
 7578TIP3   OH244148   2.727   0.056  11.910 -0.0135 -0.0521  0.2318
 7578TIP3    H144149   2.727   0.046  11.815  1.1174 -0.7331  0.2915
 7578TIP3    H244150   2.677   0.136  11.926  0.6468  0.6237 -1.0037
 7579TIP3   OH244151   1.809   0.639   5.591 -0.7490  0.5243 -0.2877
 7579TIP3    H144152   1.848   0.655   5.677  0.1168  1.9136 -0.8944
 7579TIP3    H244153   1.746   0.569   5.605  1.3223 -1.2093  0.9360
 7580TIP3   OH244154   3.950   0.686   2.481 -0.1995  0.2027  0.7717
 7580TIP3    H144155   4.027   0.684   2.424  0.4777 -0.8438  1.6726
 7580TIP3    H244156   3.986   0.702   2.568 -0.9750 -0.4833  1.2326
 7581TIP3   OH244157   3.549   3.444   0.015 -0.3824 -0.3350 -0.1622
 7581TIP3    H144158   3.547   3.535   0.043 -1.1709 -0.9350  1.9098
 7581TIP3    H244159   3.591   3.446  -0.071 -0.7706  2.0091 -0.3525
 7582TIP3   OH244160   2.412   6.008   3.654 -0.4189  0.0350  0.6325
 7582TIP3    H144161   2.475   5.955   3.704  1.9309  0.9910 -1.1189
 7582TIP3    H244162   2.328   5.965   3.669  0.5960 -1.3436  3.0837
 7583TIP3   OH244163   0.649   1.008   4.251 -0.2042  0.1290 -0.1142
 7583TIP3    H144164   0.593   1.072   4.206 -0.5671  0.3630  0.6502
 7583TIP3    H244165   0.620   1.011   4.342 -1.3840 -2.3625 -0.3445
 7584TIP3   OH244166   4.499   2.165  12.423  0.0471  0.8463 -0.5994
 7584TIP3    H144167   4.514   2.126  12.509 -1.1511  1.1930 -0.1987
 7584TIP3    H244168   4.457   2.249  12.442  0.4724  1.2831 -1.5081
 7585TIP3   OH244169   0.061   4.022   4.989  0.4889 -0.3101  0.0634
 7585TIP3    H144170   0.004   4.008   5.064 -1.4668  0.9394 -1.1056
 7585TIP3    H244171   0.111   4.100   5.010  0.7468 -0.5842  0.4898
 7586TIP3   OH244172   5.360   0.252  17.226 -0.9001 -0.4219  0.0903
 7586TIP3    H144173   5.303   0.330  17.231 -1.1919 -0.6316  0.0430
 7586TIP3    H244174   5.438   0.282  17.179  0.5405  0.7920  2.9575
 7587TIP3   OH244175   5.907   1.462  11.202  0.1454 -0.5601  0.3320
 7587TIP3    H144176   5.835   1.511  11.241  0.1126 -1.5960  1.6966
 7587TIP3    H244177   5.978   1.526  11.193 -0.8382  0.4023 -0.7719
 7588TIP3   OH244178   6.260   2.012  13.363  0.3040  0.2271  0.0389
 7588TIP3    H144179   6.291   2.066  13.436  1.8630  0.3043 -0.6488
 7588TIP3    H244180   6.340   1.975  13.325 -0.4414  0.3991 -1.7962
 7589TIP3   OH244181   0.513   1.906  14.168 -0.3446 -0.5032 -0.0250
 7589TIP3    H144182   0.450   1.941  14.104  2.0451  0.5389 -1.9855
 7589TIP3    H244183   0.538   1.981  14.221 -2.1093 -1.3126  2.0873
 7590TIP3   OH244184   0.385   0.154   3.558  0.2384  0.5213 -0.5626
 7590TIP3    H144185   0.444   0.088   3.522 -0.7479  1.8142 -5.3205
 7590TIP3    H244186   0.438   0.233   3.564  0.0159  0.6797 -0.6676
 7591TIP3   OH244187   6.010   0.938  14.852  0.4682 -0.3073 -0.0787
 7591TIP3    H144188   6.025   0.868  14.788 -0.3672  0.8884 -1.6449
 7591TIP3    H244189   5.928   0.913  14.895 -0.2715  0.1065 -1.2184
 7592TIP3   OH244190   1.864   2.094  16.892 -0.2790 -0.3628 -0.3208
 7592TIP3    H144191   1.772   2.121  16.886 -0.2418 -0.0014  0.5610
 7592TIP3    H244192   1.913   2.164  16.849 -0.2464  0.6481  1.2689
 7593TIP3   OH244193   4.865   6.538  11.793  0.1397  1.3187 -0.1603
 7593TIP3    H144194   4.876   6.632  11.775 -0.0884  0.9577 -2.5609
 7593TIP3    H244195   4.825   6.503  11.713 -0.3378 -0.7428  0.9110
 7594TIP3   OH244196   0.898   6.714   0.557 -0.6416  0.0134  0.4609
 7594TIP3    H144197   0.985   6.688   0.528 -0.8792  1.3004 -1.6204
 7594TIP3    H244198   0.892   6.681   0.646  1.6083 -0.9200  0.3434
 7595TIP3   OH244199   1.900   4.881  16.138  0.3633  0.1491  0.0346
 7595TIP3    H144200   1.921   4.943  16.068  0.6999 -1.8676 -1.7641
 7595TIP3    H244201   1.958   4.906  16.210  0.5287  1.8528 -0.6499
 7596TIP3   OH244202   0.091   1.949  14.210 -0.0686 -0.0660  1.2299
 7596TIP3    H144203   0.150   1.940  14.285 -0.0328  0.1217  1.2243
 7596TIP3    H244204   0.148   1.940  14.134  0.2285  1.7075  1.2046
 7597TIP3   OH244205   3.038   1.747  13.889 -0.6338  0.3310  0.1144
 7597TIP3    H144206   3.103   1.818  13.891  0.3031 -0.4743 -0.7455
 7597TIP3    H244207   2.960   1.788  13.851 -0.5797  1.2528  0.9389
 7598TIP3   OH244208   0.667   2.236   1.686  0.0907  0.4090 -0.3532
 7598TIP3    H144209   0.626   2.240   1.773  0.8347 -3.0430  0.2876
 7598TIP3    H244210   0.593   2.226   1.626 -0.3172 -2.3580  0.4724
 7599TIP3   OH244211   6.287   6.223  13.495  0.0378 -0.4538  0.5081
 7599TIP3    H144212   6.276   6.156  13.564  1.5277 -0.8359  0.4092
 7599TIP3    H244213   6.329   6.296  13.540  1.3231 -0.8314 -0.0305
 7600TIP3   OH244214   3.682   4.259   2.416  0.1651 -0.5643  0.2071
 7600TIP3    H144215   3.619   4.197   2.381 -0.1980  0.1630 -0.4712
 7600TIP3    H244216   3.645   4.286   2.500 -0.2094 -0.4899  0.0236
 7601TIP3   OH244217   3.447   0.841   3.091  0.2526 -0.2584 -0.0566
 7601TIP3    H144218   3.501   0.839   3.171 -0.4317 -0.0801  0.4116
 7601TIP3    H244219   3.504   0.881   3.025 -0.1311  2.2599  1.0605
 7602TIP3   OH244220   6.007   0.022   0.268 -0.3410 -0.5642 -0.1054
 7602TIP3    H144221   5.993  -0.024   0.351  0.9509 -0.8820 -0.0507
 7602TIP3    H244222   6.011   0.115   0.294 -1.0598 -0.5593  0.0254
 7603TIP3   OH244223   0.904   2.277  13.026  0.2636  0.0009  0.3545
 7603TIP3    H144224   0.848   2.300  13.100 -0.3359 -1.6829  0.4722
 7603TIP3    H244225   0.986   2.247  13.067  1.1510  2.0686  0.1976
 7604TIP3   OH244226   1.167   2.565   4.704 -0.4022  0.1811  0.6482
 7604TIP3    H144227   1.109   2.555   4.780  0.1282 -0.5289  0.9700
 7604TIP3    H244228   1.206   2.652   4.715 -0.2496  0.0418  1.2592
 7605TIP3   OH244229   6.614   4.377  13.246  0.2483  0.7920  0.4498
 7605TIP3    H144230   6.543   4.321  13.214 -0.1544  0.5258  1.7347
 7605TIP3    H244231   6.578   4.417  13.325  1.6694  0.3123  1.3815
 7606TIP3   OH244232   4.547   3.999   3.729 -0.1352 -0.0115  0.5816
 7606TIP3    H144233   4.522   3.953   3.810 -0.7778  0.0167  0.4087
 7606TIP3    H244234   4.506   4.085   3.738 -0.6842 -0.2010 -0.0159
 7607TIP3   OH244235   5.118   5.501  11.123 -0.2229 -0.4328  0.1928
 7607TIP3    H144236   5.061   5.434  11.086 -0.5528 -0.6087  1.0023
 7607TIP3    H244237   5.171   5.531  11.049  0.1662 -1.8114 -0.1275
 7608TIP3   OH244238   6.175   4.371  14.342  0.3157 -0.2406  0.1175
 7608TIP3    H144239   6.206   4.460  14.359 -0.1782 -0.3146  1.6257
 7608TIP3    H244240   6.100   4.361  14.401 -1.4246 -0.7106 -2.0689
 7609TIP3   OH244241   6.107   0.773  13.262  0.0138  0.1990 -0.7553
 7609TIP3    H144242   6.048   0.844  13.237  0.2746  0.2178 -1.3527
 7609TIP3    H244243   6.180   0.780  13.200  0.3002 -0.2570 -0.4747
 7610TIP3   OH244244   5.971   2.904   4.642  0.0318  0.1645 -0.4991
 7610TIP3    H144245   6.060   2.919   4.672 -0.1660  0.0177  0.1935
 7610TIP3    H244246   5.960   2.809   4.647 -0.1907  0.1887 -0.5087
 7611TIP3   OH244247   6.001   1.985   3.651 -0.1932 -0.0649 -0.1962
 7611TIP3    H144248   5.962   2.045   3.588  1.0641 -0.5159 -1.4481
 7611TIP3    H244249   6.085   1.961   3.613 -0.1257 -1.6644  0.8597
 7612TIP3   OH244250   1.106   6.747   5.057  0.1440  0.0147 -0.5201
 7612TIP3    H144251   1.122   6.802   4.980  0.1563  1.9567  0.7830
 7612TIP3    H244252   1.189   6.748   5.105  0.0067 -0.8003 -0.2634
 7613TIP3   OH244253   0.759   1.135  15.326 -0.2935  0.2848  0.1025
 7613TIP3    H144254   0.837   1.156  15.274 -0.7291  0.2728 -0.5656
 7613TIP3    H244255   0.705   1.213  15.320 -0.7850 -0.0786 -0.2839
 7614TIP3   OH244256   1.954   4.465  16.723  0.3089  0.5329 -0.0086
 7614TIP3    H144257   2.005   4.504  16.793  0.2127 -1.5035  1.2925
 7614TIP3    H244258   1.910   4.390  16.764 -1.3898  0.4731 -1.7702
 7615TIP3   OH244259   2.652   0.218   2.507 -0.1305  0.8624  0.3952
 7615TIP3    H144260   2.719   0.247   2.568  0.1672 -1.1714  1.1157
 7615TIP3    H244261   2.696   0.218   2.422  0.5984  0.2230  0.7577
 7616TIP3   OH244262   2.850   1.514   1.038 -0.0196  0.2713  0.5064
 7616TIP3    H144263   2.909   1.443   1.012  2.1751  1.8614  0.9222
 7616TIP3    H244264   2.821   1.553   0.955 -2.4450 -1.9006  0.1906
 7617TIP3   OH244265   4.955   3.587  15.391 -0.5621 -0.3060 -0.2580
 7617TIP3    H144266   5.031   3.530  15.383 -1.5029 -1.8983  1.1695
 7617TIP3    H244267   4.990   3.676  15.392  1.4484 -1.0252  1.8094
 7618TIP3   OH244268   3.099   5.234   1.961  0.1478 -0.0944  0.3532
 7618TIP3    H144269   3.054   5.315   1.985  1.4748  0.4963  1.0103
 7618TIP3    H244270   3.157   5.260   1.889  2.8523  0.3694  2.5283
 7619TIP3   OH244271   1.487   6.741  13.669 -0.0890  0.3729 -0.5205
 7619TIP3    H144272   1.537   6.688  13.731 -0.3598  0.2115 -0.4358
 7619TIP3    H244273   1.550   6.767  13.602  0.2615  0.7631 -0.0409
 7620TIP3   OH244274   2.422   5.616  11.959 -0.3509  0.2741  0.4405
 7620TIP3    H144275   2.391   5.556  12.027 -2.0471  0.5751 -0.0275
 7620TIP3    H244276   2.496   5.571  11.918 -0.0529 -0.4165  1.6908
 7621TIP3   OH244277   1.307   6.025   3.972 -0.0118  0.1422 -0.3806
 7621TIP3    H144278   1.273   6.079   3.900 -0.6573 -0.7934 -0.7955
 7621TIP3    H244279   1.268   5.939   3.958  1.7876 -0.7394 -0.3252
 7622TIP3   OH244280   3.902   1.035   0.969 -0.0188  0.9522 -0.0520
 7622TIP3    H144281   3.854   1.116   0.985 -0.3523  1.2015 -1.9912
 7622TIP3    H244282   3.834   0.969   0.955  0.2358  0.6393  0.1760
 7623TIP3   OH244283   6.219   5.022   1.463 -0.3580  0.3827  0.0845
 7623TIP3    H144284   6.250   4.961   1.530  0.3187 -0.0142 -0.5673
 7623TIP3    H244285   6.231   4.975   1.380 -0.1474  1.2639 -0.4012
 7624TIP3   OH244286   1.649   5.071   3.011 -0.2467  0.7223 -0.0871
 7624TIP3    H144287   1.618   5.005   3.073 -0.7604  1.4855  0.4977
 7624TIP3    H244288   1.606   5.152   3.040 -0.8835  1.0092 -1.7262
 7625TIP3   OH244289   5.295   6.094   2.151 -0.5096  0.6776  0.1051
 7625TIP3    H144290   5.341   6.110   2.069 -0.9111  1.6860  0.0655
 7625TIP3    H244291   5.241   6.172   2.164 -1.3253  0.0237  0.7419
 7626TIP3   OH244292   5.228   3.554   4.257 -0.0855  0.5130 -0.5448
 7626TIP3    H144293   5.321   3.537   4.239 -0.3473 -1.3791 -0.3395
 7626TIP3    H244294   5.188   3.563   4.171 -0.2425 -2.0931 -0.8356
 7627TIP3   OH244295   1.048   4.396  13.715 -0.4063 -0.1639 -0.5489
 7627TIP3    H144296   1.019   4.305  13.722 -1.5789  0.1015 -1.7848
 7627TIP3    H244297   1.139   4.390  13.685 -0.4519 -0.9169 -0.5520
 7628TIP3   OH244298   0.962   6.236   3.130 -0.0470  0.5686  0.4203
 7628TIP3    H144299   0.962   6.199   3.219 -1.3429  1.5541  0.8586
 7628TIP3    H244300   0.873   6.268   3.118 -0.0631 -0.0983 -1.4962
 7629TIP3   OH244301   3.153   6.493  16.056 -0.4526 -0.0499 -0.0934
 7629TIP3    H144302   3.078   6.542  16.023 -0.7901  0.4438  1.2949
 7629TIP3    H244303   3.122   6.456  16.139  1.5018  2.2714  1.8398
 7630TIP3   OH244304   2.130   1.729   5.283  0.4212  0.3645  0.2525
 7630TIP3    H144305   2.082   1.772   5.213  0.0548 -2.0920 -1.1020
 7630TIP3    H244306   2.182   1.661   5.240  3.1400  1.1671  1.9669
 7631TIP3   OH244307   6.137   3.837  14.720 -0.2520 -0.1052 -0.3104
 7631TIP3    H144308   6.113   3.745  14.715 -0.7956  0.0132  0.1189
 7631TIP3    H244309   6.220   3.837  14.768 -1.2889 -0.2132  1.5711
 7632TIP3   OH244310   3.016   1.664  16.215  0.0356  0.3997 -0.1774
 7632TIP3    H144311   2.986   1.638  16.302  1.2417  0.4236  0.2663
 7632TIP3    H244312   2.938   1.660  16.160 -0.0839 -3.3526  0.0173
 7633TIP3   OH244313   4.390   3.291  13.680  0.0411  0.2033 -0.1241
 7633TIP3    H144314   4.426   3.205  13.656  0.1652  0.2466 -0.0925
 7633TIP3    H244315   4.423   3.308  13.768  0.2868  0.4309 -0.2586
 7634TIP3   OH244316   1.109   1.329   0.031 -0.2638  0.4308 -0.6580
 7634TIP3    H144317   1.087   1.414   0.069  0.6031  0.2725  0.2517
 7634TIP3    H244318   1.195   1.307   0.069  0.7207  0.3025 -2.8163
 7635TIP3   OH244319   5.590   6.688  14.977  0.0518 -0.2774 -0.1721
 7635TIP3    H144320   5.657   6.643  14.926 -1.2557 -1.1133 -1.2205
 7635TIP3    H244321   5.573   6.630  15.051 -0.4177 -0.6996 -0.6034
 7636TIP3   OH244322   2.322   0.634   4.611  0.1567 -0.2022  0.7766
 7636TIP3    H144323   2.355   0.718   4.641 -0.7841  0.4920 -0.0567
 7636TIP3    H244324   2.267   0.655   4.535  0.4741 -1.6361  0.1028
 7637TIP3   OH244325   6.300   3.119   1.321  0.3258  0.3522  0.1908
 7637TIP3    H144326   6.361   3.161   1.260  1.3480 -2.4050 -0.8128
 7637TIP3    H244327   6.354   3.088   1.393 -0.0840 -0.7881  0.0313
 7638TIP3   OH244328   2.008   3.069   1.433  0.7625  0.6421 -0.0159
 7638TIP3    H144329   2.027   3.087   1.341  0.5976 -1.4954 -0.5165
 7638TIP3    H244330   1.931   3.013   1.432  1.8745 -1.0319  1.2689
 7639TIP3   OH244331   0.912   4.935  14.325 -0.1582  0.1619  0.4680
 7639TIP3    H144332   0.884   4.870  14.390  0.4861 -0.2617  0.3387
 7639TIP3    H244333   1.007   4.939  14.335  0.0487 -0.4317 -0.9022
 7640TIP3   OH244334   5.648   2.722   0.809  0.2143 -0.1947 -0.2164
 7640TIP3    H144335   5.703   2.795   0.781  1.6680 -0.9467  0.5305
 7640TIP3    H244336   5.617   2.682   0.727 -0.2374  0.9617 -0.6311
 7641TIP3   OH244337   3.254   6.481  11.654  0.7762 -0.1745  0.1201
 7641TIP3    H144338   3.299   6.537  11.590  0.3419 -1.0166 -0.9639
 7641TIP3    H244339   3.189   6.538  11.695  0.4910  0.1907 -0.8081
 7642TIP3   OH244340   4.840   4.001   3.898 -0.5022 -0.1158 -0.0205
 7642TIP3    H144341   4.870   4.091   3.885 -1.1871 -0.0485 -1.3521
 7642TIP3    H244342   4.791   3.981   3.818 -1.0706 -1.3870  0.6253
 7643TIP3   OH244343   0.510   1.342  15.536 -0.1990 -0.4393 -0.4873
 7643TIP3    H144344   0.553   1.307  15.458  1.7698  1.1217 -0.2067
 7643TIP3    H244345   0.464   1.267  15.575 -0.1797 -1.5233 -2.4441
 7644TIP3   OH244346   6.426   3.655  14.588  0.1119  0.2132  0.6293
 7644TIP3    H144347   6.499   3.613  14.634  0.2535 -0.0468  0.1781
 7644TIP3    H244348   6.380   3.582  14.547  1.0420  0.5765 -1.1574
 7645TIP3   OH244349   3.257   2.145  12.950  0.0016  0.4723 -0.4244
 7645TIP3    H144350   3.332   2.133  12.891  0.4664  1.9527 -0.1981
 7645TIP3    H244351   3.291   2.200  13.021 -0.5920 -1.1257  1.1711
 7646TIP3   OH244352   4.151   3.866  11.067  0.0773 -0.0608 -0.3391
 7646TIP3    H144353   4.199   3.937  11.026 -1.0363  0.2799 -1.1054
 7646TIP3    H244354   4.060   3.895  11.068 -0.4351 -1.5383 -0.8306
 7647TIP3   OH244355   2.929   6.386  15.493  0.0810 -0.0371 -0.4976
 7647TIP3    H144356   2.898   6.295  15.493 -1.7182  0.5293 -0.1549
 7647TIP3    H244357   2.903   6.420  15.408 -0.7352  0.5878 -0.0198
 7648TIP3   OH244358   6.390   6.461  14.696  0.5562  0.2877 -0.1411
 7648TIP3    H144359   6.430   6.543  14.666  1.9222 -0.3925 -0.2360
 7648TIP3    H244360   6.374   6.411  14.616  0.0811  0.2869 -0.0524
 7649TIP3   OH244361   1.368   0.409  13.885 -0.0517 -0.1102  0.0728
 7649TIP3    H144362   1.342   0.326  13.926  0.4451 -0.5740 -0.5297
 7649TIP3    H244363   1.361   0.393  13.791  0.7869  0.2839 -0.0634
 7650TIP3   OH244364   3.046   3.523   5.490  0.2758 -0.6764  0.5428
 7650TIP3    H144365   3.025   3.519   5.583  0.7972  0.1899  0.7093
 7650TIP3    H244366   3.141   3.519   5.486  0.3502  0.7802  0.1631
 7651TIP3   OH244367   1.178   3.153  14.795 -0.0547 -0.1943  0.1336
 7651TIP3    H144368   1.240   3.081  14.806  0.5944  0.6508  2.8308
 7651TIP3    H244369   1.096   3.120  14.830 -0.4950 -0.4713 -1.1092
 7652TIP3   OH244370   4.885   2.313  12.811  0.2239 -0.0125  0.9483
 7652TIP3    H144371   4.928   2.238  12.853  0.1089 -0.9812 -0.5652
 7652TIP3    H244372   4.943   2.387  12.829  0.2442 -0.3947  2.6399
 7653TIP3   OH244373   6.679   1.775   5.169  0.1587  0.2286  0.2572
 7653TIP3    H144374   6.775   1.772   5.164  0.1761  0.2822  0.5586
 7653TIP3    H244375   6.658   1.868   5.177  0.0379  0.2853 -0.6130
 7654TIP3   OH244376   3.648   6.774  14.770  0.0526  0.2302  0.0352
 7654TIP3    H144377   3.613   6.690  14.741 -0.1128  0.5696 -0.7768
 7654TIP3    H244378   3.581   6.809  14.829 -0.1749  0.0768 -0.1302
 7655TIP3   OH244379   2.172   0.206  14.820 -0.3236 -0.2045  0.3783
 7655TIP3    H144380   2.177   0.155  14.900 -1.5493 -1.0252 -0.0307
 7655TIP3    H244381   2.252   0.259  14.819 -0.7112  0.5330  2.5991
 7656TIP3   OH244382   4.360   1.891   0.316  0.1315 -0.0611  0.1224
 7656TIP3    H144383   4.421   1.961   0.339  1.1011 -0.2218 -1.8071
 7656TIP3    H244384   4.286   1.937   0.275  0.3764 -0.1063 -0.3677
 7657TIP3   OH244385   4.147   4.435  13.959 -0.0579 -0.5117  0.5103
 7657TIP3    H144386   4.147   4.527  13.933 -1.4906 -0.7565 -0.4484
 7657TIP3    H244387   4.233   4.422  13.998 -0.2128  1.4868  1.6408
 7658TIP3   OH244388   4.549   1.626  17.056 -0.3908 -0.4297  0.0540
 7658TIP3    H144389   4.541   1.564  16.983 -0.9071 -1.2508  0.7940
 7658TIP3    H244390   4.469   1.679  17.050  0.3960  0.6864 -1.0236
 7659TIP3   OH244391   4.180   5.808   2.098  0.6393  0.1469 -0.5858
 7659TIP3    H144392   4.160   5.740   2.035  1.4060  0.6051 -1.3362
 7659TIP3    H244393   4.252   5.773   2.150 -0.1390 -0.3229  0.2159
 7660TIP3   OH244394   5.586   4.723  14.288 -0.3051 -0.3319 -0.0466
 7660TIP3    H144395   5.497   4.732  14.320 -0.3077 -1.7713  0.4191
 7660TIP3    H244396   5.641   4.752  14.360 -0.3793 -0.2344 -0.0294
 7661TIP3   OH244397   2.052   6.303   5.459  0.2107 -0.3797 -1.3045
 7661TIP3    H144398   2.144   6.277   5.462  0.1932 -0.7807 -3.2497
 7661TIP3    H244399   2.044   6.358   5.382 -1.2654 -0.6901 -1.4188
 7662TIP3   OH244400   3.664   2.969   1.844  0.6161  0.1985 -0.1074
 7662TIP3    H144401   3.694   2.904   1.907  1.3856  0.5229 -0.1296
 7662TIP3    H244402   3.633   3.042   1.898  0.4484  0.1199 -0.0956
 7663TIP3   OH244403   3.838   1.502  12.213  0.5255 -0.3345 -0.5198
 7663TIP3    H144404   3.861   1.595  12.211 -1.3511  0.1531 -1.2161
 7663TIP3    H244405   3.859   1.475  12.303  0.0422  1.0530  0.0508
 7664TIP3   OH244406   6.346   3.174  14.557 -0.0889 -0.1775  0.0346
 7664TIP3    H144407   6.414   3.185  14.490 -0.4968 -0.2876 -0.4095
 7664TIP3    H244408   6.305   3.091  14.534 -1.0593  0.3842 -0.3412
 7665TIP3   OH244409   0.172   2.922   5.182 -0.4098  0.0572  0.1147
 7665TIP3    H144410   0.098   2.863   5.168 -0.6658  0.3647  0.1539
 7665TIP3    H244411   0.195   2.953   5.094 -1.0347  0.8066  0.2061
 7666TIP3   OH244412   2.608   4.794  13.834  0.5964  0.1656  0.0234
 7666TIP3    H144413   2.516   4.769  13.838  1.2744 -2.6541  0.2607
 7666TIP3    H244414   2.621   4.824  13.744 -0.4055  0.0404 -0.1767
 7667TIP3   OH244415   0.760   2.364   5.648 -0.4199 -0.0110 -0.1876
 7667TIP3    H144416   0.786   2.436   5.590 -0.2520  1.5771  1.7427
 7667TIP3    H244417   0.833   2.356   5.710 -0.0603 -2.4496 -0.8140
 7668TIP3   OH244418   5.827   1.499   5.499 -0.1315  0.3525 -0.8122
 7668TIP3    H144419   5.829   1.587   5.461  0.6735  0.1026 -1.3800
 7668TIP3    H244420   5.913   1.490   5.541 -0.2025 -0.1678 -0.7755
 7669TIP3   OH244421   4.450   5.047   1.089  0.3948  0.6087  1.0408
 7669TIP3    H144422   4.385   5.114   1.067  0.0068  0.0668  0.4798
 7669TIP3    H244423   4.502   5.037   1.010 -0.9950 -1.3416  0.2765
 7670TIP3   OH244424   3.677   2.531   3.041 -0.2541 -0.3081  0.1458
 7670TIP3    H144425   3.675   2.595   3.112  1.1864 -0.1243  0.0612
 7670TIP3    H244426   3.743   2.566   2.980  1.4683 -2.4225  0.6723
 7671TIP3   OH244427   3.751   3.953  16.143 -0.3605 -0.0653  0.3061
 7671TIP3    H144428   3.807   4.010  16.089 -2.9818  0.1574 -2.4605
 7671TIP3    H244429   3.782   3.967  16.233  1.9583  2.3324 -0.7322
 7672TIP3   OH244430   2.650   2.242   4.261  0.0741 -0.1571  0.0533
 7672TIP3    H144431   2.620   2.308   4.199  0.5778  1.7474  1.7489
 7672TIP3    H244432   2.743   2.262   4.274  0.0928 -0.8367  1.0588
 7673TIP3   OH244433   2.255   1.102   3.342  0.1827 -0.1657 -0.4821
 7673TIP3    H144434   2.275   1.194   3.356 -0.3572 -0.2438  0.9643
 7673TIP3    H244435   2.159   1.097   3.343  0.1848 -0.6573 -1.2489
 7674TIP3   OH244436   3.780   4.524   4.580  0.3583  0.5607 -0.1591
 7674TIP3    H144437   3.732   4.469   4.641 -0.4930  1.2390 -0.1957
 7674TIP3    H244438   3.868   4.531   4.618  0.1999 -0.0234  0.3352
 7675TIP3   OH244439   2.052   3.155  14.337  0.5634  0.3126  0.1855
 7675TIP3    H144440   2.031   3.192  14.423 -0.1795  0.6863 -0.1367
 7675TIP3    H244441   2.061   3.061  14.352 -1.4256  0.0974  0.3906
 7676TIP3   OH244442   5.908   2.701   5.361 -0.1496 -0.4679  0.0424
 7676TIP3    H144443   5.830   2.756   5.357  0.7519  0.8672  0.1835
 7676TIP3    H244444   5.980   2.758   5.333  0.9739 -1.2739  1.1484
 7677TIP3   OH244445   4.446   4.066  16.460 -0.0434 -0.5208 -0.2603
 7677TIP3    H144446   4.534   4.069  16.498  0.1329 -0.0485 -0.6896
 7677TIP3    H244447   4.461   4.070  16.366 -0.5424 -0.0555 -0.3242
 7678TIP3   OH244448   1.053   4.013   2.107  0.3823 -0.4262  0.3847
 7678TIP3    H144449   1.082   3.922   2.103  0.7359 -0.2910 -0.1892
 7678TIP3    H244450   0.973   4.010   2.159 -0.7527 -1.3479 -1.3315
 7679TIP3   OH244451   3.696   1.833   0.014  0.5257  0.2296 -0.6711
 7679TIP3    H144452   3.734   1.752   0.047  0.0710 -0.2930 -1.4170
 7679TIP3    H244453   3.746   1.902   0.058  1.1382 -0.4492 -0.2850
 7680TIP3   OH244454   1.712   1.664   0.025  0.2477 -0.0541 -0.2653
 7680TIP3    H144455   1.725   1.577  -0.013  1.9790  0.2087 -0.3522
 7680TIP3    H244456   1.708   1.723  -0.051  0.5973  0.1088 -0.1593
 7681TIP3   OH244457   3.121   6.719   2.554 -0.6429  0.7662 -0.1406
 7681TIP3    H144458   3.123   6.748   2.646  1.1363  0.3755 -0.0060
 7681TIP3    H244459   3.102   6.626   2.558  3.8946 -0.4012  0.3260
 7682TIP3   OH244460   0.129   0.763  12.621 -0.4450 -0.3980  0.3525
 7682TIP3    H144461   0.199   0.722  12.569  0.1028  1.2787 -0.3246
 7682TIP3    H244462   0.146   0.734  12.711  1.4077  0.2836  0.2697
 7683TIP3   OH244463   1.481   3.845   4.243 -0.1104 -0.2614  0.3738
 7683TIP3    H144464   1.526   3.874   4.322  0.5918  0.7664 -0.3771
 7683TIP3    H244465   1.405   3.797   4.275 -0.1833  0.6599  1.6716
 7684TIP3   OH244466   3.681   0.438  13.869  0.1901  0.4927 -0.0312
 7684TIP3    H144467   3.618   0.415  13.937  1.1278 -0.0449  0.6686
 7684TIP3    H244468   3.733   0.508  13.907 -0.3221  1.3235 -0.8188
 7685TIP3   OH244469   6.779   5.285   5.586 -0.2106  0.4649  0.6620
 7685TIP3    H144470   6.854   5.229   5.607  0.8794  1.7947  0.4736
 7685TIP3    H244471   6.705   5.225   5.578  1.0718 -1.0518 -0.4169
 7686TIP3   OH244472   4.224   0.117   2.344  0.0833 -0.5601  0.0807
 7686TIP3    H144473   4.256   0.040   2.297 -1.0170 -0.1453 -1.4557
 7686TIP3    H244474   4.128   0.106   2.344  0.0284 -0.3185  1.9025
 7687TIP3   OH244475   5.390   2.335   3.326 -0.5101  0.5402  0.4734
 7687TIP3    H144476   5.465   2.367   3.276 -0.1545 -1.5437 -0.4400
 7687TIP3    H244477   5.421   2.333   3.416 -0.0676  1.3253  0.3543
 7688TIP3   OH244478   6.479   4.832  11.587  0.3611 -0.1385 -0.2956
 7688TIP3    H144479   6.415   4.770  11.550  0.5280 -0.5946  0.1853
 7688TIP3    H244480   6.555   4.779  11.609  0.1837  0.0869  0.9267
 7689TIP3   OH244481   5.827   1.144   3.827  0.4167  0.5411  0.1709
 7689TIP3    H144482   5.828   1.188   3.912  0.1485  1.9791 -0.5314
 7689TIP3    H244483   5.806   1.214   3.764 -1.2694 -0.8192 -0.8832
 7690TIP3   OH244484   2.419   4.740   2.224 -0.1311  0.3567  0.5332
 7690TIP3    H144485   2.370   4.739   2.306  1.7272  0.0999  1.6961
 7690TIP3    H244486   2.510   4.750   2.251  0.6621 -1.0150 -1.4159
 7691TIP3   OH244487   6.031   6.019   4.032  0.4241  0.1427  0.2832
 7691TIP3    H144488   5.958   6.006   4.092  0.1692 -1.2704 -0.2922
 7691TIP3    H244489   6.066   5.931   4.016 -0.0028  0.3312 -2.1954
 7692TIP3   OH244490   6.198   1.139   2.679 -0.7807  0.5683  0.5788
 7692TIP3    H144491   6.182   1.044   2.677 -0.9869  0.5955 -1.5148
 7692TIP3    H244492   6.283   1.148   2.720  0.2400 -0.7432 -1.0772
 7693TIP3   OH244493   2.267   2.178   4.858 -0.2401 -0.2289 -0.3884
 7693TIP3    H144494   2.303   2.266   4.864  1.4871 -0.9131 -0.3935
 7693TIP3    H244495   2.206   2.182   4.784 -0.8925  1.1730  0.1823
 7694TIP3   OH244496   6.084   1.452  16.555  0.0797 -0.1902 -0.1628
 7694TIP3    H144497   6.051   1.509  16.486  1.0852 -2.5646 -2.8219
 7694TIP3    H244498   6.160   1.409  16.516  0.3515 -2.1235  2.2317
 7695TIP3   OH244499   4.685   3.958  15.874 -0.0518  0.3347  0.7887
 7695TIP3    H144500   4.653   3.975  15.785 -0.2076 -0.6527  0.6466
 7695TIP3    H244501   4.739   4.034  15.895 -2.3287  1.9872  0.9827
 7696TIP3   OH244502   1.143   3.320  13.268 -0.2917 -0.4597  0.1814
 7696TIP3    H144503   1.053   3.346  13.286  0.5083  2.2102  0.8754
 7696TIP3    H244504   1.148   3.312  13.173 -1.9251 -3.7492  0.2436
 7697TIP3   OH244505   0.087   5.644  11.703 -0.4406  0.7403 -0.0932
 7697TIP3    H144506   0.048   5.561  11.731  0.2394  0.5925  0.4284
 7697TIP3    H244507   0.039   5.666  11.622 -3.3426  1.8074  1.7518
 7698TIP3   OH244508   0.688   1.680  16.567  0.1129  0.1851  0.0769
 7698TIP3    H144509   0.627   1.612  16.539 -1.3590  0.3487  2.5806
 7698TIP3    H244510   0.764   1.632  16.601 -0.9259 -0.3055  1.8546
 7699TIP3   OH244511   0.517   0.532  13.693  0.3484  0.1039  0.0258
 7699TIP3    H144512   0.495   0.514  13.784  0.0336 -1.3556 -0.3071
 7699TIP3    H244513   0.487   0.621  13.678  0.9567  0.5892  1.5077
 7700TIP3   OH244514   1.637   0.752   4.001 -0.0739 -0.5423 -0.5315
 7700TIP3    H144515   1.649   0.721   3.911  1.6538 -0.4866 -0.3685
 7700TIP3    H244516   1.637   0.672   4.054  0.6254 -0.4960 -0.4477
 7701TIP3   OH244517   1.260   2.827   0.360  0.2238  0.3810 -0.3460
 7701TIP3    H144518   1.310   2.773   0.421  1.2289  1.3522 -0.2749
 7701TIP3    H244519   1.177   2.781   0.349  0.9222 -0.9974 -0.0454
 7702TIP3   OH244520   1.747   5.595   0.765  0.3360 -0.4601  0.4216
 7702TIP3    H144521   1.750   5.582   0.860  0.0693 -0.4188  0.4353
 7702TIP3    H244522   1.715   5.512   0.730 -1.2106  0.0647  0.4970
 7703TIP3   OH244523   1.065   2.824   0.014  0.8272 -0.6329 -0.2083
 7703TIP3    H144524   1.020   2.858  -0.063 -0.1965 -1.6024 -0.0625
 7703TIP3    H244525   1.107   2.901   0.053  0.4915  0.0448 -1.1445
 7704TIP3   OH244526   5.873   3.128  11.166  0.0314  0.2584  0.6146
 7704TIP3    H144527   5.923   3.208  11.180 -0.2734  0.7923 -1.1215
 7704TIP3    H244528   5.897   3.099  11.078 -0.3824 -1.1861  0.9394
 7705TIP3   OH244529   6.424   1.588   0.292  0.5661 -0.1624 -0.6625
 7705TIP3    H144530   6.452   1.555   0.378 -1.8129 -0.3781  0.0847
 7705TIP3    H244531   6.505   1.621   0.253  1.6071  0.7095  1.9871
 7706TIP3   OH244532   1.368   4.805   2.141 -0.1738  0.1721  0.2575
 7706TIP3    H144533   1.406   4.730   2.095 -2.2522 -1.8968  1.7056
 7706TIP3    H244534   1.403   4.799   2.230  0.3417  1.5061  0.1678
 7707TIP3   OH244535   4.743   6.602  13.095  0.4526  0.6101 -0.5806
 7707TIP3    H144536   4.688   6.525  13.083 -2.1800  2.2268  0.4659
 7707TIP3    H244537   4.823   6.568  13.136 -1.2740 -1.3823  1.3303
 7708TIP3   OH244538   6.764   0.746  15.483 -0.1929 -0.4023  0.0222
 7708TIP3    H144539   6.736   0.826  15.527  1.6562  0.0599  0.4279
 7708TIP3    H244540   6.714   0.676  15.525  0.3117  0.2220  1.7140
 7709TIP3   OH244541   2.786   1.872   1.305  0.1157  0.6099  0.4240
 7709TIP3    H144542   2.832   1.822   1.372 -0.4681  0.0686  0.4266
 7709TIP3    H244543   2.856   1.908   1.250  0.5480 -1.5747 -0.5812
 7710TIP3   OH244544   5.078   3.643   1.922  0.1455 -0.4497 -0.2591
 7710TIP3    H144545   5.100   3.709   1.989 -1.9198 -0.1458  0.1968
 7710TIP3    H244546   5.114   3.561   1.957  0.9336  0.0687  0.1864
 7711TIP3   OH244547   3.746   5.673  14.360  0.4494 -0.6973 -0.4624
 7711TIP3    H144548   3.747   5.621  14.440  2.1894 -1.5382 -0.9860
 7711TIP3    H244549   3.786   5.757  14.386  0.2473 -0.6571 -0.2747
 7712TIP3   OH244550   6.537   3.470   0.881  0.1493 -0.5321  0.5427
 7712TIP3    H144551   6.626   3.470   0.918  0.0963 -0.1497  0.6674
 7712TIP3    H244552   6.500   3.554   0.907  0.6584  0.4549 -1.7404
 7713TIP3   OH244553   5.402   6.785  13.033 -0.3908 -0.3806 -0.0071
 7713TIP3    H144554   5.433   6.876  13.037 -0.9406 -0.1204 -1.0704
 7713TIP3    H244555   5.427   6.747  13.117  1.6577  0.1583 -0.3204
 7714TIP3   OH244556   6.456   3.437   4.397 -0.0308  0.1034  0.1762
 7714TIP3    H144557   6.498   3.515   4.362  0.3994  0.5478  1.6060
 7714TIP3    H244558   6.366   3.441   4.366  0.3133  0.4974 -0.7927
 7715TIP3   OH244559   5.724   6.460  13.980  0.1245 -0.4709  0.6087
 7715TIP3    H144560   5.651   6.417  14.025 -1.3379 -0.3429 -1.4676
 7715TIP3    H244561   5.705   6.447  13.887  0.8717  2.6149 -0.0895
 7716TIP3   OH244562   1.279   0.626   0.161  0.3916  0.2467 -0.0315
 7716TIP3    H144563   1.255   0.697   0.220 -0.3375  0.0757 -0.1100
 7716TIP3    H244564   1.329   0.565   0.215 -1.9377 -0.8887  0.9720
 7717TIP3   OH244565   1.633   3.063  12.812 -0.1867  0.1228  0.1903
 7717TIP3    H144566   1.632   3.109  12.897 -2.4521 -0.4982  0.5746
 7717TIP3    H244567   1.540   3.058  12.788  0.1158 -2.7964 -0.6313
 7718TIP3   OH244568   6.741   4.498   5.765 -0.0723  0.5468 -0.0277
 7718TIP3    H144569   6.751   4.411   5.726 -0.0721  0.4343  0.2228
 7718TIP3    H244570   6.698   4.482   5.849 -0.6007  0.8423 -0.2313
 7719TIP3   OH244571   5.589   6.183  13.571  0.4259 -0.0760 -0.3612
 7719TIP3    H144572   5.544   6.102  13.548  0.4759 -0.3389  0.4175
 7719TIP3    H244573   5.680   6.168  13.547  0.9002 -1.1554  1.8356
 7720TIP3   OH244574   2.676   2.684   3.094 -0.3175  0.5785 -0.4117
 7720TIP3    H144575   2.608   2.729   3.044 -1.6579 -0.2906  0.5438
 7720TIP3    H244576   2.739   2.655   3.029 -0.7993  1.4995 -1.3208
 7721TIP3   OH244577   2.882   2.011   6.832 -0.3798 -0.4830 -0.2991
 7721TIP3    H144578   2.860   2.094   6.789  0.4886 -0.0495  0.0710
 7721TIP3    H244579   2.827   1.946   6.788  0.5754 -0.0894 -2.1780
 7722TIP3   OH244580   4.646   4.266   2.835 -0.3445 -0.1702  0.0019
 7722TIP3    H144581   4.556   4.292   2.856 -0.3957  0.2558 -0.7230
 7722TIP3    H244582   4.637   4.180   2.793 -0.2523 -0.9602  1.5422
 7723TIP3   OH244583   1.714   3.105   3.881 -0.3498 -0.9128 -0.6271
 7723TIP3    H144584   1.791   3.048   3.883 -0.5977 -1.2417 -0.2993
 7723TIP3    H244585   1.749   3.194   3.886 -0.0454 -1.0935  1.0060
 7724TIP3   OH244586   0.868   5.907  16.175  0.1075 -0.4406  1.1098
 7724TIP3    H144587   0.950   5.937  16.212  0.4342  1.2642 -0.8446
 7724TIP3    H244588   0.889   5.822  16.136  0.5476 -0.7016  1.8862
 7725TIP3   OH244589   5.196   5.333  16.526 -0.0873 -0.2449  0.5163
 7725TIP3    H144590   5.165   5.413  16.567 -0.2430 -0.6736  1.2427
 7725TIP3    H244591   5.148   5.263  16.569 -1.1990 -0.6473 -1.2475
 7726TIP3   OH244592   2.002   3.019  17.088 -0.2344 -0.1655  0.1203
 7726TIP3    H144593   2.068   3.082  17.059 -0.5549  0.5534  0.9155
 7726TIP3    H244594   2.016   2.942  17.032  1.8728 -0.3802  0.8371
 7727TIP3   OH244595   6.253   3.524  15.377 -0.1335  0.6639  0.2248
 7727TIP3    H144596   6.193   3.532  15.451  0.3828  2.2741  0.4940
 7727TIP3    H244597   6.338   3.508  15.416 -0.0610  0.2732 -0.0821
 7728TIP3   OH244598   1.948   5.905   6.486  0.1636 -0.3536 -0.0805
 7728TIP3    H144599   1.869   5.865   6.523  1.6768 -1.0516  2.7049
 7728TIP3    H244600   2.020   5.862   6.532  2.1501  1.1845 -1.5674
 7729TIP3   OH244601   4.516   1.470  16.100 -0.7018  0.4257  0.3545
 7729TIP3    H144602   4.587   1.406  16.109  0.1302  1.4057  0.8862
 7729TIP3    H244603   4.436   1.417  16.108 -0.0963 -0.9274 -1.6892
 7730TIP3   OH244604   5.269   6.318   1.746  0.0421  0.0707  0.4711
 7730TIP3    H144605   5.230   6.232   1.761 -1.0307  0.4845  0.1474
 7730TIP3    H244606   5.198   6.370   1.708  0.4535  1.3196  1.3505
 7731TIP3   OH244607   5.857   0.894  13.705 -0.1972 -0.1842 -0.4534
 7731TIP3    H144608   5.913   0.867  13.633  0.4507  1.0177 -0.4325
 7731TIP3    H244609   5.837   0.986  13.687  1.3369  0.6430  1.7112
 7732TIP3   OH244610   5.755   5.521  11.208 -0.1601 -0.1048  0.4373
 7732TIP3    H144611   5.677   5.527  11.153  0.0848 -0.8109 -0.0013
 7732TIP3    H244612   5.726   5.476  11.287 -0.4263  0.5725  0.7335
 7733TIP3   OH244613   1.878   2.849   2.938 -0.1105 -0.0893  0.0925
 7733TIP3    H144614   1.885   2.856   2.843 -1.0790  0.6099  0.0541
 7733TIP3    H244615   1.968   2.853   2.969  0.1563  0.9261 -0.7291
 7734TIP3   OH244616   1.518   4.050  11.821  0.2694  0.0436  0.4659
 7734TIP3    H144617   1.459   3.997  11.875  0.3210 -0.4721  0.0217
 7734TIP3    H244618   1.492   4.031  11.731  1.0649 -0.1318  0.2696
 7735TIP3   OH244619   4.952   2.090   0.836  0.5996 -0.4919 -0.1123
 7735TIP3    H144620   4.987   2.080   0.748 -0.1233 -0.4782 -0.3987
 7735TIP3    H244621   4.877   2.148   0.827  0.9253  0.0556  0.6130
 7736TIP3   OH244622   4.000   4.332   3.250  0.2582  0.4140 -0.1780
 7736TIP3    H144623   3.958   4.418   3.243  1.8972  1.2431 -0.3911
 7736TIP3    H244624   3.980   4.289   3.166  0.2217  0.9719 -0.4602
 7737TIP3   OH244625   2.778   1.598  14.738  0.1182 -0.3547  0.0425
 7737TIP3    H144626   2.871   1.582  14.753 -0.1178 -1.4825  0.4051
 7737TIP3    H244627   2.774   1.640  14.652  0.9659 -0.2625  0.0423
 7738TIP3   OH244628   5.155   2.325  13.888 -0.1784 -0.1913  0.1004
 7738TIP3    H144629   5.215   2.395  13.914 -0.7526  1.2774 -2.2304
 7738TIP3    H244630   5.147   2.334  13.793 -1.7941 -2.2226 -0.0332
 7739TIP3   OH244631   1.241   0.163   3.027  0.1280  0.2830 -0.1515
 7739TIP3    H144632   1.306   0.232   3.011 -0.2752  0.3783 -1.5712
 7739TIP3    H244633   1.164   0.210   3.059  0.0257  0.4323 -0.6151
 7740TIP3   OH244634   5.767   0.686   5.023  0.1376  0.2608  0.3048
 7740TIP3    H144635   5.707   0.632   5.075  1.3334  0.3450  1.8425
 7740TIP3    H244636   5.829   0.721   5.087  2.3405 -0.4916 -1.2865
 7741TIP3   OH244637   2.994   3.150  14.003 -0.0157  0.2631 -0.3534
 7741TIP3    H144638   2.915   3.111  13.965  0.8252 -1.3974 -0.4921
 7741TIP3    H244639   3.039   3.190  13.929  0.2201 -0.5102 -0.6435
 7742TIP3   OH244640   0.030   6.070   5.845  0.0446 -0.5330 -0.5255
 7742TIP3    H144641   0.109   6.113   5.879 -0.1524 -0.7126  0.1682
 7742TIP3    H244642  -0.040   6.133   5.861 -0.0123 -0.5165 -0.8316
 7743TIP3   OH244643   0.212   5.058  16.965 -0.1548 -0.0338  0.4149
 7743TIP3    H144644   0.127   5.015  16.963  1.0573 -2.7026  1.8787
 7743TIP3    H244645   0.255   5.030  16.884 -0.2194  0.3712  0.2369
 7744TIP3   OH244646   3.530   0.513  16.699 -0.4896 -0.5543  0.8905
 7744TIP3    H144647   3.540   0.559  16.782  1.3966  1.5229 -0.3569
 7744TIP3    H244648   3.611   0.461  16.691 -0.6256 -0.6890  0.3418
 7745TIP3   OH244649   2.314   1.950   4.976  0.1486 -0.2913 -0.5125
 7745TIP3    H144650   2.339   1.905   4.895 -0.0574  0.9572 -1.2813
 7745TIP3    H244651   2.293   2.039   4.949  0.6988  0.3330  1.0124
 7746TIP3   OH244652   5.057   2.498  12.905 -0.8877 -0.4870 -0.2911
 7746TIP3    H144653   5.004   2.577  12.920 -0.1327  0.0507 -0.3858
 7746TIP3    H244654   5.147   2.530  12.908 -0.5195 -1.5812  1.1004
 7747TIP3   OH244655   3.683   6.304  11.077  0.6754 -0.0341 -0.1240
 7747TIP3    H144656   3.705   6.339  11.163 -0.6487  1.3144 -0.2792
 7747TIP3    H244657   3.588   6.291  11.080  0.7678 -1.1272 -0.9909
 7748TIP3   OH244658   1.129   1.495   5.180 -0.3951  0.3902  0.9625
 7748TIP3    H144659   1.094   1.580   5.203 -0.8430  0.3529  0.4381
 7748TIP3    H244660   1.055   1.435   5.188  0.3635 -0.3499  3.3830
 7749TIP3   OH244661   2.611   4.333  13.516 -0.0237  0.6084  0.4490
 7749TIP3    H144662   2.670   4.335  13.441  1.7698  3.4946  1.7634
 7749TIP3    H244663   2.528   4.366  13.483  0.1178 -0.1553 -0.6963
 7750TIP3   OH244664   5.066   6.644  15.573  0.4158 -0.3680 -0.1753
 7750TIP3    H144665   4.993   6.601  15.528 -0.9957  0.8712  0.7969
 7750TIP3    H244666   5.107   6.574  15.624  0.0201 -1.1348 -0.8893
 7751TIP3   OH244667   1.857   0.436   2.585 -0.1632  0.8056  0.1988
 7751TIP3    H144668   1.851   0.340   2.577  0.4149  0.8384 -0.7934
 7751TIP3    H244669   1.931   0.450   2.644  0.5598  0.6379 -0.6383
 7752TIP3   OH244670   2.922   3.283  10.389  0.0551  0.1481 -0.3803
 7752TIP3    H144671   2.983   3.238  10.448  1.6721  0.7108 -1.5380
 7752TIP3    H244672   2.896   3.362  10.436 -0.7797 -0.6875  0.6170
 7753TIP3   OH244673   0.892   3.581  15.835 -0.0955  0.4966 -0.2442
 7753TIP3    H144674   0.935   3.510  15.788 -1.0406 -0.7668  0.7074
 7753TIP3    H244675   0.939   3.586  15.918 -0.2012  0.8015 -0.2024
 7754TIP3   OH244676   1.433   6.457  15.398 -0.5780 -0.1713 -0.6018
 7754TIP3    H144677   1.502   6.408  15.354  0.2243  1.4235 -1.2310
 7754TIP3    H244678   1.416   6.409  15.478  2.7864  0.4483  0.6305
 7755TIP3   OH244679   0.435   0.484   2.350  0.0256 -0.1035  0.3756
 7755TIP3    H144680   0.420   0.579   2.348  0.8799  0.0522 -1.5522
 7755TIP3    H244681   0.527   0.475   2.376 -0.4805 -0.5095  2.1070
 7756TIP3   OH244682   0.567   4.356  16.767 -0.2482 -0.5996  0.0066
 7756TIP3    H144683   0.500   4.306  16.721 -1.2003 -1.4518  2.1609
 7756TIP3    H244684   0.649   4.314  16.743 -0.7606 -1.2934 -0.5672
 7757TIP3   OH244685   2.195   2.778  15.890  0.0155  0.3076  0.1480
 7757TIP3    H144686   2.110   2.736  15.907 -0.0631  0.6518  0.6129
 7757TIP3    H244687   2.186   2.866  15.926  1.2975 -0.3151  2.1642
 7758TIP3   OH244688   6.235   3.350   3.701 -0.7573 -0.0100  0.7190
 7758TIP3    H144689   6.307   3.329   3.760 -0.9636 -2.5486  0.1937
 7758TIP3    H244690   6.171   3.394   3.757  0.4907  0.8271  1.5496
 7759TIP3   OH244691   5.877   1.919  16.932  0.4115  0.4003  0.2456
 7759TIP3    H144692   5.939   1.857  16.894 -0.1796  0.1065 -0.2620
 7759TIP3    H244693   5.889   2.000  16.882 -0.3286  0.0296 -0.5662
 7760TIP3   OH244694   1.858   5.850   1.759  0.1618  0.0718  0.1173
 7760TIP3    H144695   1.901   5.889   1.682  0.3345  1.0370  0.6886
 7760TIP3    H244696   1.914   5.872   1.832 -0.7737  0.4569  0.7380
 7761TIP3   OH244697   5.367   0.245   2.403  0.1193  0.2973  0.4780
 7761TIP3    H144698   5.379   0.329   2.358 -0.7574  0.2489  0.1428
 7761TIP3    H244699   5.456   0.217   2.423  0.3922  2.2792  2.4234
 7762TIP3   OH244700   4.174   2.020   4.273 -0.2095 -0.4528 -0.7672
 7762TIP3    H144701   4.166   1.927   4.251 -0.6780 -0.6399  0.1320
 7762TIP3    H244702   4.256   2.047   4.233  0.6697 -1.6238  0.1581
 7763TIP3   OH244703   2.886   6.027  16.290  0.3660 -0.1132  0.4407
 7763TIP3    H144704   2.827   6.005  16.217 -0.1102  1.3144  0.3676
 7763TIP3    H244705   2.833   6.014  16.368  0.1334  0.5811  0.4058
 7764TIP3   OH244706   2.795   2.049  14.956 -0.2555 -0.0493 -0.1440
 7764TIP3    H144707   2.704   2.057  14.985 -0.3515  2.2432 -0.9244
 7764TIP3    H244708   2.797   1.965  14.910 -2.2207  0.2374 -0.8644
 7765TIP3   OH244709   2.677   1.605   0.083  0.2169  0.0692 -0.0079
 7765TIP3    H144710   2.598   1.571   0.041  0.3633 -0.2266 -0.0446
 7765TIP3    H244711   2.683   1.559   0.166 -0.0813  0.6679  0.3557
 7766TIP3   OH244712   1.382   3.574   5.694  0.3145 -0.2005  0.4714
 7766TIP3    H144713   1.421   3.536   5.773  0.4980  0.9833  0.9666
 7766TIP3    H244714   1.410   3.516   5.623 -0.2221 -1.5415  1.3155
 7767TIP3   OH244715   1.199   2.223  16.954 -0.4536  0.3952 -0.4933
 7767TIP3    H144716   1.192   2.318  16.948 -1.0085  0.3711 -0.3424
 7767TIP3    H244717   1.169   2.202  17.042 -1.7904 -0.0228 -1.0076
 7768TIP3   OH244718   0.917   3.450  15.422 -0.2924  0.2404 -0.3763
 7768TIP3    H144719   0.876   3.388  15.482  0.8536  0.3989  0.6214
 7768TIP3    H244720   0.896   3.417  15.335 -1.2801 -0.4777  0.1152
 7769TIP3   OH244721   3.551   4.491  13.591  0.3042 -0.7276 -0.6347
 7769TIP3    H144722   3.636   4.493  13.547  0.1559 -0.8947 -0.9324
 7769TIP3    H244723   3.510   4.410  13.561 -0.0908 -0.4946 -0.7321
 7770TIP3   OH244724   0.519   4.906  17.086 -0.1042  0.5113  0.7840
 7770TIP3    H144725   0.555   4.818  17.098 -1.2384 -0.4931 -2.3281
 7770TIP3    H244726   0.431   4.901  17.123 -0.8039 -0.2459 -0.9027
 7771TIP3   OH244727   2.696   6.237   1.963  0.0607 -0.9865  0.2458
 7771TIP3    H144728   2.763   6.219   1.897 -1.3511 -1.4591 -1.1178
 7771TIP3    H244729   2.679   6.153   2.004 -0.2802 -1.0342  0.0096
 7772TIP3   OH244730   5.619   3.913   0.663 -0.2132 -0.5086 -0.2862
 7772TIP3    H144731   5.533   3.954   0.665 -0.2968 -0.6438 -0.9445
 7772TIP3    H244732   5.637   3.900   0.570  0.9533  0.4206 -0.2059
 7773TIP3   OH244733   4.960   5.927   2.371  0.2271  0.0244  0.2006
 7773TIP3    H144734   4.961   5.990   2.443 -1.3542  0.4278 -0.0904
 7773TIP3    H244735   4.977   5.980   2.293 -0.3408 -0.0160  0.0427
 7774TIP3   OH244736   2.107   6.499  11.972 -0.5574  0.5776  0.0325
 7774TIP3    H144737   2.016   6.485  11.948 -0.6154  0.3243  0.3983
 7774TIP3    H244738   2.129   6.425  12.029 -0.4349  1.1814  0.7856
 7775TIP3   OH244739   4.127   3.157   1.164  0.5353  0.5708  0.2305
 7775TIP3    H144740   4.120   3.224   1.232 -0.9422  0.4887  0.1865
 7775TIP3    H244741   4.065   3.089   1.191 -0.6844  0.9059 -1.6009
 7776TIP3   OH244742   3.448   3.512   3.616  0.2265 -0.1878  0.0438
 7776TIP3    H144743   3.486   3.427   3.638 -0.0079 -0.6084 -1.0655
 7776TIP3    H244744   3.471   3.569   3.689  1.9752 -0.7212 -0.0490
 7777TIP3   OH244745   4.673   6.184  15.107  0.3386  0.1057 -0.4141
 7777TIP3    H144746   4.696   6.182  15.014 -0.7492 -2.0263 -0.7160
 7777TIP3    H244747   4.746   6.140  15.151  1.2646  1.8800 -0.1074
 7778TIP3   OH244748   4.509   1.777   5.471  0.1134  0.3550  0.0200
 7778TIP3    H144749   4.555   1.812   5.547 -2.8001 -0.9085  2.5876
 7778TIP3    H244750   4.507   1.683   5.486 -0.1923  0.0138 -1.9004
 7779TIP3   OH244751   4.736   0.053   0.572 -0.2368  0.0392  0.3454
 7779TIP3    H144752   4.748   0.076   0.480  0.3569 -0.4811  0.2912
 7779TIP3    H244753   4.784   0.120   0.621  2.2940 -1.5213  0.1623
 7780TIP3   OH244754   0.730   2.762  13.959  0.0014  0.3371  0.3626
 7780TIP3    H144755   0.744   2.817  14.037  0.2728 -1.7678  1.8795
 7780TIP3    H244756   0.769   2.813  13.888  0.3048  2.0852  1.6811
 7781TIP3   OH244757   5.613   4.360   3.383  0.5529  0.3877 -0.1832
 7781TIP3    H144758   5.527   4.374   3.423  0.3650 -3.1222  0.9887
 7781TIP3    H244759   5.605   4.276   3.339  3.9370 -1.2133  1.8553
 7782TIP3   OH244760   2.079   4.723   3.082 -0.0332 -0.5179 -0.3148
 7782TIP3    H144761   2.128   4.650   3.042  2.6181 -0.1251  1.9392
 7782TIP3    H244762   2.138   4.759   3.148 -2.9454  0.8886  1.7620
 7783TIP3   OH244763   5.555   6.534   4.506 -0.4353  0.1695 -0.2634
 7783TIP3    H144764   5.589   6.580   4.584  1.7029 -1.6662 -0.0042
 7783TIP3    H244765   5.575   6.593   4.433 -0.1053  0.7728  0.2983
 7784TIP3   OH244766   4.722   1.022  13.793 -0.0644  0.0168 -0.1534
 7784TIP3    H144767   4.808   0.980  13.790 -0.0805 -0.0038 -0.3736
 7784TIP3    H244768   4.660   0.948  13.794 -0.1013  0.0328 -0.8311
 7785TIP3   OH244769   1.811   5.307   1.080  0.5662  0.4050  0.6271
 7785TIP3    H144770   1.856   5.293   0.997  2.1066 -0.4150  1.5747
 7785TIP3    H244771   1.790   5.220   1.111  1.3335  0.6245  1.8031
 7786TIP3   OH244772   2.556   1.803   5.740  0.4565 -0.2007 -0.2229
 7786TIP3    H144773   2.574   1.712   5.766 -0.0995 -0.2439  0.0070
 7786TIP3    H244774   2.464   1.816   5.760  0.1608 -0.0433 -1.6142
 7787TIP3   OH244775   6.049   0.727  11.932 -0.0341  0.1107 -0.2170
 7787TIP3    H144776   6.116   0.728  12.001  0.5320 -0.9349 -0.7209
 7787TIP3    H244777   5.966   0.741  11.978  0.4683  0.8306  0.4924
 7788TIP3   OH244778   3.802   1.505   5.283 -0.8606 -0.0201 -0.0005
 7788TIP3    H144779   3.791   1.469   5.371  0.7507 -1.1158 -0.1807
 7788TIP3    H244780   3.714   1.506   5.246 -1.3906 -0.8392  1.1548
 7789TIP3   OH244781   2.414   1.918   2.608  0.4743 -0.1625  0.5024
 7789TIP3    H144782   2.497   1.875   2.587 -0.6351 -2.0742 -0.1482
 7789TIP3    H244783   2.348   1.849   2.600 -1.2584  1.4204  0.4974
 7790TIP3   OH244784   0.551   5.041  12.386 -0.0820 -0.4535 -0.2195
 7790TIP3    H144785   0.479   4.979  12.378 -0.4416 -0.0740  0.0533
 7790TIP3    H244786   0.514   5.125  12.358  0.5037 -0.4270 -0.9444
 7791TIP3   OH244787   5.556   4.475   4.890 -0.1915 -0.4114  0.0646
 7791TIP3    H144788   5.503   4.448   4.965 -1.1069  0.1431 -0.3695
 7791TIP3    H244789   5.494   4.482   4.818  0.4197  0.5116 -0.3966
 7792TIP3   OH244790   6.147   1.812  16.489 -0.1299 -0.0176  0.4882
 7792TIP3    H144791   6.149   1.906  16.506 -0.2571 -0.3390  2.5057
 7792TIP3    H244792   6.101   1.804  16.405 -1.6988  1.6305  1.1247
 7793TIP3   OH244793   4.678   3.424   0.198  0.0766  0.3365 -0.2111
 7793TIP3    H144794   4.745   3.483   0.232  0.3011 -0.2021  0.2993
 7793TIP3    H244795   4.627   3.478   0.137  2.4520  0.2014 -2.5232
 7794TIP3   OH244796   5.817   2.661  11.780 -0.1166 -0.8762  0.3781
 7794TIP3    H144797   5.865   2.682  11.860  1.9722 -1.4661 -0.6584
 7794TIP3    H244798   5.734   2.708  11.789  1.1281  1.2432  1.7140
 7795TIP3   OH244799   6.324   0.584  14.914 -0.1116  0.3356 -0.5042
 7795TIP3    H144800   6.411   0.545  14.927  0.2378  1.6894  1.8716
 7795TIP3    H244801   6.270   0.545  14.983 -0.7191  1.2745 -0.4272
 7796TIP3   OH244802   4.188   0.815   4.386  0.1492 -0.4196 -0.1780
 7796TIP3    H144803   4.123   0.801   4.318  0.1776 -2.1025  0.1071
 7796TIP3    H244804   4.136   0.835   4.464 -0.1255 -2.6142  0.2553
 7797TIP3   OH244805   2.054   5.265   2.143  0.2785 -0.3013  0.6655
 7797TIP3    H144806   2.129   5.250   2.084 -0.9360  0.5364 -1.1998
 7797TIP3    H244807   2.092   5.312   2.217  1.6542 -0.0789 -0.1262
 7798TIP3   OH244808   1.988   4.446   0.854  0.0467  0.2085  0.4446
 7798TIP3    H144809   1.989   4.436   0.759  0.7624 -2.3037  0.6443
 7798TIP3    H244810   1.897   4.430   0.878  0.1029 -0.4026  0.2681
 7799TIP3   OH244811   5.192   2.046   0.212  0.2428 -0.7122  0.1375
 7799TIP3    H144812   5.256   1.999   0.159 -0.3220 -1.5058  0.1392
 7799TIP3    H244813   5.204   2.010   0.300  0.7814  0.1841  0.4393
 7800TIP3   OH244814   3.178   4.088   0.945  0.2343  0.1260 -0.0702
 7800TIP3    H144815   3.101   4.118   0.992 -0.3549 -0.8486 -0.3913
 7800TIP3    H244816   3.244   4.156   0.961 -0.8301  1.2207 -0.2199
 7801TIP3   OH244817   2.691   5.055   3.863  0.0003  0.2123  0.0248
 7801TIP3    H144818   2.684   5.143   3.899  0.6560 -0.3023  1.5023
 7801TIP3    H244819   2.783   5.047   3.838 -0.0826 -0.0133 -0.2172
 7802TIP3   OH244820   1.521   3.310   0.893 -0.2646  0.0712 -0.2257
 7802TIP3    H144821   1.584   3.374   0.858 -0.0086  0.1576  0.3766
 7802TIP3    H244822   1.557   3.225   0.868 -1.9206  0.1481 -3.2972
 7803TIP3   OH244823   6.619   3.336   5.168 -0.2550  0.8321  0.6686
 7803TIP3    H144824   6.684   3.368   5.231  1.2946 -1.6373  0.4462
 7803TIP3    H244825   6.571   3.268   5.216  0.2381 -0.3468 -0.4634
 7804TIP3   OH244826   0.359   3.625  13.568  0.4259 -0.3249  0.1231
 7804TIP3    H144827   0.275   3.578  13.570  0.2306 -0.0152 -0.3861
 7804TIP3    H244828   0.393   3.619  13.657  0.0464 -0.7931  0.2364
 7805TIP3   OH244829   3.809   5.277   0.024  0.1355  0.4989  0.1661
 7805TIP3    H144830   3.811   5.184   0.047  0.3050  0.5873  0.5105
 7805TIP3    H244831   3.732   5.286  -0.033  1.9081 -0.4741 -2.6293
 7806TIP3   OH244832   6.609   4.073  16.458 -0.7365  0.3827  0.3607
 7806TIP3    H144833   6.600   4.162  16.422  0.6757  0.9913  1.4212
 7806TIP3    H244834   6.542   4.069  16.526 -1.0448  0.5043  0.0677
 7807TIP3   OH244835   4.488   3.821  11.674  0.1249  0.2230  0.7571
 7807TIP3    H144836   4.480   3.786  11.763  2.0402 -0.2003  0.8143
 7807TIP3    H244837   4.534   3.753  11.626  1.3955  1.4754  0.1171
 7808TIP3   OH244838   1.502   3.301   4.839  0.0781 -0.3520  0.3034
 7808TIP3    H144839   1.460   3.368   4.785 -0.1783  1.0377  2.1135
 7808TIP3    H244840   1.573   3.267   4.784 -0.7071  0.3610 -1.2047
 7809TIP3   OH244841   4.846   6.021   1.883 -0.0015  0.0964  0.3529
 7809TIP3    H144842   4.754   6.047   1.874 -0.0250  0.1717  0.7967
 7809TIP3    H244843   4.855   5.946   1.824 -0.3018  0.2011  0.1700
 7810TIP3   OH244844   1.209   6.233   6.201 -0.7430 -0.0328 -0.6279
 7810TIP3    H144845   1.230   6.282   6.121 -0.4711  0.6822 -0.1346
 7810TIP3    H244846   1.156   6.159   6.171 -3.2168  1.8419 -1.1795
 7811TIP3   OH244847   0.198   6.764  15.041 -0.1411 -0.5173  0.0831
 7811TIP3    H144848   0.146   6.758  14.961 -0.2275 -0.3167  0.1230
 7811TIP3    H244849   0.284   6.730  15.016 -0.2540 -0.7298 -0.0161
 7812TIP3   OH244850   5.030   5.164   4.445  0.2033  0.1432  0.1277
 7812TIP3    H144851   5.100   5.200   4.391 -0.0633 -0.1073 -0.3829
 7812TIP3    H244852   5.003   5.084   4.400 -1.4205  0.9940 -0.4774
 7813TIP3   OH244853   5.071   3.486   6.722  0.3490 -0.1979 -0.4162
 7813TIP3    H144854   5.087   3.453   6.811 -0.1019 -1.7403 -0.8797
 7813TIP3    H244855   5.064   3.407   6.668 -0.2818  0.6911 -1.6758
 7814TIP3   OH244856   0.672   3.931  14.580 -0.3124 -0.6906 -0.0174
 7814TIP3    H144857   0.626   3.927  14.664  1.3030 -1.1634  0.8915
 7814TIP3    H244858   0.691   3.840  14.558  2.7712 -0.4605  1.1816
 7815TIP3   OH244859   1.719   6.161   1.882 -0.1978  0.0401 -0.0968
 7815TIP3    H144860   1.644   6.110   1.912 -0.5285  0.6158  0.0859
 7815TIP3    H244861   1.726   6.232   1.946  2.0791 -1.3992  1.3716
 7816TIP3   OH244862   4.285   6.746  13.278 -0.0405  0.4180  0.0765
 7816TIP3    H144863   4.360   6.696  13.311 -1.0980 -1.1270  0.2171
 7816TIP3    H244864   4.249   6.693  13.208 -2.0523  0.2514  1.1776
 7817TIP3   OH244865   2.943   5.776  13.041  0.3427 -0.2844 -0.2306
 7817TIP3    H144866   2.959   5.782  12.947  1.9274  0.1842  0.0321
 7817TIP3    H244867   3.001   5.706  13.071  0.0669 -0.2400  0.4404
 7818TIP3   OH244868   5.013   3.207   2.768  0.7189 -0.2265  0.2398
 7818TIP3    H144869   5.000   3.146   2.841  0.8727  0.8426  1.1951
 7818TIP3    H244870   4.930   3.206   2.721 -0.1374  0.5943  1.6495
 7819TIP3   OH244871   6.220   3.323   5.540 -0.5957  0.2477  0.5317
 7819TIP3    H144872   6.280   3.397   5.546  0.1490 -0.0496 -1.9592
 7819TIP3    H244873   6.209   3.309   5.446 -1.7074 -2.0318  0.9378
 7820TIP3   OH244874   2.699   0.554  17.253  0.5219 -0.3017 -0.6767
 7820TIP3    H144875   2.723   0.578  17.164  0.3336 -0.2323 -0.7093
 7820TIP3    H244876   2.781   0.528  17.294  0.7658  0.6072 -0.5796
 7821TIP3   OH244877   1.283   4.002   4.037 -0.4486 -0.3017  0.4830
 7821TIP3    H144878   1.358   3.942   4.028  1.0064  1.5163 -0.2912
 7821TIP3    H244879   1.228   3.961   4.103  0.3382 -2.5923 -0.1516
 7822TIP3   OH244880   0.090   6.204   0.224  0.2461  0.0352  0.0133
 7822TIP3    H144881   0.177   6.243   0.217 -0.2208  1.0965  0.0337
 7822TIP3    H244882   0.081   6.182   0.317  0.6378 -0.4228 -0.0570
 7823TIP3   OH244883   4.299   0.767  13.069  0.8950 -0.1205 -0.0106
 7823TIP3    H144884   4.219   0.746  13.021  0.7621 -0.0153  0.1626
 7823TIP3    H244885   4.359   0.696  13.049  0.2619 -0.9934  1.0286
 7824TIP3   OH244886   6.731   5.524   0.225  0.0070  0.6642 -0.0420
 7824TIP3    H144887   6.742   5.540   0.132  1.8460  1.4119  0.2529
 7824TIP3    H244888   6.668   5.589   0.254  0.1508  1.0578 -0.6101
 7825TIP3   OH244889   5.608   0.296  11.810 -0.2622  0.2872 -0.4044
 7825TIP3    H144890   5.566   0.350  11.744  0.0580 -0.2185 -1.0296
 7825TIP3    H244891   5.678   0.352  11.846 -1.5101  1.1807  0.7404
 7826TIP3   OH244892   6.081   6.043   0.819  0.4633  0.0505  0.1128
 7826TIP3    H144893   6.110   5.952   0.812  1.3656  0.3699 -0.6866
 7826TIP3    H244894   6.115   6.073   0.903  0.1763 -0.3471  0.3718
 7827TIP3   OH244895   1.292   3.838  15.803 -0.5385  0.2982 -0.6866
 7827TIP3    H144896   1.318   3.788  15.880  2.1387  1.4247 -0.7553
 7827TIP3    H244897   1.369   3.890  15.781 -2.3552  2.5610 -2.1305
 7828TIP3   OH244898   0.505   2.213   3.142 -0.9013 -0.5968 -0.2959
 7828TIP3    H144899   0.586   2.247   3.104 -0.4436  0.3379  1.4103
 7828TIP3    H244900   0.443   2.286   3.135 -0.1397  0.4851  2.6840
 7829TIP3   OH244901   0.901   3.062  13.374 -0.0757 -0.5019 -0.2945
 7829TIP3    H144902   0.808   3.054  13.394  0.1700  0.4444  1.5063
 7829TIP3    H244903   0.933   3.129  13.435  2.3132 -2.6517  1.0644
 7830TIP3   OH244904   2.920   0.823   5.776  0.9075 -0.5964  0.5485
 7830TIP3    H144905   2.839   0.872   5.783  0.3804 -1.2036 -0.7892
 7830TIP3    H244906   2.920   0.764   5.851 -0.4509 -1.3423 -0.0002
 7831TIP3   OH244907   3.968   2.192  14.135 -0.1324 -0.4914  0.0966
 7831TIP3    H144908   3.926   2.268  14.177  0.1935 -0.8493  1.0907
 7831TIP3    H244909   3.961   2.122  14.200 -1.3857 -1.6404 -1.2305
 7832TIP3   OH244910   0.412   2.913  16.717  0.2277 -1.0213 -0.4572
 7832TIP3    H144911   0.356   2.990  16.706 -0.4488 -1.2723  0.9891
 7832TIP3    H244912   0.497   2.940  16.683  0.0607  0.4419  0.2058
 7833TIP3   OH244913   0.765   5.146  11.647 -0.3774  0.2275 -0.1687
 7833TIP3    H144914   0.768   5.082  11.576  0.1761 -0.9163  0.8430
 7833TIP3    H244915   0.802   5.099  11.722 -1.8174  1.0817  1.1222
 7834TIP3   OH244916   3.685   2.464  11.719 -0.3349 -0.6136 -0.1814
 7834TIP3    H144917   3.657   2.383  11.763  0.2254 -1.2052 -0.9077
 7834TIP3    H244918   3.629   2.531  11.758 -0.4969 -1.2669  0.7711
 7835TIP3   OH244919   4.736   2.889   5.447 -0.0343 -0.5592 -0.4614
 7835TIP3    H144920   4.643   2.885   5.424  0.2413 -0.5855 -1.6164
 7835TIP3    H244921   4.748   2.978   5.480 -0.5965 -0.7598  0.3216
 7836TIP3   OH244922   6.314   5.785   5.778  0.9550  0.2842  0.1009
 7836TIP3    H144923   6.333   5.851   5.844  1.3485  0.6688 -0.3850
 7836TIP3    H244924   6.372   5.807   5.705 -0.4320  0.7197 -0.9292
 7837TIP3   OH244925   3.789   2.906   1.432  0.3394  0.2277  0.3016
 7837TIP3    H144926   3.876   2.903   1.471 -0.2514 -0.3975  1.6700
 7837TIP3    H244927   3.734   2.949   1.498 -0.2488  1.3673 -0.8711
 7838TIP3   OH244928   5.250   2.503   5.861  0.3941  0.3230  0.1881
 7838TIP3    H144929   5.209   2.457   5.935 -1.1199  0.7472 -0.3389
 7838TIP3    H244930   5.223   2.452   5.784  0.9599  0.5645 -0.1750
 7839TIP3   OH244931   5.679   1.719  14.510 -0.2204 -0.6423 -0.0204
 7839TIP3    H144932   5.736   1.656  14.466  0.9382 -0.7128  1.4801
 7839TIP3    H244933   5.710   1.804  14.480  1.7998 -0.6039  1.9441
 7840TIP3   OH244934   1.507   4.746  13.493  0.7422 -0.2922  0.1464
 7840TIP3    H144935   1.420   4.716  13.468  0.5875  0.8343 -0.7464
 7840TIP3    H244936   1.493   4.834  13.527  1.4683 -0.3289  0.5587
 7841TIP3   OH244937   6.073   2.664  15.018 -0.2890  0.0137 -0.1136
 7841TIP3    H144938   6.060   2.628  14.930  0.2775 -1.2956  0.3062
 7841TIP3    H244939   6.127   2.742  15.005 -0.0216 -0.2938 -0.9194
 7842TIP3   OH244940   5.995   3.851   1.158 -1.0248 -0.1483  0.0452
 7842TIP3    H144941   6.035   3.929   1.119 -0.5775 -0.5517 -0.3226
 7842TIP3    H244942   5.918   3.834   1.104 -1.0560 -0.0299  0.0520
 7843TIP3   OH244943   3.620   3.993  15.869  0.6950  0.6927  0.1643
 7843TIP3    H144944   3.706   3.995  15.828  0.4780 -1.5915 -0.5650
 7843TIP3    H244945   3.628   3.926  15.937 -0.8043 -0.4789 -0.7472
 7844TIP3   OH244946   4.969   0.948  16.804  0.3338  0.2558 -0.1171
 7844TIP3    H144947   5.065   0.950  16.808  0.2949  0.6681  0.8068
 7844TIP3    H244948   4.941   0.962  16.894 -0.5757 -1.8760 -0.0207
 7845TIP3   OH244949   3.330   1.365  13.941  0.0844 -0.1104 -0.6008
 7845TIP3    H144950   3.253   1.316  13.970 -0.8495  2.8205  2.5578
 7845TIP3    H244951   3.404   1.323  13.985 -0.5233  0.3917  0.9727
 7846TIP3   OH244952   6.219   2.845   4.804 -0.3746 -0.2548 -0.0515
 7846TIP3    H144953   6.289   2.787   4.837 -1.5010 -0.7779  1.5958
 7846TIP3    H244954   6.174   2.874   4.883 -1.6441  0.5560 -1.0388
 7847TIP3   OH244955   1.973   0.477  13.551 -0.5254  0.4371  0.4110
 7847TIP3    H144956   2.007   0.531  13.480 -0.2939  2.0826  1.7134
 7847TIP3    H244957   2.018   0.393  13.541  0.5858  1.1098 -0.5221
 7848TIP3   OH244958   3.058   6.257  11.656 -0.1273 -0.2634  0.0978
 7848TIP3    H144959   3.085   6.348  11.652  0.3731 -0.4522 -1.5503
 7848TIP3    H244960   3.135   6.210  11.688 -0.2842 -0.1602  0.6404
 7849TIP3   OH244961   5.681   0.043   1.650 -0.2175  0.2737 -0.7803
 7849TIP3    H144962   5.729   0.068   1.729  0.7329 -0.0127 -1.2427
 7849TIP3    H244963   5.605   0.100   1.648 -0.8961 -0.5103  0.9615
 7850TIP3   OH244964   0.837   1.168  13.332  0.1010 -0.2868 -0.0468
 7850TIP3    H144965   0.872   1.244  13.378  1.5663 -1.6692  1.2650
 7850TIP3    H244966   0.865   1.179  13.241  0.6030  0.5401  0.2036
 7851TIP3   OH244967   4.573   2.023  13.333 -0.1707  0.0834  0.1927
 7851TIP3    H144968   4.492   2.060  13.368 -0.0877 -1.1961  1.9115
 7851TIP3    H244969   4.643   2.072  13.377  0.0373  1.2899 -1.4003
 7852TIP3   OH244970   6.368   2.659  14.751 -0.0754  0.7470 -0.5187
 7852TIP3    H144971   6.423   2.597  14.799  0.5887 -0.3922 -2.6407
 7852TIP3    H244972   6.337   2.720  14.818  0.7382 -0.7822  1.3396
 7853TIP3   OH244973   6.514   2.785   2.787 -0.7470 -0.1774 -0.4539
 7853TIP3    H144974   6.466   2.826   2.715 -3.7677 -1.8621  0.4397
 7853TIP3    H244975   6.507   2.849   2.859 -0.3097  0.2340 -0.7736
 7854TIP3   OH244976   6.667   2.104   4.583 -0.1296 -0.3182  0.7315
 7854TIP3    H144977   6.705   2.017   4.594  0.6443  0.0181  0.7711
 7854TIP3    H244978   6.587   2.102   4.636  0.2468 -0.7807  1.2931
 7855TIP3   OH244979   2.393   4.590  14.592 -0.3293 -0.5089 -0.2046
 7855TIP3    H144980   2.310   4.590  14.640 -0.7279 -0.0186 -0.8852
 7855TIP3    H244981   2.460   4.583  14.661 -0.9051 -0.2028  0.4037
 7856TIP3   OH244982   1.771   1.997   6.065  0.1525  0.0256  0.4022
 7856TIP3    H144983   1.685   2.016   6.030  0.3649 -2.8506 -2.1618
 7856TIP3    H244984   1.759   1.919   6.119  1.0179 -0.0436  0.5212
 7857TIP3   OH244985   0.214   5.756   0.086 -0.0574 -0.2001  0.0547
 7857TIP3    H144986   0.284   5.692   0.097 -0.7144 -0.8146  0.7894
 7857TIP3    H244987   0.168   5.728   0.006  0.2571 -0.0566 -0.1784
 7858TIP3   OH244988   2.350   1.876   0.878  0.1995  0.8167  0.1729
 7858TIP3    H144989   2.271   1.840   0.838  0.3460 -1.7450  1.9706
 7858TIP3    H244990   2.351   1.968   0.850 -3.3040  0.9214 -0.0251
 7859TIP3   OH244991   5.118   6.385   0.862  0.2339  0.2130  0.2849
 7859TIP3    H144992   5.201   6.386   0.814  0.8761 -3.0381  1.0405
 7859TIP3    H244993   5.144   6.393   0.954 -0.3863  0.1881  0.4628
 7860TIP3   OH244994   6.118   5.413   2.119 -0.0392 -0.4041 -0.1393
 7860TIP3    H144995   6.048   5.416   2.053  0.8075  0.6711 -1.0233
 7860TIP3    H244996   6.079   5.453   2.196 -0.4229  0.1371 -0.6020
 7861TIP3   OH244997   1.667   6.601  15.617 -0.6860 -0.1281 -0.1445
 7861TIP3    H144998   1.749   6.642  15.589  0.4306 -2.5672 -0.7918
 7861TIP3    H244999   1.670   6.605  15.713 -0.5243  1.0525 -0.1884
 7862TIP3   OH245000   2.724   5.527  14.305  0.8899 -0.0918  0.3096
 7862TIP3    H145001   2.635   5.557  14.290  1.3664  0.9974 -0.4651
 7862TIP3    H245002   2.727   5.508  14.399  0.4260  1.9328  0.7906
 7863TIP3   OH245003   0.151   4.560   5.555  0.3556 -0.2281 -0.3921
 7863TIP3    H145004   0.236   4.521   5.573 -0.0664 -0.5858  0.9181
 7863TIP3    H245005   0.090   4.513   5.613 -0.9233 -0.7122 -2.0505
 7864TIP3   OH245006   3.620   5.109  17.018  0.3378 -0.8020 -0.4567
 7864TIP3    H145007   3.712   5.134  17.014 -0.4185  2.2485 -0.7756
 7864TIP3    H245008   3.608   5.050  16.943  1.8780 -0.8023 -0.7268
 7865TIP3   OH245009   6.546   1.559  14.401  0.2744 -0.1315 -0.4754
 7865TIP3    H145010   6.529   1.591  14.489  1.4030  0.6882 -0.5338
 7865TIP3    H245011   6.603   1.483  14.414  1.0727  0.4402 -0.5010
 7866TIP3   OH245012   3.188   3.757  11.683 -0.7349 -0.3805 -0.0900
 7866TIP3    H145013   3.208   3.670  11.716 -1.2592 -0.7997 -0.8500
 7866TIP3    H245014   3.246   3.815  11.732  0.5841 -1.2838 -0.5122
 7867TIP3   OH245015   5.963   4.864   0.815  0.0571  0.6285  0.3069
 7867TIP3    H145016   5.906   4.939   0.799  0.5151  1.0936  0.8370
 7867TIP3    H245017   5.991   4.874   0.906  1.0322  0.4478  0.0322
 7868TIP3   OH245018   2.103   0.139  14.217  1.1021 -0.3685 -0.0265
 7868TIP3    H145019   2.196   0.118  14.210  0.9940 -0.9135  0.1144
 7868TIP3    H245020   2.063   0.059  14.251  0.7754  0.3243  1.2634
 7869TIP3   OH245021   5.719   1.613  13.218  0.9168 -0.3572  0.9775
 7869TIP3    H145022   5.752   1.524  13.208 -1.9272 -1.5778  1.3319
 7869TIP3    H245023   5.701   1.622  13.312 -1.8151 -0.6866  0.5591
 7870TIP3   OH245024   4.710   4.770   3.347 -0.8178 -0.4225  0.2825
 7870TIP3    H145025   4.633   4.786   3.400  0.5589  2.5336  1.5863
 7870TIP3    H245026   4.744   4.857   3.327  1.6956 -1.5969 -0.9829
 7871TIP3   OH245027   2.604   0.612   0.389  0.1854 -0.6991 -0.4449
 7871TIP3    H145028   2.681   0.562   0.362  0.0434 -0.9619 -0.3692
 7871TIP3    H245029   2.591   0.587   0.481  0.8692  0.4391 -0.0163
 7872TIP3   OH245030   0.093   1.526   2.232 -0.2168 -0.4909  0.1766
 7872TIP3    H145031   0.044   1.456   2.189 -0.7054  0.1572 -0.3419
 7872TIP3    H245032   0.059   1.529   2.321 -0.3805 -0.7398  0.1232
 7873TIP3   OH245033   1.865   3.865  15.240 -0.8020  0.1840 -0.1060
 7873TIP3    H145034   1.813   3.796  15.282 -0.4582  0.5748  0.9811
 7873TIP3    H245035   1.934   3.884  15.302 -1.9009  2.7784  0.4435
 7874TIP3   OH245036   4.896   5.830   1.697  0.4897 -0.5238 -0.3913
 7874TIP3    H145037   4.983   5.818   1.659  0.7082 -1.1953  0.3103
 7874TIP3    H245038   4.837   5.784   1.637  0.8339 -1.5725  0.0639
 7875TIP3   OH245039   6.340   5.440  16.721 -0.0593  0.4745 -0.1967
 7875TIP3    H145040   6.347   5.367  16.659 -0.5601 -0.0274  0.3289
 7875TIP3    H245041   6.327   5.398  16.806  0.6064  1.1533  0.2598
 7876TIP3   OH245042   1.781   2.586  11.451 -0.0498  0.1426  0.2782
 7876TIP3    H145043   1.874   2.575  11.430  0.3708  2.6305  0.4746
 7876TIP3    H245044   1.781   2.632  11.535 -1.5052 -0.6197  0.7301
 7877TIP3   OH245045   5.794   3.013   2.158  0.2156 -0.6002  0.1341
 7877TIP3    H145046   5.783   3.020   2.064 -0.5483  1.7609  0.3392
 7877TIP3    H245047   5.864   3.075   2.179  0.6743 -1.4037  1.0982
 7878TIP3   OH245048   6.166   5.042  17.078  0.1057 -0.1361  0.0347
 7878TIP3    H145049   6.149   5.103  17.149 -0.2557  0.1161 -0.2603
 7878TIP3    H245050   6.079   5.016  17.048  0.2257  0.6838 -1.0934
 7879TIP3   OH245051   2.382   5.556  15.164 -0.4439  0.0080  0.0008
 7879TIP3    H145052   2.330   5.498  15.109  1.5441 -1.6046 -0.3101
 7879TIP3    H245053   2.445   5.596  15.105 -0.3294  0.7502  0.6024
 7880TIP3   OH245054   5.623   1.184  15.893 -0.6565  0.0406 -0.0760
 7880TIP3    H145055   5.641   1.267  15.849 -0.4523  0.6782  1.1565
 7880TIP3    H245056   5.653   1.117  15.831  1.8864  0.9628  0.0359
 7881TIP3   OH245057   6.230   0.289   5.758  0.3424 -0.0941  0.2319
 7881TIP3    H145058   6.169   0.270   5.830  1.4404  1.4586  1.6595
 7881TIP3    H245059   6.240   0.384   5.760  0.5163 -0.0101 -1.9358
 7882TIP3   OH245060   0.321   3.684  16.302 -0.1946 -0.0177  0.0403
 7882TIP3    H145061   0.317   3.737  16.382  0.7873  0.8407 -0.4494
 7882TIP3    H245062   0.249   3.717  16.248 -0.0308  0.3423  0.0358
 7883TIP3   OH245063   3.469   1.017   5.795  0.6018 -0.0464  0.0500
 7883TIP3    H145064   3.517   0.946   5.838 -0.1537 -1.1507 -0.8694
 7883TIP3    H245065   3.377   0.997   5.814  0.3168  0.0070 -1.2172
 7884TIP3   OH245066   4.009   0.587  17.136 -0.5286  0.1177  0.1583
 7884TIP3    H145067   3.943   0.555  17.197  1.2532  0.4454  2.4017
 7884TIP3    H245068   4.057   0.509  17.109 -0.5295  0.1063  0.1888
 7885TIP3   OH245069   0.323   3.867  12.428  0.0502 -0.2286 -0.0404
 7885TIP3    H145070   0.330   3.819  12.346 -0.2192 -1.9009  0.8744
 7885TIP3    H245071   0.242   3.917  12.420  0.0212 -0.3908 -0.7953
 7886TIP3   OH245072   3.949   0.746   5.748  0.5698  0.4681  0.5984
 7886TIP3    H145073   3.887   0.818   5.740  0.8527  0.6446 -0.1815
 7886TIP3    H245074   3.924   0.685   5.679  0.4503 -0.0917  1.1320
 7887TIP3   OH245075   2.309   1.530   5.171 -0.1916 -0.3137 -0.5553
 7887TIP3    H145076   2.311   1.445   5.128 -1.7640  0.2993 -1.9140
 7887TIP3    H245077   2.385   1.577   5.135 -1.5356  0.2324 -2.8493
 7888TIP3   OH245078   6.635   0.915   5.167 -0.5239  0.0296 -0.1744
 7888TIP3    H145079   6.666   0.824   5.162  1.2519  0.6579 -1.9179
 7888TIP3    H245080   6.545   0.907   5.199  0.2190 -2.1718  1.6738
 7889TIP3   OH245081   0.297   4.514   1.817  0.0973  0.1556 -0.3886
 7889TIP3    H145082   0.378   4.551   1.854  0.3743  1.0590 -1.8162
 7889TIP3    H245083   0.228   4.569   1.854  0.3305  0.7470 -0.8030
 7890TIP3   OH245084   2.790   1.353   4.115  0.4233 -0.6292 -0.4679
 7890TIP3    H145085   2.750   1.267   4.104 -0.2711 -0.6198  1.5485
 7890TIP3    H245086   2.803   1.385   4.026  0.3877 -2.6625 -1.2495
 7891TIP3   OH245087   0.491   0.359   2.085  0.7236  0.3566 -0.1358
 7891TIP3    H145088   0.490   0.266   2.109  1.2418  0.1120 -1.0130
 7891TIP3    H245089   0.497   0.405   2.169  1.2168 -0.4262  0.2719
 7892TIP3   OH245090   2.308   0.530   0.229  0.1861  0.3430  0.0251
 7892TIP3    H145091   2.255   0.526   0.308  0.2968  1.9385  0.2211
 7892TIP3    H245092   2.392   0.567   0.258  0.7388 -0.3839 -0.5978
 7893TIP3   OH245093   3.446   4.322  11.748 -0.1653 -0.0817 -0.0712
 7893TIP3    H145094   3.522   4.292  11.699  1.5118  0.9659  1.7343
 7893TIP3    H245095   3.410   4.243  11.787  0.4536 -0.5007 -0.3297
 7894TIP3   OH245096   2.034   6.254   4.102  0.1649 -0.2221  0.3860
 7894TIP3    H145097   2.107   6.209   4.061  1.0152 -0.1252  1.7557
 7894TIP3    H245098   2.036   6.226   4.194 -1.5654 -0.2860  0.4404
 7895TIP3   OH245099   1.106   2.890   2.531 -0.0460 -0.6966 -0.6860
 7895TIP3    H145100   1.043   2.822   2.555 -0.5790 -0.2524 -0.8132
 7895TIP3    H245101   1.118   2.942   2.611  0.9395 -1.3835 -0.3716
 7896TIP3   OH245102   0.270   5.013  15.005 -0.3922  0.1481  0.6699
 7896TIP3    H145103   0.223   4.936  15.036 -1.3804 -0.7571 -2.7256
 7896TIP3    H245104   0.217   5.087  15.033 -2.5858 -0.7401 -0.9012
 7897TIP3   OH245105   0.949   1.144   5.442  0.3536 -0.3000  0.7231
 7897TIP3    H145106   0.911   1.083   5.379 -1.1555 -1.1181  2.3425
 7897TIP3    H245107   1.043   1.125   5.440  0.1358 -1.3966 -0.1251
 7898TIP3   OH245108   2.863   4.785   1.055 -0.2273 -0.6125  0.3373
 7898TIP3    H145109   2.832   4.860   1.106 -0.3151  0.7930 -1.6865
 7898TIP3    H245110   2.955   4.805   1.036 -0.5132 -0.5142 -1.0335
 7899TIP3   OH245111   1.088   4.263   1.452 -0.0457  0.0141 -0.0788
 7899TIP3    H145112   1.052   4.240   1.367 -1.3656  0.3465  0.3686
 7899TIP3    H245113   1.054   4.351   1.470  1.5449  0.6440  0.0849
 7900TIP3   OH245114   4.221   1.004   2.028  0.5335 -0.6352 -0.3729
 7900TIP3    H145115   4.171   0.934   2.069 -1.5256 -1.0157 -3.2408
 7900TIP3    H245116   4.238   0.973   1.939 -1.9228  2.9522 -2.3912
 7901TIP3   OH245117   5.500   0.015  15.652 -0.1991 -0.1884 -0.4447
 7901TIP3    H145118   5.592   0.035  15.669 -0.1077  0.1367 -1.2995
 7901TIP3    H245119   5.501  -0.071  15.609 -0.1296  0.6210 -2.1460
 7902TIP3   OH245120   1.055   2.924   4.257 -0.1930 -0.9439  0.3167
 7902TIP3    H145121   1.102   2.888   4.332 -0.3772 -0.3157  0.7390
 7902TIP3    H245122   1.020   2.847   4.211  2.8106 -1.6081 -1.1204
 7903TIP3   OH245123   2.325   3.196   5.078 -0.3649 -0.0629  0.4803
 7903TIP3    H145124   2.340   3.258   5.149  0.2015  2.3522 -1.5872
 7903TIP3    H245125   2.264   3.242   5.020 -0.9038 -1.9967 -0.5682
 7904TIP3   OH245126   5.189   5.559   5.352  0.2514  0.0893 -0.4182
 7904TIP3    H145127   5.245   5.557   5.430  0.5365 -0.1328 -0.6253
 7904TIP3    H245128   5.241   5.603   5.286  0.3288 -0.4381 -0.7183
 7905TIP3   OH245129   6.315   0.429  15.487 -0.2393  0.5446  0.8971
 7905TIP3    H145130   6.235   0.383  15.462  0.5134  0.6671 -2.0518
 7905TIP3    H245131   6.312   0.511  15.437  1.7645  0.4951  0.6317
 7906TIP3   OH245132   3.842   5.471   6.145 -0.3081  0.7507  0.3009
 7906TIP3    H145133   3.788   5.536   6.100  0.5519  0.4705 -1.1788
 7906TIP3    H245134   3.779   5.421   6.197 -1.2734  1.4034 -0.2029
 7907TIP3   OH245135   3.387   2.181  12.679 -0.3149  0.0725 -0.2450
 7907TIP3    H145136   3.420   2.269  12.695 -0.3244 -0.2001  1.4450
 7907TIP3    H245137   3.333   2.190  12.601 -0.4220  1.5934 -0.0353
 7908TIP3   OH245138   5.580   6.679   5.965  0.1758  0.0609  0.3421
 7908TIP3    H145139   5.568   6.694   5.872  0.7241 -1.5997 -0.0261
 7908TIP3    H245140   5.492   6.671   6.000 -0.0226 -1.6838 -0.4803
 7909TIP3   OH245141   0.643   4.835   4.993 -0.2007  0.2849  0.1453
 7909TIP3    H145142   0.620   4.911   4.939 -0.0854  0.3908  0.2446
 7909TIP3    H245143   0.612   4.859   5.081 -1.0061 -0.1668 -0.0079
 7910TIP3   OH245144   0.297   5.761   5.835 -0.7698 -0.5490  0.0524
 7910TIP3    H145145   0.281   5.667   5.839 -0.1789 -0.6940 -0.8531
 7910TIP3    H245146   0.390   5.770   5.817 -1.0388  0.1778 -1.1177
 7911TIP3   OH245147   6.465   1.821   1.408 -0.2997  0.7167 -0.6280
 7911TIP3    H145148   6.549   1.781   1.434 -0.8875  0.5414  1.1675
 7911TIP3    H245149   6.446   1.783   1.323  2.1378  1.8711 -1.8069
 7912TIP3   OH245150   3.207   3.237  11.857 -0.0096  0.3419  0.6134
 7912TIP3    H145151   3.195   3.154  11.811  0.2479 -0.0421  1.2272
 7912TIP3    H245152   3.207   3.213  11.950  1.5730  0.8305  0.7633
 7913TIP3   OH245153   0.267   4.918   3.030  0.3044 -0.2211  0.0304
 7913TIP3    H145154   0.258   4.843   2.970  0.0504  1.2802 -1.9072
 7913TIP3    H245155   0.357   4.948   3.018  0.3448 -0.0903  0.6459
 7914TIP3   OH245156   2.437   6.089   0.943 -0.4428 -0.2248 -0.5265
 7914TIP3    H145157   2.383   6.012   0.922  0.5705 -1.2201  0.3673
 7914TIP3    H245158   2.375   6.162   0.942 -1.4866 -1.0710 -1.1687
 7915TIP3   OH245159   1.526   1.873  14.670  0.0442  0.4847  0.0552
 7915TIP3    H145160   1.619   1.870  14.693  0.0277  2.3059  0.5961
 7915TIP3    H245161   1.485   1.813  14.731  0.6315  1.4248  1.4510
 7916TIP3   OH245162   0.692   2.403  14.971 -0.0608  0.2140 -0.0229
 7916TIP3    H145163   0.701   2.497  14.952  0.1348  0.3475  0.7098
 7916TIP3    H245164   0.769   2.382  15.024 -1.2404  0.1707  1.7669
 7917TIP3   OH245165   4.930   6.574   5.879  0.2357  0.3514  0.1761
 7917TIP3    H145166   4.960   6.568   5.789  0.3952  0.9048  0.1937
 7917TIP3    H245167   5.008   6.558   5.932 -0.2031 -1.9068  0.2411
 7918TIP3   OH245168   0.265   3.938   2.200  0.4259  0.2268  0.0589
 7918TIP3    H145169   0.179   3.964   2.166 -0.4749 -0.3684  1.7396
 7918TIP3    H245170   0.255   3.942   2.295  2.2602  0.0882  0.2951
 7919TIP3   OH245171   3.116   0.912  12.810 -0.3287 -0.0080  0.1844
 7919TIP3    H145172   3.184   0.860  12.766 -1.7198 -0.2826 -1.7536
 7919TIP3    H245173   3.162   0.991  12.840  1.0110 -0.5613 -0.3393
 7920TIP3   OH245174   1.752   2.443  14.378 -0.1668 -0.0614 -0.4161
 7920TIP3    H145175   1.682   2.386  14.412  0.2355 -0.4800 -0.2746
 7920TIP3    H245176   1.825   2.428  14.438  0.1959  0.0178 -0.8382
 7921TIP3   OH245177   4.593   1.723   1.294  0.1900  0.5250  0.4120
 7921TIP3    H145178   4.499   1.728   1.312  0.5884  0.0484  3.0672
 7921TIP3    H245179   4.608   1.791   1.229 -1.8291  1.2913  0.6607
 7922TIP3   OH245180   5.276   4.640   4.538  0.1104 -0.0319 -0.1951
 7922TIP3    H145181   5.305   4.635   4.447 -0.9184  0.3300 -0.5484
 7922TIP3    H245182   5.220   4.564   4.550  0.8131 -0.4812  0.3606
 7923TIP3   OH245183   0.094   0.690  13.919 -0.5034  0.5243 -0.0537
 7923TIP3    H145184   0.062   0.702  13.830 -0.1169  0.5049 -0.1992
 7923TIP3    H245185   0.188   0.710  13.913 -0.6403  1.4023  0.5239
 7924TIP3   OH245186   2.316   0.758   3.061 -0.2324 -0.1232 -0.1068
 7924TIP3    H145187   2.300   0.767   3.155 -0.4190 -0.1208 -0.1386
 7924TIP3    H245188   2.411   0.765   3.052 -0.3438  1.7031 -0.1203
 7925TIP3   OH245189   6.649   5.579   3.220  0.3586  0.8576  0.4055
 7925TIP3    H145190   6.641   5.601   3.313  0.0621  0.3919  0.4909
 7925TIP3    H245191   6.617   5.489   3.213  2.0839  0.2124  0.1636
 7926TIP3   OH245192   5.283   1.779  12.315 -0.0499 -0.2464 -0.3724
 7926TIP3    H145193   5.308   1.865  12.281 -0.5017 -0.0250 -0.1545
 7926TIP3    H245194   5.264   1.728  12.237  0.1061 -0.1148 -0.4990
 7927TIP3   OH245195   6.145   6.524  16.414  0.5200 -0.3022 -0.0221
 7927TIP3    H145196   6.063   6.551  16.375  0.4736 -2.2523 -1.4433
 7927TIP3    H245197   6.210   6.585  16.379  0.4019 -1.6730 -2.9607
 7928TIP3   OH245198   0.915   4.574  12.984 -0.2084  0.2260  0.3471
 7928TIP3    H145199   0.826   4.538  12.979  0.1439 -0.4774 -1.7387
 7928TIP3    H245200   0.905   4.665  12.955 -0.1055 -0.2059 -1.1336
 7929TIP3   OH245201   0.580   3.799   3.808 -0.2737 -0.1995  0.1936
 7929TIP3    H145202   0.511   3.807   3.742 -1.6584 -0.6257  1.5125
 7929TIP3    H245203   0.609   3.889   3.823 -0.0358 -0.0865 -0.8734
 7930TIP3   OH245204   0.424   1.229  10.703  0.2264  0.2758  0.4580
 7930TIP3    H145205   0.363   1.258  10.636 -0.4889 -1.6195  0.2239
 7930TIP3    H245206   0.420   1.297  10.771 -2.6180 -0.0507  0.7273
 7931TIP3   OH245207   5.672   2.647  14.403  0.3305 -0.7853  0.3637
 7931TIP3    H145208   5.616   2.674  14.476  0.5771 -0.5088  0.4551
 7931TIP3    H245209   5.620   2.582  14.356  0.3354 -1.2880  1.0325
 7932TIP3   OH245210   6.108   4.322  11.456 -0.2811 -0.0310 -0.2886
 7932TIP3    H145211   6.149   4.332  11.370 -2.4333  0.8350 -1.2971
 7932TIP3    H245212   6.069   4.235  11.454 -0.9778  0.2752 -0.5234
 7933TIP3   OH245213   5.794   0.482  16.490  0.0810  0.0666 -0.0354
 7933TIP3    H145214   5.756   0.415  16.546  0.4347  1.0266  1.3926
 7933TIP3    H245215   5.847   0.535  16.548  0.4194  1.1375 -1.2749
 7934TIP3   OH245216   5.615   6.062   3.601  0.0841 -0.3016 -0.2132
 7934TIP3    H145217   5.539   6.011   3.575 -0.2846 -0.5908  1.2890
 7934TIP3    H245218   5.612   6.062   3.697 -0.6294  3.5601 -0.0864
 7935TIP3   OH245219   4.749   5.951   3.532 -0.1430 -0.6255  0.4863
 7935TIP3    H145220   4.771   6.040   3.559  1.3849 -0.9668  0.4695
 7935TIP3    H245221   4.656   5.941   3.554 -0.3347  0.9547  0.4956
 7936TIP3   OH245222   6.265   6.784  16.339  0.3799  0.3122  0.0237
 7936TIP3    H145223   6.354   6.778  16.373 -0.0566  1.6199  1.5281
 7936TIP3    H245224   6.271   6.850  16.270  0.5476  0.5399  0.2516
 7937TIP3   OH245225   3.571   1.304   2.385  0.2463  0.2624  0.3079
 7937TIP3    H145226   3.524   1.224   2.409 -0.5260  0.7521  0.4351
 7937TIP3    H245227   3.662   1.275   2.375  0.0730 -0.5287  0.8869
 7938TIP3   OH245228   6.283   5.366  16.386  0.0718  0.4482  0.5498
 7938TIP3    H145229   6.203   5.346  16.433  0.2339 -0.4392  0.4634
 7938TIP3    H245230   6.259   5.364  16.294  0.0011  1.0867  0.5468
 7939TIP3   OH245231   2.638   2.322  12.921  0.2317 -0.0020 -0.2340
 7939TIP3    H145232   2.704   2.377  12.964 -1.1754  0.9201  0.8266
 7939TIP3    H245233   2.574   2.385  12.887 -1.1091 -0.9572  0.4613
 7940TIP3   OH245234   5.818   0.268   6.114 -0.3062  0.0175  0.0348
 7940TIP3    H145235   5.724   0.272   6.099 -0.2466 -1.7105 -1.0405
 7940TIP3    H245236   5.836   0.343   6.172 -2.3343  0.3032  0.3786
 7941TIP3   OH245237   4.967   1.514  12.810  0.3527  0.1184 -0.3152
 7941TIP3    H145238   4.978   1.458  12.887 -1.2250  0.3944  0.1552
 7941TIP3    H245239   4.911   1.586  12.840  2.1364  1.8701 -0.9600
 7942TIP3   OH245240   5.520   2.548  13.261  0.6796 -0.7295 -0.5702
 7942TIP3    H145241   5.595   2.570  13.317  1.5614  0.3354 -2.0901
 7942TIP3    H245242   5.560   2.526  13.176 -0.7854  2.2408 -2.1624
 7943TIP3   OH245243   0.003   2.224   3.642  0.1230  0.3237 -0.0637
 7943TIP3    H145244   0.075   2.183   3.691  1.1289  0.3516 -1.4497
 7943TIP3    H245245   0.046   2.266   3.568 -1.2418  1.2304 -0.3775
 7944TIP3   OH245246   2.073   1.635  16.041  0.0985 -0.0928 -0.4863
 7944TIP3    H145247   2.007   1.566  16.038  1.3174 -1.2683 -1.4743
 7944TIP3    H245248   2.072   1.672  15.952  2.1662 -1.5586 -1.1970
 7945TIP3   OH245249   4.632   6.704   4.357 -0.3888  0.2706  0.0245
 7945TIP3    H145250   4.625   6.758   4.436  1.7104  0.1310  0.3703
 7945TIP3    H245251   4.680   6.758   4.295  1.3518 -0.9793  0.2222
 7946TIP3   OH245252   1.005   0.656   1.225  0.3859 -0.6108 -0.3768
 7946TIP3    H145253   0.972   0.700   1.303 -1.5355 -0.5228 -1.1986
 7946TIP3    H245254   0.945   0.583   1.211  0.0753 -0.0363 -2.3362
 7947TIP3   OH245255   1.521   0.382  16.397 -0.0503  0.3057  0.0173
 7947TIP3    H145256   1.496   0.315  16.334 -0.5735 -0.4278  0.9664
 7947TIP3    H245257   1.586   0.339  16.453  0.6100  1.0313 -0.1789
 7948TIP3   OH245258   4.979   3.328   0.079 -0.2114  0.0806 -0.1029
 7948TIP3    H145259   4.920   3.259   0.049  0.8645 -0.5752 -0.8015
 7948TIP3    H245260   5.066   3.293   0.062  0.3635  1.7345 -0.7773
 7949TIP3   OH245261   4.653   6.341  12.677 -0.7879  0.1880  0.2237
 7949TIP3    H145262   4.600   6.363  12.754  0.2787 -0.3352  1.1247
 7949TIP3    H245263   4.618   6.257  12.647 -0.0852 -0.4741  1.1986
 7950TIP3   OH245264   0.283   2.960  14.244  0.1524  0.0644 -0.2317
 7950TIP3    H145265   0.353   3.013  14.207 -0.1212 -0.3416 -1.3781
 7950TIP3    H245266   0.209   3.021  14.253  0.5223  0.4059  0.6408
 7951TIP3   OH245267   3.556   4.967  15.597  0.4290 -0.2015 -0.0402
 7951TIP3    H145268   3.565   4.896  15.532  0.7121  0.1760 -0.4145
 7951TIP3    H245269   3.645   4.990  15.621  0.3270 -0.2491  0.3928
 7952TIP3   OH245270   1.179   4.969  16.982 -0.4790  0.8094  0.6480
 7952TIP3    H145271   1.239   5.040  17.005 -0.5254  1.0198  0.1419
 7952TIP3    H245272   1.116   4.966  17.054  0.5218  0.1297  1.5332
 7953TIP3   OH245273   3.952   0.001  15.109  0.4414  0.0191 -0.0253
 7953TIP3    H145274   3.982   0.068  15.048  1.4694 -0.1110  0.3250
 7953TIP3    H245275   3.935  -0.076  15.054  1.4314 -0.1215 -0.1481
 7954TIP3   OH245276   0.614   6.612   3.003 -0.1498 -0.4246  0.3311
 7954TIP3    H145277   0.540   6.631   3.060  0.3306 -1.4046  1.3203
 7954TIP3    H245278   0.677   6.567   3.059 -0.0186 -2.2305 -1.1492
 7955TIP3   OH245279   3.372   4.963  13.505  0.2140 -0.3101 -0.2087
 7955TIP3    H145280   3.398   4.974  13.414  0.9068  2.0757  0.1895
 7955TIP3    H245281   3.387   5.049  13.544 -1.1463 -0.9529  1.8960
 7956TIP3   OH245282   5.440   5.532  16.822  0.2092 -0.4086 -0.5634
 7956TIP3    H145283   5.474   5.541  16.733  2.1129  0.0372  0.1431
 7956TIP3    H245284   5.455   5.441  16.845  0.7266 -0.2792 -0.3544
 7957TIP3   OH245285   3.316   4.844  16.509 -0.7048 -0.1552  0.0859
 7957TIP3    H145286   3.251   4.821  16.442 -0.1358  0.7739 -0.8183
 7957TIP3    H245287   3.394   4.794  16.485 -1.0680 -1.3258  1.2137
 7958TIP3   OH245288   6.260   3.177   6.652 -0.2413 -0.3277 -0.2839
 7958TIP3    H145289   6.301   3.097   6.684 -0.4354 -0.0507  0.6960
 7958TIP3    H245290   6.326   3.245   6.665 -0.2166 -0.2561 -0.7566
 7959TIP3   OH245291   4.986   6.163   3.263 -0.5859 -0.0890 -0.3916
 7959TIP3    H145292   4.996   6.156   3.358  0.4268  1.6244 -0.3351
 7959TIP3    H245293   5.074   6.151   3.229 -1.2460 -3.0157 -1.3610
 7960TIP3   OH245294   4.413   0.358   4.905  0.0436  0.2359  0.5004
 7960TIP3    H145295   4.435   0.314   4.987  1.4422  0.5558  0.3232
 7960TIP3    H245296   4.492   0.350   4.852 -0.7876  0.1851 -0.7562
 7961TIP3   OH245297   3.332   5.383  15.081  0.3231 -0.5434  0.2744
 7961TIP3    H145298   3.333   5.287  15.084  1.4328 -0.6733 -2.0707
 7961TIP3    H245299   3.344   5.404  14.988 -1.2837  1.8826  0.5304
 7962TIP3   OH245300   5.734   5.653  16.357 -0.1207  0.2522  0.1171
 7962TIP3    H145301   5.686   5.734  16.375 -1.3378 -0.6882  1.2988
 7962TIP3    H245302   5.666   5.587  16.342  0.8544 -0.3265 -2.0547
 7963TIP3   OH245303   5.582   2.798  17.136  0.6102  0.2819 -0.2212
 7963TIP3    H145304   5.533   2.806  17.054  0.5860  1.0624 -0.1369
 7963TIP3    H245305   5.531   2.848  17.199 -0.7404 -2.3505  0.9237
 7964TIP3   OH245306   4.284   0.199   5.456  0.0931  0.3682  0.3007
 7964TIP3    H145307   4.350   0.130   5.464 -0.6727 -0.5882 -1.1612
 7964TIP3    H245308   4.202   0.156   5.483 -0.0725  1.3437  1.4264
 7965TIP3   OH245309   1.696   0.228   2.905 -0.4132 -0.3127 -0.2876
 7965TIP3    H145310   1.768   0.273   2.950 -0.8919  0.0314  0.1382
 7965TIP3    H245311   1.724   0.137   2.902 -0.2142 -0.2820  0.4034
 7966TIP3   OH245312   1.370   5.242  13.138 -0.1416 -0.1589  0.2349
 7966TIP3    H145313   1.377   5.252  13.233 -3.2686 -2.1019  0.7835
 7966TIP3    H245314   1.424   5.166  13.117 -0.2464 -0.3289  0.5908
 7967TIP3   OH245315   3.885   4.856  10.644 -0.3109 -0.3536 -0.5675
 7967TIP3    H145316   3.804   4.824  10.684  0.3585 -0.2321  0.9477
 7967TIP3    H245317   3.857   4.931  10.592 -1.0574  0.4205  0.8771
 7968TIP3   OH245318   2.168   5.715   5.965  0.0459  0.2929 -0.4450
 7968TIP3    H145319   2.128   5.642   5.919  0.4050  0.8674 -1.7593
 7968TIP3    H245320   2.129   5.715   6.052  0.0917 -1.4796 -0.3930
 7969TIP3   OH245321   3.864   3.114  14.341  0.1659 -0.0550 -0.4441
 7969TIP3    H145322   3.774   3.137  14.317 -1.1552 -3.2405  0.7965
 7969TIP3    H245323   3.910   3.107  14.257 -0.4983  2.2223 -1.0674
 7970TIP3   OH245324   6.320   2.058  12.078  0.1537 -0.3505 -0.8328
 7970TIP3    H145325   6.247   2.012  12.037  0.0383 -0.8893 -0.0534
 7970TIP3    H245326   6.344   2.126  12.015  1.2121 -2.3100 -2.7045
 7971TIP3   OH245327   1.447   3.824  13.395  0.0153  0.0963 -0.1798
 7971TIP3    H145328   1.505   3.887  13.351 -1.3056  2.2990  1.0253
 7971TIP3    H245329   1.363   3.835  13.351 -0.1122 -1.2920 -0.3171
 7972TIP3   OH245330   6.542   5.611   3.650 -0.0927  0.1577  0.6236
 7972TIP3    H145331   6.447   5.602   3.651  0.0136 -1.1622  0.5540
 7972TIP3    H245332   6.560   5.670   3.577 -0.8256 -0.0010  0.3034
 7973TIP3   OH245333   3.236   1.306   1.229 -0.5969 -0.7186  0.3332
 7973TIP3    H145334   3.182   1.321   1.152 -1.0707 -1.9120  0.4018
 7973TIP3    H245335   3.191   1.351   1.300 -1.9247 -2.2392  0.5270
 7974TIP3   OH245336   5.683   5.133  16.359 -0.0649 -0.0609 -0.0848
 7974TIP3    H145337   5.611   5.195  16.360 -1.4389 -1.5856  1.2010
 7974TIP3    H245338   5.735   5.155  16.436  0.5718  0.7113 -0.7237
 7975TIP3   OH245339   6.336   4.162   5.875  0.0347 -0.3470  0.0004
 7975TIP3    H145340   6.414   4.136   5.924  0.1059 -1.6300 -0.7458
 7975TIP3    H245341   6.270   4.180   5.942  0.9431  0.7014  0.6368
 7976TIP3   OH245342   4.169   1.892  14.381 -0.3061  0.3911 -0.1933
 7976TIP3    H145343   4.079   1.924  14.379 -0.5699 -0.3449 -0.2730
 7976TIP3    H245344   4.163   1.802  14.350  0.3045 -0.0450  0.9039
 7977TIP3   OH245345   3.074   3.820   4.848 -0.1468  0.0595  0.0495
 7977TIP3    H145346   2.998   3.797   4.902  0.0542 -0.6830  0.0383
 7977TIP3    H245347   3.069   3.914   4.836 -0.7593  0.0863  0.5180
 7978TIP3   OH245348   5.074   4.391  11.337  0.4358  0.2070 -0.1740
 7978TIP3    H145349   5.091   4.312  11.286  1.6625 -0.5923  1.3870
 7978TIP3    H245350   5.051   4.457  11.272 -0.4698 -1.3732 -1.5393
 7979TIP3   OH245351   4.733   6.321  16.980 -0.2801 -0.3949 -0.2281
 7979TIP3    H145352   4.827   6.306  16.991 -0.4736 -0.7387  1.1399
 7979TIP3    H245353   4.723   6.416  16.985 -0.0939 -0.4075  0.4782
 7980TIP3   OH245354   2.917   0.705  12.811 -0.4066 -0.3196 -0.2931
 7980TIP3    H145355   2.942   0.644  12.741 -0.6215 -0.2637 -0.4193
 7980TIP3    H245356   2.995   0.759  12.825 -0.1044 -0.8424  0.0531
 7981TIP3   OH245357   1.770   0.965  14.049  0.7505  0.4087 -0.0904
 7981TIP3    H145358   1.760   0.974  13.954  2.4304  0.2242 -0.3120
 7981TIP3    H245359   1.841   1.025  14.071  1.1961 -0.4464  0.8561
 7982TIP3   OH245360   2.223   3.432  11.974 -0.3725 -0.0298  0.1476
 7982TIP3    H145361   2.171   3.408  11.897  1.1341  1.0523 -1.2761
 7982TIP3    H245362   2.307   3.387  11.962  0.1368  0.7108  0.7743
 7983TIP3   OH245363   2.265   2.010  16.618  1.0449  0.4250 -0.4509
 7983TIP3    H145364   2.329   2.070  16.580  1.6944 -1.6328 -2.8437
 7983TIP3    H245365   2.316   1.936  16.650  0.0303 -0.3295 -0.5158
 7984TIP3   OH245366   1.938   3.169  15.204  0.3084 -0.9220 -0.1093
 7984TIP3    H145367   1.894   3.111  15.142 -2.8613 -0.6678  1.6704
 7984TIP3    H245368   1.870   3.231  15.231  3.2239  3.2922 -1.2947
 7985TIP3   OH245369   4.380   2.567   4.931 -0.0941 -0.3018  0.2565
 7985TIP3    H145370   4.302   2.515   4.948 -0.7022 -0.1977 -1.9970
 7985TIP3    H245371   4.405   2.601   5.017 -2.6482 -0.1537  1.0094
 7986TIP3   OH245372   0.564   1.614   4.301 -0.0309  0.4573  0.1807
 7986TIP3    H145373   0.558   1.689   4.242 -4.8876 -0.6907 -1.2618
 7986TIP3    H245374   0.582   1.539   4.244 -1.0974 -0.1747  0.6286
 7987TIP3   OH245375   3.728   5.999   0.541  0.3106 -0.6597  0.6361
 7987TIP3    H145376   3.739   5.913   0.501 -0.2490 -0.7211  0.6052
 7987TIP3    H245377   3.644   5.994   0.585  0.0855  0.0061  0.2906
 7988TIP3   OH245378   4.691   2.745  15.264  0.1991 -0.1534  0.2258
 7988TIP3    H145379   4.786   2.733  15.261  0.1786 -0.3439  0.3046
 7988TIP3    H245380   4.672   2.809  15.195  0.3867 -0.1019  0.2222
 7989TIP3   OH245381   6.024   4.615  16.939  0.1593  0.4702  0.1997
 7989TIP3    H145382   6.013   4.574  17.025  1.4297 -0.5645 -0.1008
 7989TIP3    H245383   5.958   4.684  16.936  2.7996  3.5111  3.7445
 7990TIP3   OH245384   0.551   3.188  14.077 -0.1545  0.5368  0.2874
 7990TIP3    H145385   0.646   3.201  14.074  0.0176 -0.4439  0.9321
 7990TIP3    H245386   0.514   3.273  14.054  0.8689  0.4676 -1.8442
 7991TIP3   OH245387   3.666   2.454  13.940  0.4123  0.3968 -0.3049
 7991TIP3    H145388   3.709   2.501  14.011  0.9823 -0.8714  0.2240
 7991TIP3    H245389   3.576   2.441  13.970  0.0405  1.7334 -0.7635
 7992TIP3   OH245390   5.712   1.296  16.695 -1.0123 -0.2135 -0.7513
 7992TIP3    H145391   5.658   1.336  16.763 -0.9730  0.5029 -1.1313
 7992TIP3    H245392   5.650   1.264  16.630 -1.0174 -0.2261 -0.7405
 7993TIP3   OH245393   3.135   4.671  17.103 -0.9779 -0.0062  0.0445
 7993TIP3    H145394   3.142   4.612  17.028 -0.8545  0.6342 -0.4556
 7993TIP3    H245395   3.105   4.754  17.066  0.9951  0.9313  0.3746
 7994TIP3   OH245396   4.505   2.344   6.105 -0.5997 -0.5188  0.4008
 7994TIP3    H145397   4.474   2.419   6.053  1.1858  0.7944  1.1181
 7994TIP3    H245398   4.459   2.351   6.188 -1.8573 -1.3697 -0.1985
 7995TIP3   OH245399   0.064   6.293   1.168 -0.3825 -0.2890  0.1770
 7995TIP3    H145400   0.058   6.228   1.098 -0.0239 -0.7442  0.5693
 7995TIP3    H245401   0.104   6.247   1.241  0.0770  0.4319  0.3898
 7996TIP3   OH245402   4.494   1.860  11.385  0.1542  0.1609  0.4325
 7996TIP3    H145403   4.405   1.886  11.359  0.3732 -0.6995 -1.2864
 7996TIP3    H245404   4.551   1.896  11.317  1.4206  2.3627  2.4873
 7997TIP3   OH245405   4.504   1.479  12.375 -0.1633  0.5903 -0.2554
 7997TIP3    H145406   4.594   1.509  12.391  0.1279 -0.1324 -0.4743
 7997TIP3    H245407   4.513   1.417  12.302 -0.7191 -0.1420  0.2876
 7998TIP3   OH245408   3.124   2.747   3.376 -0.0095 -0.0947 -0.0510
 7998TIP3    H145409   3.143   2.805   3.450  0.7598 -1.0316  0.5173
 7998TIP3    H245410   3.051   2.788   3.331  0.1244  0.9920  0.6890
 7999TIP3   OH245411   6.138   1.368   0.456  0.4255  0.3246  0.0544
 7999TIP3    H145412   6.079   1.414   0.397 -2.0805 -0.7751  1.5070
 7999TIP3    H245413   6.156   1.285   0.413 -0.4311  0.0150  0.2661
 8000TIP3   OH245414   2.974   0.753  14.274  0.4720  0.4666 -0.3797
 8000TIP3    H145415   2.978   0.712  14.188  0.5045  0.3033 -0.3023
 8000TIP3    H245416   3.042   0.820  14.272  0.3680  0.5678 -0.5339
 8001TIP3   OH245417   1.817   4.530   0.243  0.3384  0.6016 -0.5309
 8001TIP3    H145418   1.762   4.548   0.319 -0.4377 -1.2488 -0.6065
 8001TIP3    H245419   1.888   4.476   0.277  0.0646 -0.1202 -1.0812
 8002TIP3   OH245420   6.572   6.504  11.089 -0.3937 -0.6535  0.0800
 8002TIP3    H145421   6.513   6.508  11.014 -1.4209 -0.5704  0.8703
 8002TIP3    H245422   6.625   6.425  11.074  1.0126  0.5732 -1.8408
 8003TIP3   OH245423   5.061   4.088   6.377 -0.3056 -0.0544  0.2474
 8003TIP3    H145424   5.005   4.015   6.403  0.6604 -0.6321  0.7469
 8003TIP3    H245425   5.120   4.101   6.451 -0.2114  0.9867  0.0026
 8004TIP3   OH245426   2.504   4.359  16.175 -0.4467 -0.2358 -0.1991
 8004TIP3    H145427   2.426   4.371  16.121  0.6669 -0.6474 -1.9739
 8004TIP3    H245428   2.567   4.422  16.141  0.5721 -1.0909  0.0470
 8005TIP3   OH245429   4.772   3.849   4.694 -0.3519  0.0077 -0.2849
 8005TIP3    H145430   4.832   3.775   4.698 -1.0991 -0.5922 -0.0006
 8005TIP3    H245431   4.774   3.877   4.603  0.6737  0.2797 -0.2022
 8006TIP3   OH245432   6.250   1.372  14.415 -0.0798  0.6859  0.7916
 8006TIP3    H145433   6.249   1.401  14.506  1.9907  0.3052  0.9697
 8006TIP3    H245434   6.216   1.283  14.418  1.3633  0.1250  1.4426
 8007TIP3   OH245435   6.731   2.716   0.284 -0.2605 -0.4913  0.4585
 8007TIP3    H145436   6.752   2.750   0.197  1.3312 -3.2022 -0.3268
 8007TIP3    H245437   6.749   2.789   0.344  0.2376  0.8927 -1.3158
 8008TIP3   OH245438   2.010   6.289  14.392  0.0709  0.2674 -0.9470
 8008TIP3    H145439   2.098   6.257  14.413 -0.5431 -0.1039  1.3973
 8008TIP3    H245440   1.989   6.349  14.463 -2.4410 -1.4444 -0.0903
 8009TIP3   OH245441   5.256   0.983  14.248  0.3903 -0.2525 -0.3249
 8009TIP3    H145442   5.256   0.899  14.294  1.2391 -0.0432  0.0635
 8009TIP3    H245443   5.220   1.046  14.311 -0.8863 -0.4186 -0.8377
 8010TIP3   OH245444   4.572   6.765   5.893 -0.2049 -0.3207 -0.2852
 8010TIP3    H145445   4.484   6.791   5.864 -0.6379  1.6985  2.4573
 8010TIP3    H245446   4.613   6.846   5.921  3.3337 -0.9155 -3.0823
 8011TIP3   OH245447   4.374   3.642   0.978  0.3526 -0.5535  0.0468
 8011TIP3    H145448   4.361   3.733   0.953 -0.1403 -0.5988  0.1124
 8011TIP3    H245449   4.451   3.642   1.034  0.3838 -0.1839  0.0033
 8012TIP3   OH245450   5.086   4.421   0.447  0.3243 -0.7678 -0.3279
 8012TIP3    H145451   5.092   4.422   0.351  1.2504  2.2254 -0.3189
 8012TIP3    H245452   4.994   4.439   0.465  0.5861  1.1278 -0.7152
 8013TIP3   OH245453   5.837   4.065   1.848 -0.3228 -0.2409  0.0907
 8013TIP3    H145454   5.911   4.082   1.790 -0.1606 -1.5023 -0.0847
 8013TIP3    H245455   5.780   4.007   1.799 -0.9810 -0.0193  0.5821
 8014TIP3   OH245456   1.287   1.310  14.997  0.1141  0.4937  0.3735
 8014TIP3    H145457   1.296   1.356  15.081  1.9106  0.4525  0.2528
 8014TIP3    H245458   1.296   1.218  15.019  1.9549  0.5454  0.0426
 8015TIP3   OH245459   6.397   1.669   1.948 -0.0414  0.2562  0.1838
 8015TIP3    H145460   6.479   1.666   1.997 -0.1084  0.9884  0.3534
 8015TIP3    H245461   6.397   1.589   1.896  1.4845  0.9353 -0.9390
 8016TIP3   OH245462   4.102   1.515  13.597  0.2325  0.1750  0.7625
 8016TIP3    H145463   4.065   1.587  13.648  1.7127  2.5439 -1.2636
 8016TIP3    H245464   4.196   1.521  13.611  0.4871 -0.5125 -0.4902
 8017TIP3   OH245465   4.493   1.341   0.095 -0.6663 -0.1265 -0.4506
 8017TIP3    H145466   4.555   1.268   0.093  1.1953  1.3442  0.3882
 8017TIP3    H245467   4.462   1.345   0.185  1.5892  1.8624  0.3598
 8018TIP3   OH245468   0.192   2.335   0.710  0.4679  0.6881 -0.0880
 8018TIP3    H145469   0.168   2.428   0.705 -1.2120  0.1951 -2.5444
 8018TIP3    H245470   0.124   2.296   0.764  1.4297  0.8917  1.3392
 8019TIP3   OH245471   6.629   6.539   3.607  0.2571  0.3440 -0.2290
 8019TIP3    H145472   6.602   6.493   3.528  0.7657 -1.7969  0.7787
 8019TIP3    H245473   6.720   6.565   3.590  0.4324 -0.2925 -0.2654
 8020TIP3   OH245474   3.043   3.384   4.228 -0.2329 -0.2209  0.3169
 8020TIP3    H145475   3.048   3.478   4.207  1.6076 -0.2950  0.2556
 8020TIP3    H245476   3.106   3.343   4.168  0.6517 -1.1996  1.8667
 8021TIP3   OH245477   5.082   2.646   4.394 -0.9591  0.5362  0.9547
 8021TIP3    H145478   5.052   2.574   4.449  0.9429 -1.0635  0.0040
 8021TIP3    H245479   5.172   2.661   4.420 -0.8259  1.4859  0.0166
 8022TIP3   OH245480   1.372   4.377  13.679  0.4638 -0.3918 -0.3715
 8022TIP3    H145481   1.397   4.451  13.734 -1.5784 -0.3824  0.6251
 8022TIP3    H245482   1.400   4.300  13.728  0.4922 -0.3361 -0.2999
 8023TIP3   OH245483   3.245   1.229   2.869  0.3600  0.3847 -0.2802
 8023TIP3    H145484   3.337   1.246   2.892  1.4958 -1.0562 -3.2207
 8023TIP3    H245485   3.213   1.175   2.941  2.6504 -1.1743 -0.3007
 8024TIP3   OH245486   6.071   2.488  13.382 -0.0273 -0.2616 -0.7424
 8024TIP3    H145487   6.044   2.493  13.290 -3.1885  1.9555  0.1231
 8024TIP3    H245488   6.087   2.395  13.398  0.6283 -0.6990 -3.4818
 8025TIP3   OH245489   0.100   6.305   3.073 -0.5882  0.2557  0.8489
 8025TIP3    H145490   0.109   6.283   2.980  0.7748  1.2118  0.7293
 8025TIP3    H245491   0.079   6.398   3.073  0.6235  0.5412  1.5195
 8026TIP3   OH245492   6.311   0.334   0.223 -0.1292 -0.6567  0.0958
 8026TIP3    H145493   6.365   0.282   0.163 -1.5222 -1.4762 -0.5080
 8026TIP3    H245494   6.246   0.376   0.167 -1.1266 -1.0070  0.9424
 8027TIP3   OH245495   3.070   0.548  16.899 -0.2956  0.7581  0.3887
 8027TIP3    H145496   3.136   0.498  16.850 -0.9972 -0.9692  1.1407
 8027TIP3    H245497   3.012   0.583  16.832  1.4431  2.5322 -0.3216
 8028TIP3   OH245498   5.744   3.185   1.007 -0.4326  0.3445  0.0288
 8028TIP3    H145499   5.772   3.264   1.054  1.9422 -0.7885  0.6440
 8028TIP3    H245500   5.819   3.162   0.952 -1.6348 -0.6939 -1.2598
 8029TIP3   OH245501   2.357   4.698   3.345 -0.4076 -0.1681  0.5182
 8029TIP3    H145502   2.428   4.677   3.285  0.0483  1.2837  0.5128
 8029TIP3    H245503   2.354   4.624   3.405  1.9866  0.2888  1.3102
 8030TIP3   OH245504   1.478   6.362   5.492  0.4650  0.0301 -0.2496
 8030TIP3    H145505   1.560   6.405   5.467 -1.5686  2.7579 -2.9316
 8030TIP3    H245506   1.427   6.430   5.536 -0.9192 -1.1796  0.0947
 8031TIP3   OH245507   1.681   4.494   1.147  0.1480  0.2061 -0.5273
 8031TIP3    H145508   1.589   4.507   1.171  0.1860  1.2337 -0.9173
 8031TIP3    H245509   1.730   4.517   1.226  0.0522 -1.3346  0.0271
 8032TIP3   OH245510   3.559   4.966  16.791 -0.2568  0.0028  0.5601
 8032TIP3    H145511   3.559   4.871  16.786  1.1583 -0.0003  0.2316
 8032TIP3    H245512   3.549   4.995  16.700  0.7513  0.1509  0.4918
 8033TIP3   OH245513   4.200   2.556  11.350  0.8000  0.2522 -0.6250
 8033TIP3    H145514   4.232   2.640  11.316 -1.0001  1.4865  0.5397
 8033TIP3    H245515   4.235   2.552  11.439  0.9446 -0.2917 -0.7056
 8034TIP3   OH245516   2.924   6.298  13.286 -0.0467  0.3924  0.2957
 8034TIP3    H145517   2.875   6.218  13.266 -0.6321  0.2264  2.1292
 8034TIP3    H245518   2.928   6.299  13.382  0.1752  2.4370  0.3023
 8035TIP3   OH245519   6.330   4.399   5.280 -0.1771 -0.1780  0.1331
 8035TIP3    H145520   6.374   4.330   5.331  2.6968  0.4663 -1.2924
 8035TIP3    H245521   6.376   4.479   5.304 -1.8207  0.8965 -0.1311
 8036TIP3   OH245522   3.566   5.055  16.541 -0.0666  0.0146  0.5127
 8036TIP3    H145523   3.633   5.053  16.473  0.0528 -0.1631  0.6344
 8036TIP3    H245524   3.489   5.014  16.501  0.1834 -0.6128  0.6743
 8037TIP3   OH245525   0.091   1.173   2.279 -0.4575 -0.3543 -0.1130
 8037TIP3    H145526   0.127   1.112   2.215  0.3107 -0.2930  0.2474
 8037TIP3    H245527   0.095   1.259   2.236 -1.8333 -0.5777 -0.7407
 8038TIP3   OH245528   2.568   0.917   1.078 -0.5101 -0.8108 -0.1288
 8038TIP3    H145529   2.591   0.852   1.011 -3.7728 -1.4381 -0.8116
 8038TIP3    H245530   2.506   0.871   1.135  0.3021  0.5007  1.9265
 8039TIP3   OH245531   4.446   0.710  11.182 -0.3204 -0.2759  0.2914
 8039TIP3    H145532   4.437   0.630  11.131  1.0540  0.1987 -0.7813
 8039TIP3    H245533   4.469   0.777  11.118  1.3611  0.3758  1.4766
 8040TIP3   OH245534   6.006   1.519   4.250  0.0202 -0.2134 -0.3913
 8040TIP3    H145535   5.998   1.598   4.304  0.1662 -0.0833 -0.5564
 8040TIP3    H245536   5.954   1.453   4.296  1.6503 -0.6432  0.9185
 8041TIP3   OH245537   2.378   5.310  17.167  0.4607 -0.8909  0.3217
 8041TIP3    H145538   2.443   5.289  17.100 -0.3870 -1.2858 -0.4082
 8041TIP3    H245539   2.296   5.321  17.118  0.2864  1.3027  1.0055
 8042TIP3   OH245540   2.007   3.782   0.670 -0.1322 -0.0493  0.0204
 8042TIP3    H145541   2.043   3.870   0.680  2.9046 -1.2378  0.6088
 8042TIP3    H245542   2.082   3.724   0.678 -1.7435 -2.6785 -2.0168
 8043TIP3   OH245543   5.597   0.141   4.911  0.0205 -0.0207 -0.6196
 8043TIP3    H145544   5.613   0.176   4.999  1.1270 -1.0946 -0.3758
 8043TIP3    H245545   5.548   0.060   4.926  0.8558 -0.5928 -0.9382
 8044TIP3   OH245546   6.317   5.372   5.360  0.1199 -0.9935  0.6570
 8044TIP3    H145547   6.285   5.289   5.397 -2.9129 -0.0459  0.4571
 8044TIP3    H245548   6.333   5.428   5.436  0.3201 -1.1677  0.7418
 8045TIP3   OH245549   5.209   0.359   3.765 -0.3614  0.3422 -0.0675
 8045TIP3    H145550   5.199   0.404   3.681  1.8553  0.0791 -0.5348
 8045TIP3    H245551   5.247   0.425   3.823  0.6299 -0.2057 -0.0673
 8046TIP3   OH245552   1.275   5.826   2.570  0.7797  0.0084 -0.0075
 8046TIP3    H145553   1.369   5.845   2.573  0.5422  1.1840  0.7855
 8046TIP3    H245554   1.233   5.908   2.596 -0.4857 -0.4228 -0.6042
 8047TIP3   OH245555   0.542   3.295   3.865  0.4055  0.3842 -0.1120
 8047TIP3    H145556   0.631   3.294   3.831  0.5312  1.3984  0.1472
 8047TIP3    H245557   0.522   3.388   3.878 -0.6926  0.1741 -0.1727
 8048TIP3   OH245558   5.845   0.079  11.558  0.3862  0.7370 -0.9425
 8048TIP3    H145559   5.922   0.125  11.592  0.1606 -0.6865  1.8012
 8048TIP3    H245560   5.880  -0.003  11.523  0.1908  0.4084 -0.3675
 8049TIP3   OH245561   3.541   2.716   4.098 -0.0694 -0.1497  0.1252
 8049TIP3    H145562   3.489   2.646   4.137 -0.0665 -0.6951 -0.8381
 8049TIP3    H245563   3.556   2.688   4.008  3.5805 -0.9449  0.8540
 8050TIP3   OH245564   6.756   5.664  15.155 -0.1188 -0.4650  0.0230
 8050TIP3    H145565   6.747   5.654  15.060 -0.3778 -1.4310  0.1366
 8050TIP3    H245566   6.770   5.758  15.168  0.9917 -0.4558 -1.0504
 8051TIP3   OH245567   3.277   1.920  15.647 -0.4740  0.5883  0.7567
 8051TIP3    H145568   3.360   1.893  15.687 -0.2376  1.4533  0.8672
 8051TIP3    H245569   3.210   1.885  15.706 -0.1533  1.0043  1.3784
 8052TIP3   OH245570   0.453   4.961  11.760 -0.3249  0.1418  0.2373
 8052TIP3    H145571   0.413   4.914  11.687 -1.0712  0.4691  0.4271
 8052TIP3    H245572   0.514   4.898  11.798  0.0331 -0.0465 -0.6288
 8053TIP3   OH245573   5.219   3.789  11.759  0.4300  0.1478 -0.1168
 8053TIP3    H145574   5.244   3.786  11.851  3.4623 -1.2161 -0.8356
 8053TIP3    H245575   5.212   3.882  11.739  0.1566  0.4637  1.3898
 8054TIP3   OH245576   5.927   6.553  14.111  0.0695  0.1634 -0.3655
 8054TIP3    H145577   5.976   6.609  14.051 -0.6307 -1.1487 -2.2651
 8054TIP3    H245578   5.845   6.535  14.065  0.5570 -2.9851 -0.1939
 8055TIP3   OH245579   3.233   4.461   2.263 -0.1292 -0.0222  0.6578
 8055TIP3    H145580   3.313   4.412   2.243 -0.7077 -2.4052  3.4295
 8055TIP3    H245581   3.163   4.396   2.254 -1.7105  1.7734 -0.8030
 8056TIP3   OH245582   2.855   0.560   3.869  0.1795 -0.1678 -0.4969
 8056TIP3    H145583   2.946   0.531   3.875  0.1519 -0.0746  0.5853
 8056TIP3    H245584   2.849   0.631   3.933 -0.8654 -0.7590  0.0934
 8057TIP3   OH245585   1.079   2.598  16.621  1.0011  0.3645 -0.1722
 8057TIP3    H145586   1.150   2.655  16.651  0.1302  0.9114  0.9340
 8057TIP3    H245587   1.038   2.647  16.549  0.7020  0.8403  0.3066
 8058TIP3   OH245588   1.687   2.460  14.691  0.1919 -0.2582  0.0224
 8058TIP3    H145589   1.641   2.402  14.630  0.3499 -1.1407  0.7151
 8058TIP3    H245590   1.737   2.401  14.747  1.4098  0.6367 -0.0871
 8059TIP3   OH245591   3.991   6.360   0.587 -0.2739 -0.2707  0.1998
 8059TIP3    H145592   3.976   6.373   0.494  0.6050  2.0957  0.3140
 8059TIP3    H245593   3.905   6.369   0.627 -0.6372 -1.1939 -0.3574
 8060TIP3   OH245594   2.405   3.020   1.514  0.3514 -0.0009  0.0539
 8060TIP3    H145595   2.498   3.040   1.514 -0.2267  3.1215 -1.0970
 8060TIP3    H245596   2.390   2.973   1.432  0.8243 -0.1690  0.0631
 8061TIP3   OH245597   3.274   1.747  11.390  0.3483 -0.6709  0.5750
 8061TIP3    H145598   3.345   1.687  11.412  0.8976  0.1975  1.2611
 8061TIP3    H245599   3.218   1.748  11.468  1.2781  0.9854  1.2773
 8062TIP3   OH245600   3.512   6.436  12.760 -0.1538 -0.1475  0.2443
 8062TIP3    H145601   3.479   6.481  12.683 -0.3850 -0.8374 -0.0724
 8062TIP3    H245602   3.433   6.402  12.803  0.0206 -0.3595  0.4005
 8063TIP3   OH245603   4.438   0.466  11.064  0.1071 -0.2641  0.2488
 8063TIP3    H145604   4.432   0.434  11.154  0.6761 -0.4273  0.2338
 8063TIP3    H245605   4.468   0.390  11.013  2.0442  0.4047  0.3060
 8064TIP3   OH245606   1.080   4.242  15.808 -0.4351  0.6488 -0.4480
 8064TIP3    H145607   1.107   4.167  15.861 -1.1757  1.0940  0.5995
 8064TIP3    H245608   1.003   4.212  15.760 -0.7408  0.7365 -0.0176
 8065TIP3   OH245609   3.162   3.168   0.812 -0.0790  0.2286 -0.1549
 8065TIP3    H145610   3.160   3.149   0.906 -2.5109 -0.2383 -0.2403
 8065TIP3    H245611   3.217   3.099   0.774  1.5335  0.8369  0.9507
 8066TIP3   OH245612   1.215   1.822   2.268 -0.2000  0.1621 -0.0278
 8066TIP3    H145613   1.142   1.838   2.328  1.3706 -0.0613  2.0459
 8066TIP3    H245614   1.202   1.732   2.238  0.4615 -0.7351  2.2149
 8067TIP3   OH245615   5.303   1.777  13.163 -0.3511  0.1011 -0.0220
 8067TIP3    H145616   5.356   1.702  13.138  0.1461  0.0343  1.1469
 8067TIP3    H245617   5.308   1.779  13.259 -1.2904  0.9475  0.0268
 8068TIP3   OH245618   5.893   1.255  12.903 -0.6561 -0.1738 -0.4334
 8068TIP3    H145619   5.863   1.168  12.878 -3.0849  0.2705  0.6168
 8068TIP3    H245620   5.857   1.269  12.991  0.1093  1.6717 -0.3560
 8069TIP3   OH245621   5.780   1.790  17.154 -0.2894  0.0356 -1.0176
 8069TIP3    H145622   5.856   1.809  17.100  1.2014  2.1508  1.5641
 8069TIP3    H245623   5.805   1.712  17.204  0.2094  0.6612 -0.2554
 8070TIP3   OH245624   0.088   4.277  14.305  0.2503  0.4427  0.3456
 8070TIP3    H145625   0.026   4.317  14.244  0.7620  0.6401 -0.0519
 8070TIP3    H245626   0.091   4.337  14.379  0.4795  0.7792  0.0644
 8071TIP3   OH245627   3.351   3.169  13.789  0.1409  0.3019 -0.8760
 8071TIP3    H145628   3.383   3.160  13.699 -1.8971  0.4033 -1.6669
 8071TIP3    H245629   3.398   3.246  13.823 -0.8313  1.8180 -2.7341
 8072TIP3   OH245630   2.360   6.745   1.657 -0.4029 -0.2570 -0.1090
 8072TIP3    H145631   2.376   6.669   1.601 -1.3855  0.2503 -1.1164
 8072TIP3    H245632   2.315   6.710   1.734 -1.2503 -0.6526 -0.7661
 8073TIP3   OH245633   0.192   0.766  15.285 -0.1996  0.0018 -0.4562
 8073TIP3    H145634   0.119   0.802  15.335  0.5159  0.2929  0.3882
 8073TIP3    H245635   0.152   0.738  15.202 -1.3258 -0.1323  0.1131
 8074TIP3   OH245636   4.866   2.681  12.389  0.1779  0.2805 -0.6557
 8074TIP3    H145637   4.859   2.733  12.309  0.2663  0.3834 -0.5967
 8074TIP3    H245638   4.830   2.738  12.458 -1.2456 -0.3437 -0.8519
 8075TIP3   OH245639   2.504   3.846  12.164  0.1203  0.6978  0.6386
 8075TIP3    H145640   2.441   3.849  12.093 -2.8575 -1.7737  2.9055
 8075TIP3    H245641   2.502   3.755  12.194  5.0014  0.4080  0.8236
 8076TIP3   OH245642   2.604   0.521   4.173 -0.0929  0.3459  0.6302
 8076TIP3    H145643   2.636   0.557   4.256 -1.0648  0.4146  0.9831
 8076TIP3    H245644   2.512   0.502   4.189 -0.4516  0.9358 -0.6370
 8077TIP3   OH245645   4.695   6.347  11.166 -0.2146 -0.4939 -0.3397
 8077TIP3    H145646   4.662   6.298  11.242 -0.4945  0.3450  0.0859
 8077TIP3    H245647   4.621   6.401  11.138  0.8780  1.8054  0.9368
 8078TIP3   OH245648   1.096   5.499  15.679 -0.4303 -0.3377  0.2742
 8078TIP3    H145649   1.065   5.409  15.684  0.6707 -0.6813  1.6409
 8078TIP3    H245650   1.180   5.498  15.726 -0.9874  1.6448  1.4330
 8079TIP3   OH245651   6.115   6.562   2.716 -0.2667  0.2056 -0.6325
 8079TIP3    H145652   6.195   6.516   2.690  0.0419  0.3733  0.0135
 8079TIP3    H245653   6.115   6.559   2.812  0.4610  2.7180 -0.4988
 8080TIP3   OH245654   1.208   0.792  12.998 -0.6869 -0.4928 -0.0139
 8080TIP3    H145655   1.228   0.712  13.046 -0.3270  0.0939  0.8453
 8080TIP3    H245656   1.272   0.794  12.926 -0.1182 -0.5359  0.4859
 8081TIP3   OH245657   6.143   2.937   1.483 -0.0459  0.8736 -0.1478
 8081TIP3    H145658   6.140   2.973   1.572  1.0431  1.2564 -0.2425
 8081TIP3    H245659   6.227   2.968   1.449  0.2539 -0.5711 -0.7556
 8082TIP3   OH245660   2.595   4.951  16.273  0.0470 -0.3875 -0.0663
 8082TIP3    H145661   2.658   4.880  16.285 -0.2569 -0.4197  1.5745
 8082TIP3    H245662   2.583   4.957  16.178 -0.0144 -2.6109 -0.2569
 8083TIP3   OH245663   1.535   4.494   6.245 -1.1473 -0.5312  0.2582
 8083TIP3    H145664   1.462   4.555   6.237 -1.3011 -0.9204 -1.9282
 8083TIP3    H245665   1.543   4.454   6.158  2.3420  0.2751  0.0448
 8084TIP3   OH245666   3.065   6.682  12.576  0.3398  0.4945  0.0059
 8084TIP3    H145667   3.074   6.587  12.568  0.4348  0.4727  0.3507
 8084TIP3    H245668   3.047   6.712  12.487  1.9700  0.3347 -0.4063
 8085TIP3   OH245669   4.409   1.907  11.093  0.0354 -0.2478  0.1599
 8085TIP3    H145670   4.378   1.995  11.113 -0.9885 -0.3719 -0.8056
 8085TIP3    H245671   4.330   1.855  11.080  0.6263 -0.9796 -0.6440
 8086TIP3   OH245672   1.189   1.535   2.214  0.0037 -0.2603  0.0347
 8086TIP3    H145673   1.269   1.500   2.174 -0.1387 -1.9817  1.1548
 8086TIP3    H245674   1.118   1.487   2.172 -0.5319  1.4902 -1.1889
 8087TIP3   OH245675   4.881   5.107  16.040  0.3305  0.3538  0.6966
 8087TIP3    H145676   4.973   5.129  16.057  0.3163  0.4078  0.7030
 8087TIP3    H245677   4.869   5.021  16.081  0.5440  0.0665  0.1539
 8088TIP3   OH245678   2.941   1.293  16.212  0.5731 -0.0086  0.5513
 8088TIP3    H145679   2.860   1.304  16.162 -0.2785 -1.0311  1.6247
 8088TIP3    H245680   2.947   1.373  16.265  0.3334  0.1394  0.3571
 8089TIP3   OH245681   4.240   3.629   5.588  0.1265 -0.2174  0.0189
 8089TIP3    H145682   4.160   3.606   5.636  0.7377 -0.2452  1.0626
 8089TIP3    H245683   4.220   3.715   5.550  0.1438  0.5660  1.6620
 8090TIP3   OH245684   3.554   4.371  11.250  0.3933  0.4610  0.4264
 8090TIP3    H145685   3.558   4.418  11.166 -0.4673 -1.0507 -0.5042
 8090TIP3    H245686   3.503   4.428  11.307  0.4850  1.2542 -0.2649
 8091TIP3   OH245687   3.456   5.588  11.150 -1.1097 -0.1866 -0.1445
 8091TIP3    H145688   3.388   5.654  11.147 -0.3451  0.7947  1.9374
 8091TIP3    H245689   3.420   5.519  11.206 -0.6083  0.1044  0.5520
 8092TIP3   OH245690   4.476   2.068  17.095  0.2279 -0.3728  0.6680
 8092TIP3    H145691   4.547   2.132  17.097 -0.3665  0.4076 -1.1749
 8092TIP3    H245692   4.501   2.005  17.028 -0.5690 -0.3781  0.3644
 8093TIP3   OH245693   6.468   0.452  12.746  0.4044  0.4195 -0.1061
 8093TIP3    H145694   6.455   0.492  12.661 -1.6812  1.0856  0.4801
 8093TIP3    H245695   6.504   0.522  12.801 -3.3330  1.7265  0.9461
 8094TIP3   OH245696   3.004   4.853   5.789 -0.5295  0.0302  0.1110
 8094TIP3    H145697   3.082   4.906   5.775 -1.3226  0.8330 -1.5628
 8094TIP3    H245698   3.027   4.795   5.862  0.8111  1.8040  1.1971
 8095TIP3   OH245699   6.045   5.541   5.290 -0.1533 -0.8774 -0.2722
 8095TIP3    H145700   6.105   5.585   5.351 -0.6914  3.0728 -2.2768
 8095TIP3    H245701   6.083   5.555   5.204 -1.5274 -2.6380 -1.2392
 8096TIP3   OH245702   5.560   3.030  15.752  0.2618  0.6717  0.3379
 8096TIP3    H145703   5.560   3.069  15.839  0.1371  2.4946 -0.4463
 8096TIP3    H245704   5.636   3.067  15.708  1.2224 -1.3930  0.1252
 8097TIP3   OH245705   1.124   0.893   6.100 -0.4737  0.3532 -0.5837
 8097TIP3    H145706   1.168   0.814   6.131 -2.1132 -0.6195 -0.6248
 8097TIP3    H245707   1.085   0.868   6.017 -1.4710  1.0266 -0.3360
 8098TIP3   OH245708   0.534   2.057   2.351 -0.0383  0.1424 -0.1354
 8098TIP3    H145709   0.582   2.139   2.361 -0.5538  0.2472  1.7985
 8098TIP3    H245710   0.567   2.020   2.269 -2.2339  3.8543 -3.0294
 8099TIP3   OH245711   4.611   3.221   6.268 -0.4820  0.2273  0.1296
 8099TIP3    H145712   4.545   3.264   6.323  0.8801  1.8985  0.5497
 8099TIP3    H245713   4.687   3.212   6.325  0.3442  0.2741 -0.9449
 8100TIP3   OH245714   5.566   5.114   0.484 -0.6224  0.3966 -0.0396
 8100TIP3    H145715   5.504   5.184   0.500  0.6346  1.4239  0.4957
 8100TIP3    H245716   5.512   5.035   0.477 -1.9379  1.1853  0.8368
 8101TIP3   OH245717   1.398   1.501  15.722  0.6423 -0.3390 -0.7224
 8101TIP3    H145718   1.415   1.516  15.815 -0.4092  1.4711 -0.7853
 8101TIP3    H245719   1.417   1.584  15.679  3.1460 -1.6999 -2.4981
 8102TIP3   OH245720   3.681   1.265  15.741 -0.0423  1.4053 -0.1250
 8102TIP3    H145721   3.747   1.325  15.776  0.6903  1.4289 -1.4719
 8102TIP3    H245722   3.692   1.270  15.646 -0.0706 -0.7325 -0.2925
 8103TIP3   OH245723   4.171   3.424   1.016  0.8411 -0.6129  0.4819
 8103TIP3    H145724   4.231   3.497   1.001 -0.6196  1.0264  2.1487
 8103TIP3    H245725   4.182   3.403   1.109 -2.0474  0.6655  1.2248
 8104TIP3   OH245726   6.156   1.627  15.313  0.0577 -0.1609 -0.1042
 8104TIP3    H145727   6.217   1.621  15.240 -0.6300 -0.2034 -0.6809
 8104TIP3    H245728   6.146   1.721  15.329  1.6907 -0.1610  1.2138
 8105TIP3   OH245729   6.539   4.665   3.011  0.1757  0.3411 -0.4056
 8105TIP3    H145730   6.534   4.634   2.920  1.1175 -0.8969 -0.0658
 8105TIP3    H245731   6.633   4.664   3.031  0.0406  1.3575  0.3413
 8106TIP3   OH245732   6.642   6.638  14.990  0.0532  0.2081 -0.3760
 8106TIP3    H145733   6.621   6.686  15.070 -1.3421  0.4780 -0.8835
 8106TIP3    H245734   6.684   6.704  14.933  0.5901  0.1396 -0.0662
 8107TIP3   OH245735   4.345   5.441  13.802 -0.0636 -0.4687  0.5766
 8107TIP3    H145736   4.356   5.445  13.897  0.3136  0.8597  0.4896
 8107TIP3    H245737   4.326   5.531  13.776 -0.9177 -0.9409 -0.5248
 8108TIP3   OH245738   4.330   1.373   4.837  0.5895 -0.1246 -0.5448
 8108TIP3    H145739   4.289   1.451   4.801  2.0051  0.1951 -1.5469
 8108TIP3    H245740   4.378   1.404   4.913  0.5275 -0.1508 -0.4953
 8109TIP3   OH245741   2.366   2.627   4.487 -0.0135 -0.5446 -0.1352
 8109TIP3    H145742   2.433   2.634   4.420  1.3498 -0.3566  1.2036
 8109TIP3    H245743   2.294   2.683   4.455  1.1606  0.6552 -0.7668
 8110TIP3   OH245744   3.622   5.118   4.652 -0.1432 -0.3118 -0.5672
 8110TIP3    H145745   3.576   5.034   4.659 -1.1683  0.1054 -1.9001
 8110TIP3    H245746   3.678   5.109   4.575  0.8930 -0.2772  0.1605
 8111TIP3   OH245747   3.437   2.121  14.441 -0.7510  0.5041  0.2712
 8111TIP3    H145748   3.414   2.143  14.532 -0.2842  1.7500  0.1058
 8111TIP3    H245749   3.464   2.029  14.445 -0.4707  0.6193  1.4488
 8112TIP3   OH245750   2.789   0.615  12.295  0.1985  0.7861 -0.6531
 8112TIP3    H145751   2.735   0.564  12.356  0.2213  0.1884 -1.1257
 8112TIP3    H245752   2.738   0.616  12.214  1.4904 -0.9834 -1.5546
 8113TIP3   OH245753   1.517   5.003   5.521  0.2646 -0.1875  0.2217
 8113TIP3    H145754   1.522   5.061   5.446  0.6196 -0.2533  0.1953
 8113TIP3    H245755   1.594   5.024   5.574  0.0930 -0.2386  0.4980
 8114TIP3   OH245756   0.475   2.906  13.999 -0.7093  1.0143  0.3418
 8114TIP3    H145757   0.551   2.852  13.978 -1.7575  0.5486 -2.7729
 8114TIP3    H245758   0.512   2.986  14.037  1.3904  1.0069 -1.5321
 8115TIP3   OH245759   1.499   1.529   4.035 -0.6403 -0.1046  0.0560
 8115TIP3    H145760   1.508   1.436   4.057  0.4095  0.0589  0.3418
 8115TIP3    H245761   1.515   1.532   3.940  0.0899 -0.1254  0.1717
 8116TIP3   OH245762   1.915   2.816   1.879 -0.3234 -0.0410  0.0191
 8116TIP3    H145763   1.850   2.813   1.949 -0.2201  1.4846  0.2151
 8116TIP3    H245764   1.877   2.766   1.807 -2.4673  2.1190 -0.4638
 8117TIP3   OH245765   2.332   0.306  12.467 -0.2117 -0.5572 -0.2345
 8117TIP3    H145766   2.237   0.304  12.461 -0.1985  0.1238 -0.9928
 8117TIP3    H245767   2.356   0.390  12.426  0.6995 -0.6756  0.0388
 8118TIP3   OH245768   3.253   0.217  16.922  0.4066 -0.3578  1.1184
 8118TIP3    H145769   3.250   0.291  16.861 -2.7336 -0.4814  0.9840
 8118TIP3    H245770   3.297   0.252  17.000  2.7095  0.3605 -0.4002
 8119TIP3   OH245771   6.078   3.978   4.235 -0.1030 -0.2071 -0.4080
 8119TIP3    H145772   6.149   3.932   4.280  0.5932  2.3590  1.3409
 8119TIP3    H245773   5.998   3.937   4.268  0.4168  1.0220  2.7086
 8120TIP3   OH245774   6.583   5.612  12.904  0.0031  0.2377  0.0962
 8120TIP3    H145775   6.498   5.638  12.942  0.4426  0.4734  0.9546
 8120TIP3    H245776   6.565   5.528  12.862 -0.6202  0.1854  0.4383
 8121TIP3   OH245777   5.934   1.924  12.852  0.1928 -0.2888  0.0726
 8121TIP3    H145778   5.883   1.858  12.898  0.0709 -0.7726 -0.7280
 8121TIP3    H245779   6.024   1.911  12.884  0.2594 -1.1905 -0.4443
 8122TIP3   OH245780   1.265   3.367  11.775  0.2559  0.3432  0.3474
 8122TIP3    H145781   1.171   3.362  11.754  0.7509 -0.5022 -1.9136
 8122TIP3    H245782   1.285   3.461  11.773 -0.3833  0.4811  0.0672
 8123TIP3   OH245783   3.170   5.591  11.980  0.0878 -0.0965  0.2503
 8123TIP3    H145784   3.242   5.615  11.922 -2.1116 -0.8117 -3.0762
 8123TIP3    H245785   3.116   5.670  11.983  0.5132  0.1541  1.9983
 8124TIP3   OH245786   6.591   1.285   5.129 -0.3517  0.1252 -0.1811
 8124TIP3    H145787   6.553   1.226   5.195  2.5734 -2.7946 -0.8102
 8124TIP3    H245788   6.522   1.297   5.064 -1.7992 -0.7394  1.1263
 8125TIP3   OH245789   0.476   5.272  16.862  0.0569 -0.1728  0.4574
 8125TIP3    H145790   0.523   5.270  16.945 -1.8559 -0.3880  1.5957
 8125TIP3    H245791   0.545   5.274  16.796  1.6705  1.4253  2.0402
 8126TIP3   OH245792   3.077   2.028  13.143  0.3826 -0.2492  0.3060
 8126TIP3    H145793   3.123   2.083  13.080  0.2517 -2.2968 -1.6999
 8126TIP3    H245794   3.125   1.945  13.142 -0.6268 -0.8916  1.6686
 8127TIP3   OH245795   5.265   0.407   4.536  0.2103 -0.4136  0.1819
 8127TIP3    H145796   5.223   0.323   4.523  0.5991 -0.6950  0.7062
 8127TIP3    H245797   5.195   0.465   4.567 -0.3865 -0.1317 -1.6063
 8128TIP3   OH245798   5.475   2.165  13.733  0.0185 -0.4644 -0.3505
 8128TIP3    H145799   5.442   2.080  13.763 -0.1976 -0.7047 -1.2307
 8128TIP3    H245800   5.541   2.189  13.797 -2.3832  0.4337  1.9856
 8129TIP3   OH245801   4.036   0.041   5.852  0.8275 -0.2125  0.1006
 8129TIP3    H145802   4.000  -0.047   5.854 -0.2137  0.1330  3.3029
 8129TIP3    H245803   3.998   0.084   5.929  1.9468  2.7669 -0.8612
 8130TIP3   OH245804   4.678   3.869   1.851  0.0087 -0.4435 -0.3538
 8130TIP3    H145805   4.652   3.802   1.787 -0.3115 -0.8974  0.2387
 8130TIP3    H245806   4.773   3.869   1.849  0.0033 -0.6760 -0.6081
 8131TIP3   OH245807   4.870   5.625  16.893  0.2748 -0.5529 -0.6278
 8131TIP3    H145808   4.797   5.565  16.909  0.0165  0.0507  0.5596
 8131TIP3    H245809   4.828   5.709  16.870  0.6057 -0.3626 -0.5435
 8132TIP3   OH245810   3.363   4.481  11.412  0.6221 -0.0525  0.2815
 8132TIP3    H145811   3.298   4.523  11.355 -0.7804  0.3679  2.0780
 8132TIP3    H245812   3.356   4.529  11.495  0.2571 -2.6347  1.8531
 8133TIP3   OH245813   3.570   4.503   5.983  0.3003  0.3381  0.6955
 8133TIP3    H145814   3.596   4.585   6.024  0.0130  0.9261 -0.2683
 8133TIP3    H245815   3.497   4.526   5.925 -1.0085 -0.9191  1.7660
 8134TIP3   OH245816   4.071   1.113   6.392 -0.1105  0.2168 -0.2770
 8134TIP3    H145817   4.064   1.030   6.345  2.5221 -0.3282  0.1112
 8134TIP3    H245818   4.022   1.099   6.473 -0.4139 -0.6595 -0.5989
 8135TIP3   OH245819   2.562   6.676  14.695 -0.1123  0.4299  0.3352
 8135TIP3    H145820   2.593   6.655  14.608 -0.1564 -0.0186  0.4276
 8135TIP3    H245821   2.568   6.772  14.700  2.0177  0.3344  0.6371
 8136TIP3   OH245822   2.620   5.310   0.475  0.1927 -0.2338 -0.2879
 8136TIP3    H145823   2.571   5.392   0.469 -0.8054 -0.7923 -0.1369
 8136TIP3    H245824   2.668   5.316   0.558 -1.9187 -0.8295  1.0717
 8137TIP3   OH245825   3.241   3.070  15.133  0.5782 -0.3401  0.1365
 8137TIP3    H145826   3.296   3.147  15.144  2.0102 -1.5491  2.1414
 8137TIP3    H245827   3.289   3.015  15.071 -0.5514  0.4049 -1.4692
 8138TIP3   OH245828   5.608   2.869  13.169  0.3039  0.1222 -0.7489
 8138TIP3    H145829   5.661   2.909  13.100 -0.7613 -0.3768 -1.8954
 8138TIP3    H245830   5.671   2.841  13.235  1.2385  1.8684 -0.8508
 8139TIP3   OH245831   6.295   6.644   3.469  0.6909 -0.3079 -0.5853
 8139TIP3    H145832   6.360   6.614   3.406  1.2048  0.2867 -0.3570
 8139TIP3    H245833   6.266   6.728   3.435  1.2927  0.2306  0.1657
 8140TIP3   OH245834   4.134   2.326  16.018 -0.1837  0.0871 -0.1496
 8140TIP3    H145835   4.174   2.268  16.082 -0.1692 -1.6118 -1.6322
 8140TIP3    H245836   4.041   2.302  16.017 -0.4710  1.1088  0.2532
 8141TIP3   OH245837   5.163   3.305  12.279 -0.3686  0.0010  0.3452
 8141TIP3    H145838   5.089   3.245  12.272  0.1700 -0.5622 -0.8309
 8141TIP3    H245839   5.237   3.256  12.242  0.1680  1.2542 -0.2977
 8142TIP3   OH245840   1.749   0.104  14.174 -0.1424  0.3118 -0.0701
 8142TIP3    H145841   1.817   0.168  14.154 -0.4563  0.6845  0.0454
 8142TIP3    H245842   1.796   0.031  14.216  0.1845  0.5626  0.0036
 8143TIP3   OH245843   0.808   4.399   0.534  0.1566 -0.0341 -0.2044
 8143TIP3    H145844   0.759   4.375   0.613 -1.3758 -1.1826 -1.4318
 8143TIP3    H245845   0.878   4.456   0.565  0.6576 -1.8112  2.2090
 8144TIP3   OH245846   1.831   6.291   1.625 -0.7589 -0.3430  0.6740
 8144TIP3    H145847   1.796   6.242   1.700 -0.4818 -0.0313  1.0130
 8144TIP3    H245848   1.912   6.330   1.658  0.3146 -1.6302 -0.2838
 8145TIP3   OH245849   0.143   2.641  12.933 -0.2959  0.0088  0.0187
 8145TIP3    H145850   0.224   2.591  12.925  0.4805  1.3011 -0.4968
 8145TIP3    H245851   0.103   2.609  13.013  1.8001  0.7908  1.4849
 8146TIP3   OH245852   2.008   4.297  16.053 -0.3502 -0.1622 -0.1354
 8146TIP3    H145853   2.008   4.301  15.957 -0.5633 -2.9004 -0.3335
 8146TIP3    H245854   1.936   4.237  16.074  2.3053 -3.0710  1.4408
 8147TIP3   OH245855   1.291   4.851   3.605  0.0128  0.2375  0.1227
 8147TIP3    H145856   1.221   4.812   3.553 -0.9212  0.9056  0.8498
 8147TIP3    H245857   1.296   4.795   3.683 -0.1365  0.5387  0.3522
 8148TIP3   OH245858   3.908   3.881  14.849 -0.1237  0.0106  0.8582
 8148TIP3    H145859   3.844   3.826  14.803 -0.6027  0.3219  1.1402
 8148TIP3    H245860   3.901   3.855  14.941  0.4714 -0.2565  0.8323
 8149TIP3   OH245861   4.284   3.602   4.827  0.0274  0.1278 -0.3145
 8149TIP3    H145862   4.373   3.617   4.859 -0.3985  0.8854  0.5441
 8149TIP3    H245863   4.229   3.607   4.905 -1.1010  2.4496 -1.1675
 8150TIP3   OH245864   0.588   5.791  16.088  0.5736 -0.0350 -0.3268
 8150TIP3    H145865   0.660   5.855  16.089  0.2121  0.3843 -0.9098
 8150TIP3    H245866   0.514   5.839  16.053 -0.3557 -0.0918  1.4438
 8151TIP3   OH245867   5.027   5.823  11.692 -0.8915 -0.6947  0.2179
 8151TIP3    H145868   5.022   5.734  11.657 -0.6981 -1.0104  0.9736
 8151TIP3    H245869   4.975   5.876  11.632  1.2624 -0.7922 -1.8838
 8152TIP3   OH245870   0.395   5.726   4.518  0.1000 -0.4405  0.6883
 8152TIP3    H145871   0.463   5.774   4.566  1.6583 -1.2607 -0.5813
 8152TIP3    H245872   0.421   5.734   4.426 -0.9707 -1.6194  0.2495
 8153TIP3   OH245873   3.121   5.220   3.040  0.2878 -0.2387  0.0441
 8153TIP3    H145874   3.213   5.217   3.067  0.2054 -2.1638  0.2357
 8153TIP3    H245875   3.090   5.305   3.072  1.4122 -0.4923  1.9967
 8154TIP3   OH245876   1.918   3.582  13.051  0.4472  0.4015  0.4300
 8154TIP3    H145877   1.942   3.490  13.058 -0.9375 -0.1081 -0.9542
 8154TIP3    H245878   1.934   3.604  12.959 -0.2602  1.2241  0.4919
 8155TIP3   OH245879   1.269   2.452  11.245  0.2412  0.8524  0.7996
 8155TIP3    H145880   1.313   2.515  11.189  0.4600 -0.7087 -0.9013
 8155TIP3    H245881   1.178   2.481  11.248  0.0622  0.6020 -1.0233
 8156TIP3   OH245882   6.146   0.194  12.085  0.2622 -0.0074  0.2111
 8156TIP3    H145883   6.240   0.210  12.074  0.1154  0.1643 -0.8431
 8156TIP3    H245884   6.110   0.279  12.111  0.6639 -0.4968  2.5914
 8157TIP3   OH245885   1.936   2.552   4.001 -0.1885 -0.0174 -0.3598
 8157TIP3    H145886   1.852   2.553   3.955 -1.3145 -0.5856  1.6048
 8157TIP3    H245887   1.982   2.477   3.965 -0.8326 -0.1590 -0.9063
 8158TIP3   OH245888   4.958   0.699  10.332 -0.6959 -0.2560  0.3338
 8158TIP3    H145889   5.000   0.617  10.308 -0.6569 -0.1801  0.1378
 8158TIP3    H245890   5.026   0.748  10.379 -1.1347 -0.8840  1.6388
 8159TIP3   OH245891   4.442   0.426  16.833 -0.5876  0.2490  0.1271
 8159TIP3    H145892   4.483   0.486  16.770  0.4947  0.0670  0.6429
 8159TIP3    H245893   4.379   0.376  16.780  0.0685  0.3228 -0.7533
 8160TIP3   OH245894   1.831   0.364   4.230  0.8814 -0.0603  0.1264
 8160TIP3    H145895   1.771   0.434   4.205 -1.2212 -1.3121  1.3747
 8160TIP3    H245896   1.882   0.346   4.151  0.0122  1.4311 -0.8168
 8161TIP3   OH245897   6.491   6.553   0.771 -0.5946  0.0946 -0.5138
 8161TIP3    H145898   6.561   6.594   0.822  0.7000 -2.5742  0.0608
 8161TIP3    H245899   6.430   6.624   0.751  0.8990  2.0014  1.3109
 8162TIP3   OH245900   0.284   5.490   5.590  0.0971 -0.1946 -0.2524
 8162TIP3    H145901   0.257   5.399   5.607  0.7303 -0.1985  0.8609
 8162TIP3    H245902   0.343   5.484   5.516 -0.4755 -0.5871 -0.6860
 8163TIP3   OH245903   0.838   2.030   1.661 -0.3962  0.2774  0.1245
 8163TIP3    H145904   0.837   2.007   1.568 -1.1487 -1.0844  0.4375
 8163TIP3    H245905   0.761   2.086   1.673 -1.0373 -0.5958  0.1580
 8164TIP3   OH245906   3.539   3.049   3.899 -0.2580  0.5021 -0.1813
 8164TIP3    H145907   3.542   3.144   3.912  0.9334  0.2962  1.4514
 8164TIP3    H245908   3.474   3.019   3.962 -1.5055  0.3003 -1.5104
 8165TIP3   OH245909   0.199   1.035   4.751  0.2133  0.2904 -0.2764
 8165TIP3    H145910   0.167   1.104   4.809 -0.4936 -0.2178 -0.0475
 8165TIP3    H245911   0.294   1.050   4.746  0.6360 -0.8589  2.6467
 8166TIP3   OH245912   0.360   4.404  16.529  0.4148  0.0167  0.8391
 8166TIP3    H145913   0.330   4.409  16.438  1.9619  2.1632  0.3561
 8166TIP3    H245914   0.283   4.377  16.579 -0.2141 -2.3616 -1.1863
 8167TIP3   OH245915   0.223   6.225  10.572  0.1691  0.0370  0.7833
 8167TIP3    H145916   0.192   6.314  10.552 -0.0117  0.1899  1.6894
 8167TIP3    H245917   0.162   6.193  10.638 -0.6437 -1.3214 -0.5473
 8168TIP3   OH245918   3.944   4.436  12.719 -0.5162  0.3442 -0.3451
 8168TIP3    H145919   3.877   4.491  12.759 -0.1687  0.3016  0.3175
 8168TIP3    H245920   4.015   4.497  12.698  0.2016  0.0653  1.1203
 8169TIP3   OH245921   3.653   2.757   0.897 -0.2044  0.2011  0.4943
 8169TIP3    H145922   3.668   2.704   0.819 -0.9292  0.0100  0.4764
 8169TIP3    H245923   3.691   2.706   0.969  0.4052  0.3490  0.2769
 8170TIP3   OH245924   4.985   5.358   0.370  0.0409  0.4354  0.4104
 8170TIP3    H145925   4.898   5.365   0.410 -0.9670 -0.6400 -1.4685
 8170TIP3    H245926   4.988   5.270   0.333  1.0117  1.2171 -1.5331
 8171TIP3   OH245927   0.656   1.800   0.139 -0.0093 -0.3560  0.5525
 8171TIP3    H145928   0.644   1.730   0.074  0.4733 -1.1482  1.2969
 8171TIP3    H245929   0.700   1.757   0.213  1.1376  0.9410  0.6568
 8172TIP3   OH245930   4.965   1.375  13.044 -0.0010  0.6497  0.2467
 8172TIP3    H145931   4.983   1.418  13.128 -1.0105  0.6877  0.4494
 8172TIP3    H245932   5.005   1.289  13.053  1.6697  1.3542 -0.0030
 8173TIP3   OH245933   2.956   5.455   2.029 -0.3331  0.4483 -0.2442
 8173TIP3    H145934   2.878   5.488   1.984 -1.9213 -2.2292  0.2912
 8173TIP3    H245935   2.948   5.486   2.119 -0.6161  0.4298 -0.2637
 8174TIP3   OH245936   0.260   3.124   1.809 -0.3389  0.0888 -0.3464
 8174TIP3    H145937   0.165   3.130   1.803 -0.2518  2.6760 -0.5285
 8174TIP3    H245938   0.287   3.208   1.847  1.8187 -1.0198  0.8018
 8175TIP3   OH245939   6.390   2.137  13.593 -0.1893  0.5828 -0.0537
 8175TIP3    H145940   6.463   2.181  13.550 -0.5889  0.5178 -0.8231
 8175TIP3    H245941   6.365   2.196  13.664  0.2160  0.8972 -0.1708
 8176TIP3   OH245942   4.330   4.264   0.462 -0.3617  0.1933 -0.1801
 8176TIP3    H145943   4.268   4.337   0.460 -0.4500  0.1625  0.7235
 8176TIP3    H245944   4.398   4.292   0.524  0.3981  0.1249 -0.9737
 8177TIP3   OH245945   1.299   0.029  14.998 -0.5761 -0.2252 -0.3870
 8177TIP3    H145946   1.346   0.044  15.080  0.2297 -0.3279 -0.8202
 8177TIP3    H245947   1.310  -0.064  14.980 -1.2686 -0.3315 -0.3110
 8178TIP3   OH245948   1.145   5.428  12.265 -0.2205 -0.2701 -0.4323
 8178TIP3    H145949   1.083   5.415  12.336  0.8244 -0.6283  0.4357
 8178TIP3    H245950   1.186   5.512  12.283 -0.4726 -0.0060 -1.0356
 8179TIP3   OH245951   5.258   1.384   5.471  0.2805  0.7131  0.7527
 8179TIP3    H145952   5.227   1.345   5.389 -0.4245  3.2226 -0.2761
 8179TIP3    H245953   5.304   1.313   5.516  2.1714 -0.3818 -2.5601
 8180TIP3   OH245954   2.387   3.056   0.571  0.5770  0.2971  0.2677
 8180TIP3    H145955   2.369   3.074   0.479 -1.9640  0.4310  0.7226
 8180TIP3    H245956   2.480   3.075   0.581  0.8459  0.6287 -2.1732
 8181TIP3   OH245957   0.889   1.154   0.116 -0.0735  0.7143 -0.3186
 8181TIP3    H145958   0.948   1.213   0.071  0.8480  0.1865  0.1504
 8181TIP3    H245959   0.892   1.073   0.065  1.2434 -0.0010  0.8304
 8182TIP3   OH245960   4.016   5.787   3.399 -0.4793 -0.3742 -0.1079
 8182TIP3    H145961   3.968   5.773   3.317 -2.1863  0.0704  0.7730
 8182TIP3    H245962   3.954   5.763   3.468  1.2023 -1.5093  1.0619
 8183TIP3   OH245963   2.248   0.449   3.028  0.0409 -0.3229  0.3826
 8183TIP3    H145964   2.270   0.540   3.046  0.0379 -0.8095  3.2943
 8183TIP3    H245965   2.173   0.430   3.084  1.4371 -2.6781  1.6187
 8184TIP3   OH245966   0.966   1.688   1.653 -0.1374 -0.0428  0.0659
 8184TIP3    H145967   1.025   1.639   1.596  0.8360 -0.0563  1.0700
 8184TIP3    H245968   1.012   1.694   1.737 -2.3240 -1.7559  1.5114
 8185TIP3   OH245969   3.371   5.754  13.118  0.0199  0.1486 -0.3560
 8185TIP3    H145970   3.355   5.659  13.122 -0.5407  0.2692  0.6558
 8185TIP3    H245971   3.372   5.782  13.210  3.3438  0.6408 -0.4091
 8186TIP3   OH245972   5.553   0.200   1.967  0.0180 -0.2687  0.0719
 8186TIP3    H145973   5.619   0.262   1.998  0.7524 -0.5546 -0.8694
 8186TIP3    H245974   5.566   0.196   1.872 -0.7238 -1.0578 -0.0154
 8187TIP3   OH245975   2.284   1.852   2.106 -0.1412  0.1405  0.9692
 8187TIP3    H145976   2.298   1.793   2.033  1.8119  1.6256  0.0642
 8187TIP3    H245977   2.204   1.900   2.083 -1.1947 -1.3888  1.2637
 8188TIP3   OH245978   6.746   3.458   3.070  0.4114  0.5489 -0.0039
 8188TIP3    H145979   6.771   3.545   3.101  2.0291 -0.0320  0.4635
 8188TIP3    H245980   6.774   3.456   2.978  2.4751 -0.1842  0.5854
 8189TIP3   OH245981   3.866   3.173  14.800  0.2999  0.1363  0.0842
 8189TIP3    H145982   3.887   3.080  14.798 -1.6783 -0.3578 -1.1827
 8189TIP3    H245983   3.945   3.215  14.833  1.4048 -1.9350  0.2512
 8190TIP3   OH245984   5.880   4.265  12.734 -0.1755  0.0870  0.1521
 8190TIP3    H145985   5.796   4.295  12.699 -0.4209 -0.3505  0.3547
 8190TIP3    H245986   5.856   4.214  12.812  0.3978  1.6502  1.3861
 8191TIP3   OH245987   5.299   2.241  11.699  0.0474 -0.1878  0.0625
 8191TIP3    H145988   5.342   2.307  11.644 -0.2162 -0.4479 -0.4616
 8191TIP3    H245989   5.238   2.291  11.754  1.1468  0.2168  0.9639
 8192TIP3   OH245990   6.373   2.446   0.705 -0.0130  0.9519  0.2241
 8192TIP3    H145991   6.355   2.523   0.759 -1.4402  0.2323  0.8331
 8192TIP3    H245992   6.336   2.373   0.755  0.0659  0.0616 -0.9819
 8193TIP3   OH245993   3.530   4.115   1.396  0.2057  0.0468 -0.4861
 8193TIP3    H145994   3.480   4.096   1.475  2.6241 -1.3216  0.8058
 8193TIP3    H245995   3.554   4.207   1.405 -2.0716  0.7961 -1.2263
 8194TIP3   OH245996   0.818   1.774   3.809  0.1478  0.0497  0.2083
 8194TIP3    H145997   0.856   1.797   3.725 -0.2930 -1.3529 -0.3940
 8194TIP3    H245998   0.774   1.854   3.838 -0.1744  0.3872 -1.1583
 8195TIP3   OH245999   6.592   4.339  12.892 -0.0419 -0.0029  0.1588
 8195TIP3    H146000   6.529   4.361  12.962  0.2727  1.7006 -0.0340
 8195TIP3    H246001   6.560   4.388  12.816  1.6102  1.1037  0.1207
 8196TIP3   OH246002   2.745   4.399   6.132 -0.0035  0.7077  0.2264
 8196TIP3    H146003   2.838   4.392   6.150 -0.0436  1.9330  1.0687
 8196TIP3    H246004   2.733   4.489   6.100 -0.9811  0.7935  0.7801
 8197TIP3   OH246005   2.506   2.902  11.634  0.4976 -0.0798 -0.5915
 8197TIP3    H146006   2.421   2.865  11.609  1.0931 -1.3567 -0.8203
 8197TIP3    H246007   2.569   2.856  11.579  1.8489 -2.6871  2.7641
 8198TIP3   OH246008   1.087   3.082   0.173  0.1984 -0.0082  0.2061
 8198TIP3    H146009   0.999   3.119   0.181  0.5168  0.5893  1.1165
 8198TIP3    H246010   1.121   3.082   0.262  1.5857  0.9427 -0.2881
 8199TIP3   OH246011   6.214   3.442   4.034  0.0110 -0.7380 -0.1765
 8199TIP3    H146012   6.190   3.464   4.124  0.6077 -3.0182  0.6125
 8199TIP3    H246013   6.260   3.359   4.041  2.2613  0.1982 -2.3569
 8200TIP3   OH246014   5.383   0.326   5.586 -0.3970  0.0411  0.3093
 8200TIP3    H146015   5.306   0.275   5.561  0.7839 -1.6918 -0.0107
 8200TIP3    H246016   5.423   0.351   5.503 -1.8068  2.9848  0.4138
 8201TIP3   OH246017   2.173   4.656   5.033 -0.0320  0.4264  0.0534
 8201TIP3    H146018   2.246   4.594   5.034 -0.1982  0.2418  1.3634
 8201TIP3    H246019   2.112   4.619   4.968  1.1714  0.7808 -1.3388
 8202TIP3   OH246020   3.223   3.981   2.491  0.3811 -0.4823  0.3996
 8202TIP3    H146021   3.295   4.044   2.479  0.4756 -0.4293  1.1938
 8202TIP3    H246022   3.182   3.975   2.405  0.0555  1.0589  0.4203
 8203TIP3   OH246023   2.102   4.075   3.344 -0.1323 -0.1752 -0.0163
 8203TIP3    H146024   2.155   4.107   3.417  1.5012 -1.2263 -0.6736
 8203TIP3    H246025   2.027   4.032   3.386  0.3671 -0.0792  1.0220
 8204TIP3   OH246026   3.656   0.807  14.514 -0.0724 -0.1732  0.8588
 8204TIP3    H146027   3.726   0.742  14.513  0.1594  0.0755 -0.4924
 8204TIP3    H246028   3.585   0.767  14.465  0.3663  0.8739 -0.6951
 8205TIP3   OH246029   0.834   1.303  15.578 -0.7331  0.5429  0.1274
 8205TIP3    H146030   0.822   1.209  15.567 -1.9322  0.7683 -0.6851
 8205TIP3    H246031   0.892   1.311  15.654  0.7172 -0.8675 -0.7824
 8206TIP3   OH246032   0.155   0.904   0.623 -0.0919  0.4688  0.2627
 8206TIP3    H146033   0.207   0.875   0.698 -1.9550 -0.4293  1.2965
 8206TIP3    H246034   0.070   0.862   0.636 -1.4687  2.7864 -0.6942
 8207TIP3   OH246035   2.375   1.590  11.023 -0.7400 -0.1296  0.2041
 8207TIP3    H146036   2.337   1.645  10.954 -0.6537  0.8877  0.9395
 8207TIP3    H246037   2.451   1.550  10.983  0.0282  1.4259  0.0440
 8208TIP3   OH246038   0.609   2.808   3.265  0.5113  0.6288  0.2592
 8208TIP3    H146039   0.522   2.819   3.302  1.4476  2.7178  2.0628
 8208TIP3    H246040   0.668   2.811   3.340  2.1535 -1.5400 -0.8064
 8209TIP3   OH246041   6.440   3.704   1.302  0.1716 -0.1023 -0.1216
 8209TIP3    H146042   6.405   3.686   1.389  0.1238  1.3665  0.1846
 8209TIP3    H246043   6.461   3.618   1.266  0.3844 -0.7118  1.4160
 8210TIP3   OH246044   3.630   2.517   5.027  0.4695 -0.2821 -0.0370
 8210TIP3    H146045   3.650   2.547   5.115 -1.1763  0.2186  0.2008
 8210TIP3    H246046   3.619   2.597   4.976 -0.8590 -0.4891 -0.1257
 8211TIP3   OH246047   1.069   3.474  17.047 -0.3106  0.4555  0.0905
 8211TIP3    H146048   1.051   3.383  17.072  0.1885  0.1167 -0.7433
 8211TIP3    H246049   1.164   3.476  17.031 -0.5570  0.6991 -1.5237
 8212TIP3   OH246050   6.387   2.672   1.301 -0.4729  0.5669  0.5748
 8212TIP3    H146051   6.465   2.701   1.253 -0.3091  1.0162  1.1089
 8212TIP3    H246052   6.399   2.577   1.312 -0.2238  0.5610  0.2577
 8213TIP3   OH246053   1.570   5.861   5.421 -0.4713  0.1825  0.0271
 8213TIP3    H146054   1.548   5.884   5.330 -0.5017  0.5312  0.1187
 8213TIP3    H246055   1.600   5.944   5.459 -0.0270 -0.0594  0.2063
 8214TIP3   OH246056   0.581   1.760  11.771 -0.4518 -0.0851 -0.1518
 8214TIP3    H146057   0.643   1.834  11.767  0.4241 -0.7985 -0.1010
 8214TIP3    H246058   0.501   1.798  11.807  0.5803  0.4645  1.7101
 8215TIP3   OH246059   4.666   1.040  15.895 -0.0399 -0.2190 -0.4835
 8215TIP3    H146060   4.573   1.028  15.876 -0.0734  0.3580 -0.7231
 8215TIP3    H246061   4.710   0.975  15.841 -0.4006 -1.9247  1.1808
 8216TIP3   OH246062   0.719   3.480  16.404  0.0882  0.1951  0.2835
 8216TIP3    H146063   0.651   3.508  16.343 -0.6761  1.0734  1.4999
 8216TIP3    H246064   0.758   3.403  16.362 -2.2484 -0.9095 -0.0608
 8217TIP3   OH246065   1.853   2.253   3.719 -0.2794 -0.1470 -0.4686
 8217TIP3    H146066   1.827   2.324   3.661  1.1975  0.0926 -0.8781
 8217TIP3    H246067   1.786   2.252   3.787 -0.3650  1.5909 -0.4927
 8218TIP3   OH246068   3.725   6.264   3.042 -0.0243  0.3175  0.4018
 8218TIP3    H146069   3.677   6.219   2.973  0.7769 -0.3378  0.2550
 8218TIP3    H246070   3.730   6.355   3.013 -0.4205  0.2168  0.0107
 8219TIP3   OH246071   6.778   3.336  15.823 -0.1363  0.2963 -0.2659
 8219TIP3    H146072   6.836   3.410  15.838  0.2605  0.0001 -0.3384
 8219TIP3    H246073   6.809   3.296  15.742  0.2761 -0.5438  0.2920
 8220TIP3   OH246074   4.054   2.714  14.932 -0.3539 -0.0044  0.3455
 8220TIP3    H146075   4.149   2.719  14.943 -0.3952  0.1605  0.6275
 8220TIP3    H246076   4.029   2.796  14.891  0.0892 -1.4773 -3.2449
 8221TIP3   OH246077   5.495   3.622  15.615  0.3659  0.3422 -0.2290
 8221TIP3    H146078   5.440   3.553  15.653  1.6616 -0.5907  0.0438
 8221TIP3    H246079   5.441   3.661  15.546 -0.5093 -0.7661 -0.2047
 8222TIP3   OH246080   2.147   4.207   1.927 -0.0649 -0.2312 -0.1159
 8222TIP3    H146081   2.135   4.235   1.837 -1.0435 -1.8629 -0.5326
 8222TIP3    H246082   2.059   4.193   1.960  0.2807  0.3531  1.1197
 8223TIP3   OH246083   4.081   4.302  15.323  0.4140  0.5338  0.1260
 8223TIP3    H146084   4.056   4.362  15.394  1.9031 -0.8988  1.9579
 8223TIP3    H246085   4.134   4.356  15.264 -1.0555  1.8181 -0.0909
 8224TIP3   OH246086   6.323   2.138  11.210 -0.1753 -0.5185 -0.3092
 8224TIP3    H146087   6.328   2.117  11.117  0.5881 -0.7236 -0.2339
 8224TIP3    H246088   6.412   2.166  11.233 -0.4515 -0.0893  0.2675
 8225TIP3   OH246089   6.220   2.956   0.141 -0.2564  0.0861 -0.4341
 8225TIP3    H146090   6.136   2.911   0.154 -0.1957  0.0361 -0.2076
 8225TIP3    H246091   6.208   3.006   0.060 -1.8786  3.1286  1.4750
 8226TIP3   OH246092   0.889   3.869   0.123 -0.2138  0.5649  0.3242
 8226TIP3    H146093   0.917   3.800   0.183  1.8793  2.3797  1.6000
 8226TIP3    H246094   0.803   3.897   0.157 -0.2207 -0.1583  0.9164
 8227TIP3   OH246095   2.048   3.331  12.872  0.0102  0.0297  0.0014
 8227TIP3    H146096   2.024   3.255  12.819  0.7189  0.3973 -0.8692
 8227TIP3    H246097   2.014   3.311  12.959  0.9762 -1.6935  0.0224
 8228TIP3   OH246098   3.817   0.243  17.077  0.1398  0.1375  0.3625
 8228TIP3    H146099   3.824   0.313  17.012 -0.1055  1.1015  1.3385
 8228TIP3    H246100   3.875   0.270  17.148 -0.1952 -0.4925  0.8895
 8229TIP3   OH246101   0.812   0.047  13.177  0.1927  0.6771 -0.1630
 8229TIP3    H146102   0.795  -0.046  13.190  0.8399  0.1445 -2.6042
 8229TIP3    H246103   0.893   0.064  13.225  0.5033 -0.2111 -0.3632
 8230TIP3   OH246104   1.250   1.677  16.867  0.0220 -0.2482  0.1358
 8230TIP3    H146105   1.286   1.661  16.954 -2.1767  0.1200  1.1802
 8230TIP3    H246106   1.246   1.772  16.859  0.5969 -0.2691 -0.5792
 8231TIP3   OH246107   1.813   2.678  12.443 -0.1988 -0.4197 -0.6068
 8231TIP3    H146108   1.717   2.671  12.436 -0.1930 -0.2821 -0.8108
 8231TIP3    H246109   1.836   2.749  12.384 -0.0811  0.2241  0.1973
 8232TIP3   OH246110   6.593   1.082  13.517  0.9473  0.0260  0.1219
 8232TIP3    H146111   6.503   1.089  13.487  0.5316  0.4669  1.3772
 8232TIP3    H246112   6.625   0.999  13.482  0.1079 -0.0577 -0.4601
 8233TIP3   OH246113   5.379   0.130   1.080  0.3043  0.1182  0.4374
 8233TIP3    H146114   5.330   0.211   1.094 -1.0743 -0.7159  0.6306
 8233TIP3    H246115   5.467   0.149   1.110  0.8382  2.4741 -2.2262
 8234TIP3   OH246116   2.020   4.938  16.718  0.0339 -0.0678 -0.2853
 8234TIP3    H146117   2.101   4.986  16.699 -0.0168  0.0542 -0.2003
 8234TIP3    H246118   2.026   4.858  16.666  0.5776 -0.4382  0.3304
 8235TIP3   OH246119   0.588   4.488   1.698 -0.6003 -0.0888  0.5290
 8235TIP3    H146120   0.521   4.484   1.629  0.4202  0.6459 -0.5394
 8235TIP3    H246121   0.584   4.578   1.730 -0.7118 -0.2859  1.0726
 8236TIP3   OH246122   0.113   0.665   1.665 -0.6517  0.1274  0.1544
 8236TIP3    H146123   0.170   0.596   1.698 -0.9229 -0.3258 -0.3184
 8236TIP3    H246124   0.091   0.638   1.576  1.0520  1.9378 -0.9031
 8237TIP3   OH246125   6.150   6.488   0.693 -0.1832  0.2977  0.4047
 8237TIP3    H146126   6.225   6.429   0.703  0.3402  0.9255  0.2484
 8237TIP3    H246127   6.100   6.477   0.774 -1.7379 -2.5847 -0.8059
 8238TIP3   OH246128   4.460   2.989   1.600 -0.0024  0.2568  0.1166
 8238TIP3    H146129   4.402   2.913   1.587  0.4268  0.0063 -0.3875
 8238TIP3    H246130   4.516   2.989   1.522 -0.0936  1.1797  0.0410
 8239TIP3   OH246131   5.853   2.275   0.672 -0.0548 -0.5179 -0.2765
 8239TIP3    H146132   5.897   2.190   0.678  1.6021  0.3449  0.1300
 8239TIP3    H246133   5.896   2.319   0.599  1.2541  1.1506  1.4295
 8240TIP3   OH246134   5.702   1.674  11.948 -0.2226 -0.3452  0.5529
 8240TIP3    H146135   5.611   1.646  11.937 -0.2017  0.1777 -1.3549
 8240TIP3    H246136   5.696   1.762  11.986 -0.4178 -1.0486  2.2354
 8241TIP3   OH246137   6.200   4.704   1.521  0.0727 -0.1191  0.3503
 8241TIP3    H146138   6.127   4.735   1.575  0.2431  1.1552 -0.1245
 8241TIP3    H246139   6.271   4.765   1.541  0.7732 -0.8955  0.2422
 8242TIP3   OH246140   4.281   4.776   6.136  0.0868 -0.0050 -0.3195
 8242TIP3    H146141   4.282   4.869   6.156  1.8326  0.0354 -0.4166
 8242TIP3    H246142   4.318   4.734   6.213 -1.5884 -0.7436  0.1239
 8243TIP3   OH246143   3.162   0.195  14.109  0.3090  0.3934 -0.2369
 8243TIP3    H146144   3.085   0.198  14.052  0.0341 -1.3262 -0.0281
 8243TIP3    H246145   3.235   0.178  14.051 -0.0220 -1.7419 -0.1060
 8244TIP3   OH246146   4.629   5.903  11.299  0.3626 -0.2647 -0.1800
 8244TIP3    H146147   4.547   5.875  11.339  1.3414 -2.3781  0.4807
 8244TIP3    H246148   4.696   5.876  11.362  1.7305 -0.7875 -1.8133
 8245TIP3   OH246149   5.007   3.606   0.076  0.2151 -0.2926 -0.1964
 8245TIP3    H146150   5.083   3.637   0.027 -0.7175  1.3623 -0.6864
 8245TIP3    H246151   5.001   3.513   0.056  0.0201  0.2467 -3.1098
 8246TIP3   OH246152   4.950   4.317   6.274 -0.2424  0.1461 -0.2867
 8246TIP3    H146153   4.904   4.384   6.324 -0.4904  1.1739 -1.8298
 8246TIP3    H246154   4.960   4.244   6.335 -0.8435  1.2082  1.1289
 8247TIP3   OH246155   2.830   3.489   2.600 -0.6397 -0.1861  0.2626
 8247TIP3    H146156   2.812   3.479   2.506 -1.0303 -2.0580  0.5106
 8247TIP3    H246157   2.825   3.401   2.635  1.5125  0.1848  1.7101
 8248TIP3   OH246158   2.479   4.221  11.694 -0.5967  0.1642 -0.0002
 8248TIP3    H146159   2.568   4.247  11.670 -0.2064 -1.7060 -0.8144
 8248TIP3    H246160   2.437   4.302  11.721  0.9448  1.3310 -0.8871
 8249TIP3   OH246161   0.174   6.538  16.164  1.0720 -0.0177  0.3191
 8249TIP3    H146162   0.196   6.604  16.231  0.1731  0.9520 -0.3055
 8249TIP3    H246163   0.202   6.578  16.082  0.1161 -0.2197 -0.1149
 8250TIP3   OH246164   4.016   0.263  15.619 -0.2293 -0.0916  0.4275
 8250TIP3    H146165   4.076   0.333  15.645 -0.5131  1.8163 -3.4287
 8250TIP3    H246166   3.931   0.291  15.652  0.0932 -0.1647  1.3760
 8251TIP3   OH246167   4.616   4.506  15.379 -0.3643  0.0950 -0.1006
 8251TIP3    H146168   4.650   4.485  15.292 -2.0074  0.5373 -0.8910
 8251TIP3    H246169   4.687   4.553  15.422  0.5581 -0.3340 -1.1121
 8252TIP3   OH246170   3.057   5.473   3.638 -0.5939 -0.0872 -0.0204
 8252TIP3    H146171   3.120   5.536   3.674  0.1094 -0.8842  0.1521
 8252TIP3    H246172   3.085   5.388   3.671 -2.6537 -0.3120  1.3273
 8253TIP3   OH246173   3.884   4.389  14.076  0.1759 -0.0165 -0.3870
 8253TIP3    H146174   3.858   4.306  14.116 -2.9235  0.5234 -1.0744
 8253TIP3    H246175   3.957   4.366  14.018  1.0037 -1.7720  1.2330
 8254TIP3   OH246176   1.145   6.090  13.206 -0.4173  0.5582  0.1749
 8254TIP3    H146177   1.107   6.022  13.261 -1.0079  0.5646 -0.2129
 8254TIP3    H246178   1.221   6.048  13.166 -0.3153  0.3769  0.5590
 8255TIP3   OH246179   4.938   5.947   4.605 -0.5707  0.1657  0.1550
 8255TIP3    H146180   4.849   5.916   4.587 -0.7566  0.5193  0.4483
 8255TIP3    H246181   4.993   5.869   4.597 -0.7903  0.1055 -0.8478
 8256TIP3   OH246182   5.540   6.349   2.634  0.6664  0.0304 -0.6811
 8256TIP3    H146183   5.616   6.407   2.640  0.0971  0.8375 -1.0655
 8256TIP3    H246184   5.537   6.325   2.541  1.5573 -1.5480 -0.3345
 8257TIP3   OH246185   1.754   2.512  13.480  0.1013  0.2848 -0.2895
 8257TIP3    H146186   1.814   2.585  13.462 -0.8859  1.2745  0.3220
 8257TIP3    H246187   1.668   2.546  13.458 -0.1483 -1.5979 -2.5449
 8258TIP3   OH246188   1.480   3.363   5.096 -0.2553  0.4309 -0.4128
 8258TIP3    H146189   1.479   3.353   5.001 -0.9932  0.7642 -0.4451
 8258TIP3    H246190   1.498   3.275   5.129  0.3638  0.3802 -0.8641
 8259TIP3   OH246191   3.027   0.185   5.874  0.3787  0.2350  0.2044
 8259TIP3    H146192   3.051   0.277   5.866 -0.2936  0.5583  1.5658
 8259TIP3    H246193   2.979   0.180   5.956  3.5803 -1.9682  2.1894
 8260TIP3   OH246194   4.197   3.177  12.007 -0.1517 -0.5379  0.0779
 8260TIP3    H146195   4.160   3.095  11.973 -0.5098 -0.2300 -0.2898
 8260TIP3    H246196   4.182   3.173  12.101  1.7333 -1.8557  0.3750
 8261TIP3   OH246197   1.156   1.535   3.238  0.0002 -0.1278  0.1628
 8261TIP3    H146198   1.133   1.602   3.303 -2.0367 -0.3828 -0.2497
 8261TIP3    H246199   1.082   1.532   3.179  0.7735 -1.6215 -0.7948
 8262TIP3   OH246200   6.502   5.105  12.670  0.2084  0.1703  0.1038
 8262TIP3    H146201   6.527   5.181  12.617  1.6145 -0.8271 -0.7481
 8262TIP3    H246202   6.585   5.074  12.707 -0.4535 -0.4705  1.0957
 8263TIP3   OH246203   2.979   2.240  13.298  0.3479  0.1737 -0.0707
 8263TIP3    H146204   3.051   2.270  13.354 -0.3690 -0.1085  1.0499
 8263TIP3    H246205   3.016   2.170  13.245  0.7157 -0.5056  1.0627
 8264TIP3   OH246206   3.906   1.528   1.683 -0.1708  0.4257 -0.7154
 8264TIP3    H146207   3.970   1.581   1.636 -0.7035  1.9423  0.2105
 8264TIP3    H246208   3.935   1.532   1.775 -1.6477  1.2823 -0.2586
 8265TIP3   OH246209   5.836   5.941  13.393 -0.1031  0.1687  0.6608
 8265TIP3    H146210   5.910   5.984  13.350  0.4213 -0.4588  0.9145
 8265TIP3    H246211   5.810   5.871  13.333  0.4000 -0.4811  1.1754
 8266TIP3   OH246212   0.372   0.224   6.036 -0.1775 -0.6423  0.3082
 8266TIP3    H146213   0.375   0.294   6.102 -1.2536  0.1149 -0.4073
 8266TIP3    H246214   0.280   0.221   6.008  0.3914 -0.2653 -1.8233
 8267TIP3   OH246215   1.699   5.261  15.601 -0.4145  0.2873 -0.1881
 8267TIP3    H146216   1.743   5.346  15.598 -0.0511  0.0871 -0.7402
 8267TIP3    H246217   1.702   5.235  15.693  1.0741  0.0434 -0.2803
 8268TIP3   OH246218   2.089   3.710  14.009  0.0495  0.5170 -0.1452
 8268TIP3    H146219   2.103   3.743  13.920 -0.7740  0.0574 -0.4581
 8268TIP3    H246220   2.164   3.653  14.025 -0.5657 -0.6477 -1.1774
 8269TIP3   OH246221   0.799   2.814  12.234 -0.1052 -0.8045 -0.3204
 8269TIP3    H146222   0.813   2.903  12.267  0.9254 -0.0154 -2.6532
 8269TIP3    H246223   0.886   2.774  12.235 -0.6982 -2.2031  1.6099
 8270TIP3   OH246224   4.515   2.828   1.157  0.0563 -0.4586 -0.3904
 8270TIP3    H146225   4.443   2.884   1.184  1.8509  1.6141  0.4758
 8270TIP3    H246226   4.558   2.876   1.086  1.4338 -0.8622  0.1188
 8271TIP3   OH246227   2.696   3.573  13.529 -0.0560  0.3965 -0.4653
 8271TIP3    H146228   2.705   3.624  13.609  0.1228 -1.9420  1.1224
 8271TIP3    H246229   2.782   3.533  13.516 -0.2246  0.3422 -1.5581
 8272TIP3   OH246230   2.057   2.011   2.077  0.1466 -0.6307  0.1284
 8272TIP3    H146231   1.992   2.025   2.146  0.0699  0.4650 -0.1472
 8272TIP3    H246232   2.053   2.091   2.025  0.3017 -1.3877 -1.0692
 8273TIP3   OH246233   2.181   0.524   2.430  0.4962  0.5555 -0.2191
 8273TIP3    H146234   2.272   0.521   2.399  0.6053  0.2074  0.1239
 8273TIP3    H246235   2.187   0.569   2.515  0.3889  0.2667 -0.0572
 8274TIP3   OH246236   4.057   2.624   3.713 -0.0934 -0.1738 -0.6390
 8274TIP3    H146237   4.077   2.715   3.691  3.7103 -0.3084  1.4477
 8274TIP3    H246238   4.100   2.573   3.644  1.9445 -0.3725  0.6997
 8275TIP3   OH246239   4.276   2.496  16.178  0.2203  0.8150  0.3628
 8275TIP3    H146240   4.237   2.443  16.109  0.3419 -1.6258  2.0636
 8275TIP3    H246241   4.212   2.496  16.249  2.2537 -1.4650  2.3747
 8276TIP3   OH246242   1.478   4.524  13.192 -0.1438 -0.3545  0.0409
 8276TIP3    H146243   1.431   4.604  13.167  1.5281  0.2299 -1.4488
 8276TIP3    H246244   1.509   4.488  13.109  3.7447  0.3814  1.0110
 8277TIP3   OH246245   4.252   2.267   4.021 -0.0329  0.1809 -0.0473
 8277TIP3    H146246   4.158   2.259   4.037 -0.0061 -0.7368 -0.3199
 8277TIP3    H246247   4.290   2.189   4.061  0.5586  0.2702 -0.4257
 8278TIP3   OH246248   4.848   2.812   1.483  0.6709 -0.2689  0.6121
 8278TIP3    H146249   4.913   2.878   1.459  2.1367 -1.6797  0.5253
 8278TIP3    H246250   4.855   2.804   1.578  2.2846 -2.0024  0.3962
 8279TIP3   OH246251   4.070   5.275  16.878  0.3218  0.2873 -0.2187
 8279TIP3    H146252   4.039   5.321  16.800 -0.8492 -1.0469 -0.5911
 8279TIP3    H246253   4.063   5.339  16.948 -3.6565  0.0939 -0.2278
 8280TIP3   OH246254   0.498   5.366   5.818  0.2619  0.0661  0.1083
 8280TIP3    H146255   0.480   5.272   5.818 -0.7395  0.2251 -1.1605
 8280TIP3    H246256   0.416   5.406   5.846  0.9618  0.5431  1.5360
 8281TIP3   OH246257   2.933   5.120   1.676  0.6272 -0.4950 -0.5355
 8281TIP3    H146258   2.991   5.146   1.605 -1.8420  0.7710 -2.2125
 8281TIP3    H246259   2.918   5.201   1.726  0.7334 -0.9406  0.2436
 8282TIP3   OH246260   5.213   4.703   4.793 -0.0925  0.3408  0.0846
 8282TIP3    H146261   5.152   4.776   4.779 -0.3008  0.2432  0.4826
 8282TIP3    H246262   5.245   4.682   4.705 -1.0821  0.0028 -0.2107
 8283TIP3   OH246263   1.936   0.765  15.789  0.2276  0.6376 -0.3444
 8283TIP3    H146264   1.879   0.696  15.754  0.1429  0.7020 -0.3332
 8283TIP3    H246265   1.986   0.722  15.859 -1.7434  1.2317  1.5162
 8284TIP3   OH246266   1.081   2.859   2.031 -0.2231  0.2854  0.1271
 8284TIP3    H146267   1.053   2.935   2.084  0.1253  0.8469 -0.4861
 8284TIP3    H246268   1.006   2.800   2.034  0.3187 -0.3948  2.5019
 8285TIP3   OH246269   3.010   3.601  15.070 -0.0424 -0.0767  0.2105
 8285TIP3    H146270   3.081   3.543  15.044  0.7508 -0.0381  2.1220
 8285TIP3    H246271   2.953   3.546  15.124 -0.1998  0.4907  0.6255
 8286TIP3   OH246272   2.953   4.215  14.661  0.3989 -0.4991 -0.5864
 8286TIP3    H146273   2.994   4.295  14.629  0.9456 -0.7051 -0.4096
 8286TIP3    H246274   2.944   4.228  14.756 -1.7354  0.3452 -0.8472
 8287TIP3   OH246275   4.105   6.174  16.091 -0.0355 -0.3794  0.2794
 8287TIP3    H146276   4.063   6.087  16.095 -0.6377 -0.1746 -1.0054
 8287TIP3    H246277   4.174   6.170  16.157 -2.2476 -0.6320  2.7644
 8288TIP3   OH246278   0.949   5.961   2.714 -0.2546 -0.0022 -0.2436
 8288TIP3    H146279   0.993   6.039   2.748  1.6090 -0.1978 -2.0089
 8288TIP3    H246280   0.958   5.967   2.619 -0.5699 -2.0677 -0.4605
 8289TIP3   OH246281   0.438   1.581  14.722 -0.1259  0.4002 -0.1081
 8289TIP3    H146282   0.484   1.526  14.658 -0.7929  0.8024 -0.9626
 8289TIP3    H246283   0.507   1.624  14.772  0.4061 -0.2063 -0.3140
 8290TIP3   OH246284   3.174   6.377   1.668  0.5175  0.6413  0.6737
 8290TIP3    H146285   3.185   6.468   1.641 -2.7536  1.0190  0.2932
 8290TIP3    H246286   3.162   6.329   1.587 -0.5116  0.3460  0.9852
 8291TIP3   OH246287   0.033   2.480  15.445  0.1310  0.5658 -0.5541
 8291TIP3    H146288  -0.048   2.446  15.482  0.3004 -0.0222 -0.7193
 8291TIP3    H246289   0.010   2.500  15.354 -0.3877  2.3599 -0.0678
 8292TIP3   OH246290   5.951   0.949   0.614  0.4196  0.4046 -0.3543
 8292TIP3    H146291   5.900   1.008   0.669  1.7444  1.7474 -0.5190
 8292TIP3    H246292   5.900   0.942   0.533 -0.1970  0.5718  0.0077
 8293TIP3   OH246293   1.619   2.274   3.528 -0.9585  0.0976 -0.1485
 8293TIP3    H146294   1.616   2.182   3.505 -0.7947 -0.6608  2.5322
 8293TIP3    H246295   1.711   2.299   3.518 -1.0533  0.0872 -1.1559
 8294TIP3   OH246296   1.716   0.405   6.430 -0.0142  0.0040  0.3624
 8294TIP3    H146297   1.640   0.434   6.481  0.4786 -0.3900  1.3507
 8294TIP3    H246298   1.694   0.317   6.402  0.4402 -0.4721  1.4473
 8295TIP3   OH246299   6.295   3.298   2.573 -0.2537  0.3799 -0.5394
 8295TIP3    H146300   6.352   3.361   2.529 -0.5386 -0.2452 -1.8529
 8295TIP3    H246301   6.312   3.312   2.667  1.1383  1.0420 -0.8580
 8296TIP3   OH246302   2.394   0.367  16.543  0.2724  0.2200  0.0326
 8296TIP3    H146303   2.444   0.449  16.548 -0.0548  0.3419  2.9068
 8296TIP3    H246304   2.459   0.298  16.552  0.1610  0.3635  2.9262
 8297TIP3   OH246305   4.852   2.571  11.557  0.1360 -0.1886  0.2251
 8297TIP3    H146306   4.782   2.551  11.619  0.0830 -0.1811  0.1680
 8297TIP3    H246307   4.899   2.488  11.546 -0.4482 -0.4486 -0.4738
 8298TIP3   OH246308   5.229   3.286  17.252 -0.2757  0.4912  0.2587
 8298TIP3    H146309   5.262   3.345  17.185 -0.3934 -0.2805 -0.4941
 8298TIP3    H246310   5.300   3.223  17.265 -0.9406 -0.4269 -0.4576
 8299TIP3   OH246311   0.091   2.295  11.661  0.1320  0.5080 -0.2471
 8299TIP3    H146312   0.144   2.235  11.609 -1.5335 -0.2473 -1.1529
 8299TIP3    H246313   0.094   2.259  11.750  3.6046  2.2167  0.4935
 8300TIP3   OH246314   0.212   3.689   5.385 -0.1888  0.2803  0.5714
 8300TIP3    H146315   0.258   3.770   5.361 -1.4220  0.7918 -0.2022
 8300TIP3    H246316   0.119   3.712   5.377 -0.5767 -0.9132  1.4036
 8301TIP3   OH246317   3.242   1.232   5.969  0.4863 -0.3172  0.4095
 8301TIP3    H146318   3.200   1.241   6.054 -1.3381 -1.4609 -0.3257
 8301TIP3    H246319   3.330   1.200   5.990  0.5040  0.6057  1.9055
 8302TIP3   OH246320   2.894   1.540   3.020 -0.7342 -0.1154 -0.1611
 8302TIP3    H146321   2.894   1.483   3.097  0.1461 -0.0022 -0.0671
 8302TIP3    H246322   2.972   1.594   3.031  0.1832 -1.0261 -1.8269
 8303TIP3   OH246323   0.341   0.134   1.354 -0.4045 -0.3293  0.1444
 8303TIP3    H146324   0.352   0.065   1.419  0.3211  0.7740  1.2235
 8303TIP3    H246325   0.356   0.216   1.402 -0.4316  0.5438 -1.2767
 8304TIP3   OH246326   5.825   2.424   4.443  0.2607  0.5377  0.2141
 8304TIP3    H146327   5.856   2.463   4.362  0.4532 -2.5394 -1.3311
 8304TIP3    H246328   5.730   2.424   4.435  0.2202  1.3280  0.5846
 8305TIP3   OH246329   3.169   3.628  15.891  0.2157 -0.5290 -0.1413
 8305TIP3    H146330   3.231   3.561  15.862 -1.1089 -1.2376 -1.5231
 8305TIP3    H246331   3.171   3.694  15.821  0.0212 -0.1325  0.2186
 8306TIP3   OH246332   3.823   2.179  15.756 -0.2327  1.3579 -1.2130
 8306TIP3    H146333   3.779   2.105  15.714  0.8282 -0.3911  0.5785
 8306TIP3    H246334   3.766   2.201  15.830  0.6705  0.5770 -0.2362
 8307TIP3   OH246335   2.556   2.952  12.419  0.1184  0.1811  0.6490
 8307TIP3    H146336   2.596   2.900  12.349 -0.1082  1.3969 -0.4232
 8307TIP3    H246337   2.627   3.008  12.450 -0.2300  0.9601  0.0834
 8308TIP3   OH246338   5.378   5.872   0.764  0.1831  0.0925  0.0951
 8308TIP3    H146339   5.314   5.943   0.774  0.6817  0.8993 -1.7978
 8308TIP3    H246340   5.453   5.915   0.721  0.8703 -1.3907 -0.2360
 8309TIP3   OH246341   0.499   0.091  13.742 -0.0260 -0.2177 -0.0631
 8309TIP3    H146342   0.514   0.080  13.648  1.2075 -0.2909  0.1309
 8309TIP3    H246343   0.579   0.131  13.775 -0.0106 -1.1535  1.1268
 8310TIP3   OH246344   4.923   0.978  17.096 -0.1021  0.2699  0.6293
 8310TIP3    H146345   4.859   1.020  17.154  0.3421  0.5587  0.9257
 8310TIP3    H246346   4.935   0.891  17.133 -2.6389 -0.9645 -1.2372
 8311TIP3   OH246347   6.760   4.170  14.880 -0.5967 -0.6834  0.3368
 8311TIP3    H146348   6.697   4.178  14.808  0.4348  0.9913 -0.4446
 8311TIP3    H246349   6.711   4.196  14.958 -0.6521  1.8318 -0.4246
 8312TIP3   OH246350   1.396   4.878  16.677  0.1694  0.1156 -0.5413
 8312TIP3    H146351   1.480   4.854  16.639  1.9107  1.2611  2.2664
 8312TIP3    H246352   1.402   4.973  16.690 -2.1466  0.4656 -1.4620
 8313TIP3   OH246353   1.948   3.513  11.341 -0.1662  0.4407  0.1527
 8313TIP3    H146354   1.976   3.586  11.285 -1.5413  0.7119 -0.2182
 8313TIP3    H246355   1.955   3.436  11.285  0.2056  0.4548  0.1811
 8314TIP3   OH246356   5.699   2.982  15.035 -0.0467 -0.4244  0.3374
 8314TIP3    H146357   5.705   3.077  15.027  0.2837 -0.4948 -0.3028
 8314TIP3    H246358   5.717   2.965  15.127  0.7409  0.0744  0.2827
 8315TIP3   OH246359   2.537   3.355   0.663  0.9022 -1.3365  0.1211
 8315TIP3    H146360   2.597   3.329   0.732  1.5539  2.4647  1.2285
 8315TIP3    H246361   2.588   3.415   0.608 -1.2579  0.6305  0.0810
 8316TIP3   OH246362   0.861   5.183   2.718 -0.0602 -0.0120  0.0229
 8316TIP3    H146363   0.918   5.200   2.643  0.6290 -0.9560  0.3166
 8316TIP3    H246364   0.826   5.269   2.740  1.2892  0.6141 -0.1399
 8317TIP3   OH246365   6.068   5.222   4.867 -0.3617 -0.6065 -0.6175
 8317TIP3    H146366   6.008   5.248   4.938 -0.9827 -0.4256 -1.1997
 8317TIP3    H246367   6.049   5.284   4.796  1.1379  0.0175 -0.5056
 8318TIP3   OH246368   5.712   5.578  15.191  0.3016 -0.4711  0.0002
 8318TIP3    H146369   5.697   5.585  15.286 -1.5389 -1.1911 -0.1860
 8318TIP3    H246370   5.776   5.508  15.182  0.0836 -0.7746  0.6983
 8319TIP3   OH246371   6.046   6.696  14.768  0.1197 -0.0691 -0.4208
 8319TIP3    H146372   6.139   6.712  14.786  0.3081 -0.3434 -1.1333
 8319TIP3    H246373   6.040   6.696  14.673 -0.3884 -1.3098 -0.3981
 8320TIP3   OH246374   4.861   2.906  16.221  0.0320 -0.3738 -0.0354
 8320TIP3    H146375   4.877   2.968  16.293  1.6424 -0.7941  0.0040
 8320TIP3    H246376   4.881   2.956  16.142  0.5306 -0.5999 -0.0516
 8321TIP3   OH246377   6.604   2.355  15.876  0.5728 -0.2000  0.3200
 8321TIP3    H146378   6.536   2.382  15.938  0.5086 -0.5989  0.4266
 8321TIP3    H246379   6.669   2.425  15.879 -0.8978  1.3583 -1.4609
 8322TIP3   OH246380   0.182   6.057  15.713 -0.1860 -0.3004  0.1674
 8322TIP3    H146381   0.157   6.078  15.623 -2.7585 -0.2522  0.8144
 8322TIP3    H246382   0.135   5.976  15.733  0.0509 -0.1084  1.5921
 8323TIP3   OH246383   2.514   1.679   0.780  0.0922 -0.3845  0.0994
 8323TIP3    H146384   2.590   1.729   0.808 -0.4158  1.3267 -1.3768
 8323TIP3    H246385   2.439   1.735   0.801 -0.5669 -0.9315 -0.7311
 8324TIP3   OH246386   6.015   2.811   0.355  0.1747  0.5082  0.2462
 8324TIP3    H146387   5.953   2.844   0.420  0.0975 -1.7886  1.4448
 8324TIP3    H246388   5.963   2.801   0.275 -0.5114  0.4716  0.6879
 8325TIP3   OH246389   3.730   4.790  14.598 -0.3501  0.1129  0.0866
 8325TIP3    H146390   3.653   4.733  14.593 -0.2118 -0.0632 -0.0209
 8325TIP3    H246391   3.795   4.749  14.541 -0.8175  1.2513 -1.3533
 8326TIP3   OH246392   2.048   1.331   6.613 -0.2006 -0.1351 -0.3210
 8326TIP3    H146393   2.107   1.262   6.583 -0.5899 -0.0425 -1.3661
 8326TIP3    H246394   2.105   1.394   6.658  0.4126 -0.3352 -0.8029
 8327TIP3   OH246395   4.231   2.524  16.488 -0.2005  0.3532  0.3083
 8327TIP3    H146396   4.164   2.457  16.471 -0.7144  0.3282  2.2660
 8327TIP3    H246397   4.182   2.599  16.521  0.4780  1.4015 -0.9659
 8328TIP3   OH246398   1.678   4.700   5.947  0.1480 -0.1079  0.1679
 8328TIP3    H146399   1.670   4.771   5.883 -0.9904 -0.3138  0.0705
 8328TIP3    H246400   1.713   4.743   6.025  2.2803  0.0165 -0.7793
 8329TIP3   OH246401   1.431   3.831  16.104 -0.1649 -0.1834 -0.3327
 8329TIP3    H146402   1.341   3.811  16.131  0.6033 -0.6841  2.0742
 8329TIP3    H246403   1.437   3.927  16.109 -0.5865 -0.1379 -0.6452
 8330TIP3   OH246404   6.563   3.656  14.058  0.3909  0.1912  0.1815
 8330TIP3    H146405   6.648   3.688  14.087  0.8381  0.0871 -0.9826
 8330TIP3    H246406   6.500   3.702  14.114  0.9963  3.0702 -1.3133
 8331TIP3   OH246407   4.198   4.350  13.429 -0.8701 -0.3538 -0.4344
 8331TIP3    H146408   4.149   4.347  13.511 -1.3363  2.0325 -0.5536
 8331TIP3    H246409   4.133   4.375  13.363  0.1505  1.2673 -0.8801
 8332TIP3   OH246410   1.700   0.331  15.863 -0.2140  0.0060 -0.0240
 8332TIP3    H146411   1.668   0.282  15.938  0.4635 -0.9006 -0.3065
 8332TIP3    H246412   1.728   0.264  15.800  1.0294  0.7324 -0.3016
 8333TIP3   OH246413   3.873   2.871  13.571 -0.0301  0.9203 -0.0118
 8333TIP3    H146414   3.840   2.877  13.481  1.8199 -0.0251 -0.8057
 8333TIP3    H246415   3.891   2.778  13.584 -1.5709  0.8115  1.8806
 8334TIP3   OH246416   4.137   3.296  11.761 -0.3106  0.4515  0.0762
 8334TIP3    H146417   4.151   3.251  11.845  0.5294  0.8849  0.1761
 8334TIP3    H246418   4.151   3.388  11.781 -0.8732  0.6414 -0.3871
 8335TIP3   OH246419   3.984   1.499   4.271  0.5491 -0.5229 -0.2843
 8335TIP3    H146420   4.047   1.446   4.320  0.9836  0.1562 -0.1015
 8335TIP3    H246421   3.899   1.463   4.296  0.5424  1.4764  3.1316
 8336TIP3   OH246422   4.079   3.360   5.067  0.3429  0.0899  0.1948
 8336TIP3    H146423   4.048   3.449   5.048  0.2268  0.5618  2.3435
 8336TIP3    H246424   4.018   3.303   5.019 -0.0342  1.1471 -0.6150
 8337TIP3   OH246425   0.231   3.386   5.586  0.6048 -1.0400  0.6080
 8337TIP3    H146426   0.236   3.481   5.597 -0.5737 -1.1015  1.9623
 8337TIP3    H246427   0.321   3.356   5.590  1.0507  0.0708 -0.4558
 8338TIP3   OH246428   5.267   4.291  15.380  0.1780 -0.1447  0.1516
 8338TIP3    H146429   5.344   4.328  15.424  0.8616 -0.5330 -0.6756
 8338TIP3    H246430   5.240   4.219  15.436 -0.3430  0.7566  1.0788
 8339TIP3   OH246431   0.790   3.728   5.476  0.3165 -0.8297 -0.1685
 8339TIP3    H146432   0.720   3.782   5.511 -0.0248 -0.4149 -1.4278
 8339TIP3    H246433   0.817   3.672   5.549 -1.5306 -1.2206  0.2568
 8340TIP3   OH246434   3.255   4.354   0.244  0.1082  0.6019  0.0791
 8340TIP3    H146435   3.341   4.386   0.270  0.2661 -0.9628  1.6741
 8340TIP3    H246436   3.268   4.316   0.157  1.2645 -0.4043  0.6583
 8341TIP3   OH246437   6.760   3.748   6.111 -1.0597 -0.2677  0.2693
 8341TIP3    H146438   6.821   3.676   6.126 -0.6639  0.2359  1.1096
 8341TIP3    H246439   6.686   3.729   6.170 -0.5972  0.4269  1.0839
 8342TIP3   OH246440   6.757   1.351   1.250  0.5560  0.1121 -0.8695
 8342TIP3    H146441   6.741   1.443   1.229  2.0360  0.4905 -0.4938
 8342TIP3    H246442   6.849   1.337   1.227  0.4507 -1.1862 -0.5930
 8343TIP3   OH246443   3.765   2.105  11.313 -0.0589  0.4372 -0.2943
 8343TIP3    H146444   3.773   2.127  11.406  0.2716 -0.0605 -0.1989
 8343TIP3    H246445   3.675   2.126  11.291 -0.3012  0.0533  0.2826
 8344TIP3   OH246446   3.974   5.196   1.503 -0.4014 -0.0610 -0.3985
 8344TIP3    H146447   3.927   5.115   1.522  0.0631 -0.3883 -0.6278
 8344TIP3    H246448   4.066   5.174   1.517 -0.3023  0.5363 -0.0812
 8345TIP3   OH246449   1.443   1.713   5.751  0.0871  0.0897  0.0394
 8345TIP3    H146450   1.421   1.686   5.840  0.5276 -0.5299 -0.0308
 8345TIP3    H246451   1.526   1.761   5.760 -1.1196  2.2303  0.2771
 8346TIP3   OH246452   1.822   6.366  16.401 -0.0362  0.6753 -0.1916
 8346TIP3    H146453   1.753   6.388  16.464  0.4560  1.2020  0.1733
 8346TIP3    H246454   1.780   6.305  16.340 -1.1251  1.7838 -0.5907
 8347TIP3   OH246455   3.457   0.198   3.653 -0.0353 -0.3448  1.0058
 8347TIP3    H146456   3.478   0.112   3.616 -1.1929  0.2795 -1.3812
 8347TIP3    H246457   3.509   0.260   3.601 -3.3014  0.7523 -1.3480
 8348TIP3   OH246458   3.765   6.432   2.312 -0.0010 -0.6141  0.0461
 8348TIP3    H146459   3.679   6.397   2.333 -0.1370  0.6527  1.8194
 8348TIP3    H246460   3.757   6.526   2.326  1.6798 -0.4750  0.2855
 8349TIP3   OH246461   6.124   1.883   5.910  0.0259 -0.1747  0.0792
 8349TIP3    H146462   6.079   1.957   5.950  0.8424  0.6553 -0.5064
 8349TIP3    H246463   6.116   1.813   5.974  0.1792  0.7439  1.1276
 8350TIP3   OH246464   2.648   2.205   3.032 -0.6056 -0.2238 -0.8964
 8350TIP3    H146465   2.604   2.284   3.002 -2.7919 -0.5007  1.2659
 8350TIP3    H246466   2.741   2.227   3.029 -0.9445  1.2731 -3.2974
 8351TIP3   OH246467   3.318   2.827  15.382  0.1455 -0.1801 -0.0353
 8351TIP3    H146468   3.404   2.804  15.347 -0.5383 -0.8440 -1.3525
 8351TIP3    H246469   3.256   2.801  15.314 -1.1110  0.2979  0.8738
 8352TIP3   OH246470   4.057   6.601  12.370  0.0786 -0.5960  0.6489
 8352TIP3    H146471   4.026   6.548  12.444 -0.4586  0.2433  1.0469
 8352TIP3    H246472   4.085   6.683  12.410  2.8264 -1.2583  0.3051
 8353TIP3   OH246473   2.826   4.941  11.764 -0.3548  0.3535  0.6953
 8353TIP3    H146474   2.769   4.930  11.688  1.8033 -0.5449 -0.9061
 8353TIP3    H246475   2.816   4.860  11.813 -0.0811 -0.0199  0.1414
 8354TIP3   OH246476   3.424   1.414   2.175 -0.4907  0.1843 -0.4084
 8354TIP3    H146477   3.462   1.383   2.257 -1.8548  0.1735  0.2436
 8354TIP3    H246478   3.347   1.465   2.201  0.6756  2.7108 -1.5263
 8355TIP3   OH246479   2.800   3.792   4.912 -0.2045 -0.4852 -1.1304
 8355TIP3    H146480   2.760   3.824   4.832 -1.8876 -1.5347 -0.7515
 8355TIP3    H246481   2.731   3.741   4.955  0.4036  0.6040  1.3213
 8356TIP3   OH246482   0.668   5.555   5.217 -0.0786  0.1607  0.3420
 8356TIP3    H146483   0.763   5.560   5.225  0.0603 -1.5526  0.0618
 8356TIP3    H246484   0.652   5.482   5.159 -1.6059 -0.8328  1.9016
 8357TIP3   OH246485   0.582   3.323  14.423 -0.5369 -0.0975 -0.4835
 8357TIP3    H146486   0.557   3.231  14.433  1.6086 -0.7235 -0.2832
 8357TIP3    H246487   0.514   3.372  14.469 -1.4170 -1.6179 -0.0957
 8358TIP3   OH246488   0.191   5.871   4.193  0.0421 -0.4456 -0.3753
 8358TIP3    H146489   0.116   5.892   4.250  0.3922  1.7031 -0.5969
 8358TIP3    H246490   0.167   5.907   4.108  1.1837 -0.0031 -0.5264
 8359TIP3   OH246491   1.987   3.740   5.595  0.8202 -0.3608  0.6166
 8359TIP3    H146492   1.915   3.689   5.633  1.6676 -2.5206 -0.5593
 8359TIP3    H246493   2.028   3.783   5.670  0.6547 -2.1840  1.8170
 8360TIP3   OH246494   3.709   1.344   1.396 -0.2081 -0.6439  0.3100
 8360TIP3    H146495   3.679   1.412   1.456 -0.0583 -0.4743  0.1951
 8360TIP3    H246496   3.629   1.296   1.372 -0.6077  0.5764 -0.9572
 8361TIP3   OH246497   1.675   1.525  11.413  0.1924 -0.2172 -0.4646
 8361TIP3    H146498   1.657   1.619  11.419  1.3931 -0.0369  0.6980
 8361TIP3    H246499   1.764   1.520  11.379 -0.1583 -0.9701 -1.3070
 8362TIP3   OH246500   4.621   0.020  15.331 -0.5068  0.0563  0.5297
 8362TIP3    H146501   4.643  -0.066  15.369  1.3992  1.1931  2.1795
 8362TIP3    H246502   4.700   0.046  15.284 -1.2368  0.7292 -0.3564
 8363TIP3   OH246503   5.081   2.633  13.796 -0.4824 -0.0763 -0.6064
 8363TIP3    H146504   5.025   2.681  13.736 -0.9982 -0.8389 -0.7488
 8363TIP3    H246505   5.114   2.559  13.745  0.7382  0.4017 -0.5536
 8364TIP3   OH246506   0.816   4.720   5.287 -0.2124 -0.0314  0.0122
 8364TIP3    H146507   0.907   4.725   5.318  0.7435 -1.9881 -2.1347
 8364TIP3    H246508   0.801   4.626   5.274 -1.8188  0.4098 -1.7047
 8365TIP3   OH246509   2.818   3.113   1.947  0.1462 -0.1047  0.2628
 8365TIP3    H146510   2.843   3.205   1.947  1.9928 -0.5824 -0.2364
 8365TIP3    H246511   2.899   3.065   1.963 -0.5673 -1.6997 -0.6526
 8366TIP3   OH246512   4.330   3.163  14.769 -0.7848 -0.1113 -0.4831
 8366TIP3    H146513   4.363   3.210  14.845 -0.5543 -0.2300 -0.5104
 8366TIP3    H246514   4.238   3.146  14.790 -0.4464 -1.1348  0.2653
 8367TIP3   OH246515   1.998   0.846   3.170 -0.6901 -0.0224  0.3648
 8367TIP3    H146516   1.969   0.933   3.142 -0.1529  0.4969  1.3563
 8367TIP3    H246517   1.982   0.790   3.094 -2.0886  0.7020  0.0779
 8368TIP3   OH246518   4.401   1.985  14.254  0.1338 -0.1997 -0.1854
 8368TIP3    H146519   4.451   1.942  14.324 -0.2223 -0.1687  0.0910
 8368TIP3    H246520   4.310   1.959  14.270 -0.2052  1.2818  0.4603
 8369TIP3   OH246521   5.045   3.706  16.771 -0.0029  0.8647  0.8705
 8369TIP3    H146522   4.983   3.648  16.814  0.5154  0.4595  1.0834
 8369TIP3    H246523   5.117   3.649  16.745 -0.7581  0.8850 -1.5049
 8370TIP3   OH246524   0.294   2.534  14.461  0.1903  0.3835 -0.5236
 8370TIP3    H146525   0.355   2.606  14.476  0.3949  0.6799 -2.4823
 8370TIP3    H246526   0.241   2.564  14.387  0.2142 -1.4190 -1.3110
 8371TIP3   OH246527   3.729   3.477   2.106  0.9511  0.1539  0.3184
 8371TIP3    H146528   3.732   3.509   2.016  2.0364  0.3187  0.4012
 8371TIP3    H246529   3.755   3.385   2.100  3.1992  0.6976  0.6698
 8372TIP3   OH246530   4.792   2.959   4.003 -0.0411 -0.0351  0.1212
 8372TIP3    H146531   4.779   2.986   4.094  1.7921 -1.3243  0.8274
 8372TIP3    H246532   4.804   2.864   4.008 -1.2911 -0.3389 -1.6681
 8373TIP3   OH246533   1.240   5.122  14.029 -0.4570  0.8805 -0.9928
 8373TIP3    H146534   1.224   5.196  14.088  2.1697  0.8588 -0.1617
 8373TIP3    H246535   1.157   5.111  13.983 -1.4562  3.2559  0.0574
 8374TIP3   OH246536   5.915   5.086  13.814  0.0579 -0.2217  0.2672
 8374TIP3    H146537   5.887   5.045  13.896  1.1038 -0.4391  0.5429
 8374TIP3    H246538   5.858   5.162  13.805 -0.1309 -0.2378  1.1628
 8375TIP3   OH246539   6.268   3.776  15.951 -0.1307  0.2530  0.7587
 8375TIP3    H146540   6.276   3.739  15.862 -0.7622  1.3251  0.2312
 8375TIP3    H246541   6.262   3.699  16.008 -1.4790 -0.4962 -0.3138
 8376TIP3   OH246542   3.721   4.550   5.708  0.1034 -0.4287  0.0862
 8376TIP3    H146543   3.756   4.511   5.788 -3.0523 -2.7475  0.5055
 8376TIP3    H246544   3.632   4.577   5.730 -0.0091  1.2402 -2.0114
 8377TIP3   OH246545   6.609   1.410   0.909 -0.3683 -0.2986 -0.4757
 8377TIP3    H146546   6.548   1.337   0.898 -2.3394  0.9620  1.3978
 8377TIP3    H246547   6.554   1.484   0.934  1.7696  1.3615 -0.4291
 8378TIP3   OH246548   5.521   4.893   5.485 -0.4841  0.4114 -0.1354
 8378TIP3    H146549   5.598   4.838   5.476 -0.1299  0.9613 -0.5033
 8378TIP3    H246550   5.481   4.893   5.398  0.5926  2.2873 -0.6842
 8379TIP3   OH246551   0.037   3.944  13.911  0.5624 -0.3158  0.5161
 8379TIP3    H146552   0.107   3.890  13.873 -0.0059 -0.7665  0.1047
 8379TIP3    H246553   0.020   3.905  13.996 -0.2226 -1.1418  0.0018
 8380TIP3   OH246554   5.937   4.351   2.459  0.9270  0.7201 -0.2040
 8380TIP3    H146555   5.886   4.353   2.540 -0.3630  0.1323 -0.9700
 8380TIP3    H246556   5.879   4.310   2.395  2.4381 -0.1504 -1.0833
 8381TIP3   OH246557   1.698   5.443   4.314  0.2856 -0.3705 -0.7501
 8381TIP3    H146558   1.696   5.538   4.322  0.4156 -0.5056  1.2365
 8381TIP3    H246559   1.731   5.428   4.225  0.3563  1.4265 -1.0664
 8382TIP3   OH246560   2.205   0.108  11.039 -0.1097 -0.1877 -0.0265
 8382TIP3    H146561   2.177   0.199  11.048  0.5998  0.0268  0.1331
 8382TIP3    H246562   2.300   0.111  11.053  0.2023 -0.7031 -1.7739
 8383TIP3   OH246563   4.609   0.105  14.779 -0.0272 -0.0286 -0.1511
 8383TIP3    H146564   4.604   0.146  14.692 -1.0569  0.1873 -0.0043
 8383TIP3    H246565   4.622   0.178  14.839  0.5334 -0.1630 -0.1103
 8384TIP3   OH246566   0.505   2.179  11.813 -0.4689 -0.8769 -0.0358
 8384TIP3    H146567   0.441   2.188  11.884  0.9294  0.2059  1.1421
 8384TIP3    H246568   0.581   2.138  11.855  1.0784  1.4416 -0.3934
 8385TIP3   OH246569   5.883   5.452  12.277  0.3134  0.3301  0.1914
 8385TIP3    H146570   5.876   5.536  12.322  3.2268 -0.3684  2.1555
 8385TIP3    H246571   5.970   5.420  12.297  0.8120 -1.4142 -3.7291
 8386TIP3   OH246572   3.818   4.277  15.753  0.1908 -0.3179 -0.6498
 8386TIP3    H146573   3.865   4.193  15.755 -3.3117 -2.4525 -0.3334
 8386TIP3    H246574   3.860   4.329  15.822  0.8469 -2.7984  0.9693
 8387TIP3   OH246575   5.915   5.768   3.332  0.1572 -0.0287 -0.2450
 8387TIP3    H146576   5.891   5.756   3.423  0.5800 -0.5590 -0.1987
 8387TIP3    H246577   5.972   5.845   3.331 -0.9325  0.7990 -0.2581
 8388TIP3   OH246578   0.593   0.732  15.502  0.1886 -0.4461 -0.5472
 8388TIP3    H146579   0.575   0.677  15.577  0.7523 -0.8720 -0.7182
 8388TIP3    H246580   0.664   0.688  15.456  0.2664  0.1269 -0.9937
 8389TIP3   OH246581   0.077   0.182  12.149  0.4978 -0.3376 -0.0592
 8389TIP3    H146582   0.123   0.112  12.103  2.7596  0.0840  1.3926
 8389TIP3    H246583   0.067   0.251  12.084  1.2100 -0.7637 -0.6326
 8390TIP3   OH246584   6.472   4.963   3.474 -0.4872 -0.2436 -0.5162
 8390TIP3    H146585   6.451   5.057   3.475 -0.2109 -0.1749  0.9618
 8390TIP3    H246586   6.387   4.919   3.481 -0.5830 -0.1049 -0.7772
 8391TIP3   OH246587   2.371   0.568   3.705 -0.4250 -0.4211  0.3887
 8391TIP3    H146588   2.411   0.508   3.642 -0.2602 -0.5030  0.5707
 8391TIP3    H246589   2.438   0.579   3.773 -0.1058  0.6595 -0.0794
 8392TIP3   OH246590   0.683   3.618  13.774 -0.1743 -0.3441 -1.1309
 8392TIP3    H146591   0.667   3.713  13.768 -0.5219 -0.3034  0.1735
 8392TIP3    H246592   0.778   3.610  13.778 -0.0754 -0.1545 -2.5102
 8393TIP3   OH246593   4.036   2.231   0.053 -0.2723  0.2612 -0.0375
 8393TIP3    H146594   4.106   2.209  -0.008 -0.4262 -1.5681  0.4070
 8393TIP3    H246595   3.958   2.237  -0.002 -0.4883 -1.7927 -0.0247
 8394TIP3   OH246596   0.320   6.473  14.823 -0.2536 -1.2416  1.2262
 8394TIP3    H146597   0.349   6.387  14.854  3.3488 -1.2495 -1.4616
 8394TIP3    H246598   0.366   6.536  14.878  0.1385 -1.1312  0.7795
 8395TIP3   OH246599   5.278   3.761   1.216  0.6726  0.3852  0.1739
 8395TIP3    H146600   5.285   3.818   1.139  1.7316 -0.5252 -0.4392
 8395TIP3    H246601   5.285   3.673   1.180  3.1691 -0.0254  1.4818
 8396TIP3   OH246602   1.356   1.141   4.191  0.1228  0.1223  0.3539
 8396TIP3    H146603   1.379   1.110   4.103 -0.7862  1.5352 -0.4281
 8396TIP3    H246604   1.425   1.204   4.212 -0.7050  1.2473 -0.2102
 8397TIP3   OH246605   2.537   1.821   4.229 -0.0655 -0.5178  0.3193
 8397TIP3    H146606   2.519   1.746   4.173  1.4974  0.5049 -1.7020
 8397TIP3    H246607   2.604   1.790   4.290  0.9243 -0.6705 -0.8117
 8398TIP3   OH246608   5.826   2.224   6.183  0.0751 -0.4995  0.2129
 8398TIP3    H146609   5.818   2.189   6.271 -0.1744 -1.7591 -0.2885
 8398TIP3    H246610   5.793   2.314   6.189 -1.8246 -1.2141  0.9963
 8399TIP3   OH246611   3.195   4.814  16.825 -0.3642  0.1011 -0.3001
 8399TIP3    H146612   3.103   4.807  16.851 -0.1412 -1.9021  0.0909
 8399TIP3    H246613   3.218   4.905  16.845 -1.9561  0.3552  0.5942
 8400TIP3   OH246614   4.251   0.764   2.572  0.0680  0.1074  0.1183
 8400TIP3    H146615   4.220   0.736   2.486 -0.3314  1.4526 -0.2035
 8400TIP3    H246616   4.346   0.751   2.568  0.0987  0.4730 -0.6704
 8401TIP3   OH246617   5.233   5.694   2.443  0.2974  0.0007  0.0247
 8401TIP3    H146618   5.190   5.768   2.486 -1.8203 -1.4085  0.4821
 8401TIP3    H246619   5.169   5.663   2.379  1.7849 -0.4978 -1.3163
 8402TIP3   OH246620   3.624   3.579   0.727 -0.3676 -0.0210 -0.1188
 8402TIP3    H146621   3.707   3.534   0.745 -0.8959 -0.3618  1.8156
 8402TIP3    H246622   3.643   3.672   0.740  0.1202  0.1037 -1.5550
 8403TIP3   OH246623   4.086   3.191  14.953 -0.7481 -0.1269 -0.2915
 8403TIP3    H146624   4.019   3.140  14.997 -0.7267  0.1157  0.0313
 8403TIP3    H246625   4.169   3.158  14.989 -0.6303 -1.1305 -1.4385
 8404TIP3   OH246626   0.724   2.478   0.629  0.1763 -0.0831  0.1193
 8404TIP3    H146627   0.681   2.417   0.689  0.2760  0.6603  0.9625
 8404TIP3    H246628   0.659   2.546   0.613  0.0009 -0.4905 -0.9663
 8405TIP3   OH246629   6.540   2.915   0.004 -0.2395  0.0543 -0.2331
 8405TIP3    H146630   6.571   2.955   0.085 -0.3481  0.6442 -0.4739
 8405TIP3    H246631   6.511   2.828   0.029 -2.3015  0.9717  0.7828
 8406TIP3   OH246632   1.331   5.698  16.087  0.5395 -0.1703  0.0608
 8406TIP3    H146633   1.314   5.712  15.994  0.3665 -2.8808 -0.3981
 8406TIP3    H246634   1.259   5.642  16.116 -0.4859  2.1383  2.3755
 8407TIP3   OH246635   4.477   3.947   3.372 -0.0747 -0.5118  0.5624
 8407TIP3    H146636   4.408   3.958   3.306 -0.8055  1.6143  1.6040
 8407TIP3    H246637   4.431   3.914   3.449  0.0724  0.7828  1.2213
 8408TIP3   OH246638   3.847   2.084   1.434 -0.2867  0.4465 -0.4843
 8408TIP3    H146639   3.817   2.153   1.376 -0.9054  0.4239 -0.2008
 8408TIP3    H246640   3.799   2.098   1.515  1.0751  0.9063  0.2781
 8409TIP3   OH246641   4.333   5.045   0.103  0.1770  0.0934 -0.5051
 8409TIP3    H146642   4.296   5.081   0.022 -1.2312 -1.8875 -0.8188
 8409TIP3    H246643   4.257   5.030   0.159  0.9576 -0.2601  0.4843
 8410TIP3   OH246644   0.856   0.657  17.106  0.0341  0.6881 -0.2332
 8410TIP3    H146645   0.767   0.656  17.141  0.0071 -1.6993 -0.1517
 8410TIP3    H246646   0.912   0.644  17.184  0.3405  0.6346 -0.4594
 8411TIP3   OH246647   4.693   1.002   2.490 -0.3075 -0.1728 -0.0038
 8411TIP3    H146648   4.772   0.948   2.490  2.3762  3.0395  4.6299
 8411TIP3    H246649   4.625   0.945   2.527 -0.1156 -2.6672 -3.0704
 8412TIP3   OH246650   4.465   4.104   2.105  0.4056  0.5099 -0.0730
 8412TIP3    H146651   4.386   4.050   2.113  0.6741  0.3023  1.5495
 8412TIP3    H246652   4.537   4.045   2.126  1.0712  0.6065 -1.9080
 8413TIP3   OH246653   3.366   2.663  12.919 -0.9203 -0.1934 -0.3139
 8413TIP3    H146654   3.314   2.660  12.999  0.2080  0.3411  0.4684
 8413TIP3    H246655   3.312   2.711  12.856 -0.8428  1.6188  0.9216
 8414TIP3   OH246656   1.706   0.971   0.631  0.2463  0.2414  0.1423
 8414TIP3    H146657   1.687   1.060   0.660 -1.1503  0.0338 -0.0681
 8414TIP3    H246658   1.800   0.961   0.645  0.7320  2.2759 -1.2712
 8415TIP3   OH246659   5.311   3.589   4.645  0.5947 -0.1011 -0.0807
 8415TIP3    H146660   5.348   3.563   4.729 -1.3676 -1.4085  0.4592
 8415TIP3    H246661   5.321   3.511   4.590 -1.4049 -0.6024  0.1630
 8416TIP3   OH246662   5.220   6.417  14.085  0.0416  0.1776  0.8678
 8416TIP3    H146663   5.168   6.441  14.008 -0.7632 -0.9431  1.0378
 8416TIP3    H246664   5.291   6.362  14.050  1.4483  2.0979  0.5740
 8417TIP3   OH246665   5.034   4.179   0.589 -0.0738 -0.1457 -0.1838
 8417TIP3    H146666   5.074   4.247   0.535  0.7768  0.3393  1.0155
 8417TIP3    H246667   4.952   4.158   0.544 -0.2295  1.4831 -0.7250
 8418TIP3   OH246668   3.065   0.236   1.298  0.1572 -0.5100  0.5376
 8418TIP3    H146669   3.019   0.268   1.221  0.3627 -1.4256  0.0175
 8418TIP3    H246670   3.137   0.299   1.310 -0.4824  0.2288  0.6306
 8419TIP3   OH246671   2.189   4.690   2.744 -0.1118  0.2601  0.2719
 8419TIP3    H146672   2.211   4.623   2.809  0.5619  0.5700  0.3774
 8419TIP3    H246673   2.123   4.745   2.787 -2.5612 -1.7438 -0.7043
 8420TIP3   OH246674   5.386   3.329   4.491  0.4641 -0.3347 -0.2201
 8420TIP3    H146675   5.406   3.276   4.414  0.3117  1.0439 -1.2416
 8420TIP3    H246676   5.471   3.357   4.524  0.5093 -0.4005 -0.2795
 8421TIP3   OH246677   3.730   6.695   4.721 -0.0887  0.3256 -0.0498
 8421TIP3    H146678   3.801   6.714   4.782 -0.0956  0.1970 -0.0026
 8421TIP3    H246679   3.760   6.619   4.672 -0.8628 -0.7533  1.0664
 8422TIP3   OH246680   1.467   0.914   0.025  0.9029 -0.4485  0.2444
 8422TIP3    H146681   1.521   0.880   0.096 -0.7366 -1.4452  1.0813
 8422TIP3    H246682   1.408   0.842   0.003  0.4191  0.3328 -1.1517
 8423TIP3   OH246683   4.112   0.383   2.656  0.3019  0.4532  0.0435
 8423TIP3    H146684   4.095   0.475   2.676  0.4085  0.4924 -0.0407
 8423TIP3    H246685   4.168   0.386   2.578 -0.5919  0.2922 -0.6137
 8424TIP3   OH246686   4.699   0.254  10.544 -0.7200  0.0655 -0.4837
 8424TIP3    H146687   4.748   0.186  10.590  1.1583  1.1073 -0.8514
 8424TIP3    H246688   4.762   0.324  10.530 -2.3928  1.5914 -0.7976
 8425TIP3   OH246689   4.023   3.091  13.645 -0.4073 -0.1403  0.3215
 8425TIP3    H146690   3.957   3.023  13.631 -0.5157  0.1170 -0.4665
 8425TIP3    H246691   4.088   3.076  13.575 -0.3833  0.4976  0.2059
 8426TIP3   OH246692   3.924   5.495   5.368  0.3185  0.7316  0.4054
 8426TIP3    H146693   3.974   5.528   5.293  0.6317 -0.0257  0.2808
 8426TIP3    H246694   3.990   5.463   5.429  0.2078  3.0456  1.8818
 8427TIP3   OH246695   1.256   1.447  12.340 -0.2516  0.8191  0.2771
 8427TIP3    H146696   1.165   1.422  12.323  0.7167 -2.4520 -0.7675
 8427TIP3    H246697   1.286   1.485  12.257  0.0041 -0.3695 -0.1820
 8428TIP3   OH246698   2.121   3.674   3.853 -0.3593 -0.3263  0.0421
 8428TIP3    H146699   2.093   3.614   3.783 -0.1654  1.4770 -1.6850
 8428TIP3    H246700   2.062   3.657   3.925  0.0979 -3.0357 -0.1119
 8429TIP3   OH246701   0.035   5.136  13.674 -0.2879  0.1802 -0.0456
 8429TIP3    H146702   0.119   5.114  13.634  0.4827  1.4259  0.7986
 8429TIP3    H246703  -0.031   5.109  13.610  0.7413 -0.9792 -0.6446
 8430TIP3   OH246704   2.051   0.969  11.982 -0.0513 -0.1376 -0.0895
 8430TIP3    H146705   1.982   1.026  12.017 -0.9944  0.0429 -2.0481
 8430TIP3    H246706   2.081   1.015  11.903  0.2092 -1.6258 -0.8898
 8431TIP3   OH246707   6.388   6.137   1.617  0.1033 -0.1347 -0.5540
 8431TIP3    H146708   6.407   6.227   1.590 -0.0763  0.0325 -0.1428
 8431TIP3    H246709   6.314   6.111   1.563  1.0369 -0.5443 -1.6760
 8432TIP3   OH246710   0.685   4.283   3.605  0.5512  0.3750  0.1370
 8432TIP3    H146711   0.751   4.352   3.600  0.1867  0.7346  0.2743
 8432TIP3    H246712   0.615   4.311   3.546 -0.0736  0.6424  0.9892
 8433TIP3   OH246713   0.718   6.422   4.049  0.4893 -0.3500  0.1755
 8433TIP3    H146714   0.784   6.361   4.083  1.2956 -0.4826 -1.5263
 8433TIP3    H246715   0.694   6.476   4.124  0.8813 -1.7648  1.3631
 8434TIP3   OH246716   2.618   2.829  17.160 -0.1165  0.3046  0.4320
 8434TIP3    H146717   2.572   2.883  17.225 -0.3787 -1.1438  1.4851
 8434TIP3    H246718   2.585   2.741  17.174 -0.3485 -0.0206 -1.8560
 8435TIP3   OH246719   3.326   3.351  11.017 -0.2084  0.1958 -0.0742
 8435TIP3    H146720   3.246   3.300  11.000 -0.2315  0.5067 -0.9223
 8435TIP3    H246721   3.389   3.317  10.954 -0.0493  0.8163 -0.2547
 8436TIP3   OH246722   3.042   4.254   1.114  0.4288  0.1069 -0.3707
 8436TIP3    H146723   3.087   4.338   1.107 -0.5153  0.9715  2.5521
 8436TIP3    H246724   2.955   4.270   1.077  0.6372  0.0662 -0.8807
 8437TIP3   OH246725   2.332   1.341   3.911 -0.5230 -0.3916  0.6933
 8437TIP3    H146726   2.307   1.367   3.999 -0.4808 -0.0383  0.6005
 8437TIP3    H246727   2.257   1.293   3.877 -1.6095  1.7518 -0.0640
 8438TIP3   OH246728   2.998   3.741  15.484  0.2938 -0.1245  0.1025
 8438TIP3    H146729   2.947   3.666  15.515  0.6698 -1.2263 -1.7842
 8438TIP3    H246730   2.958   3.817  15.527 -0.7459 -1.2831  1.2806
 8439TIP3   OH246731   3.258   0.388  16.715 -0.1236 -0.8576 -0.0607
 8439TIP3    H146732   3.248   0.328  16.641  1.1296  0.0030 -0.9650
 8439TIP3    H246733   3.340   0.435  16.698 -0.1386 -0.1656  1.5427
 8440TIP3   OH246734   2.600   0.320  11.631 -0.9414  0.1797  0.4828
 8440TIP3    H146735   2.580   0.337  11.539  1.5361  1.5816  0.1202
 8440TIP3    H246736   2.605   0.225  11.638  4.4995 -0.0989 -2.3759
 8441TIP3   OH246737   3.076   6.481   4.344 -0.0523  0.1625  0.6864
 8441TIP3    H146738   3.125   6.428   4.407  0.0265  0.2509  0.6986
 8441TIP3    H246739   3.001   6.426   4.321 -0.1496  0.1828  0.9511
 8442TIP3   OH246740   2.155   0.201  16.467  0.1295  0.5695 -0.6564
 8442TIP3    H146741   2.240   0.237  16.490 -0.0287  1.5170 -1.4835
 8442TIP3    H246742   2.156   0.197  16.371 -0.4512 -0.1613 -0.6367
 8443TIP3   OH246743   1.639   2.179  14.790  0.3920 -0.6085  0.1736
 8443TIP3    H146744   1.547   2.195  14.809  0.7531 -0.2327  1.7372
 8443TIP3    H246745   1.668   2.118  14.858  1.9243  1.3877  1.4385
 8444TIP3   OH246746   4.701   0.384   6.196 -0.0173 -0.4825  0.2127
 8444TIP3    H146747   4.655   0.382   6.280  0.8626 -0.9972  0.6968
 8444TIP3    H246748   4.674   0.466   6.156 -1.0873 -0.6188  0.6322
 8445TIP3   OH246749   2.739   5.431  12.415  0.8540  0.0986 -0.4049
 8445TIP3    H146750   2.671   5.446  12.481 -0.6109 -3.1805 -0.9973
 8445TIP3    H246751   2.821   5.430  12.464  0.0965  0.4867  0.9151
 8446TIP3   OH246752   2.273   4.293   0.294 -0.5838  0.3350 -0.2698
 8446TIP3    H146753   2.328   4.240   0.351  0.3858 -0.8877 -2.2491
 8446TIP3    H246754   2.240   4.232   0.228 -1.5411  1.7109 -1.1300
 8447TIP3   OH246755   0.536   0.019  16.570 -0.1512 -0.0664 -0.0791
 8447TIP3    H146756   0.499  -0.031  16.643  0.4710  0.1233  0.3818
 8447TIP3    H246757   0.622  -0.022  16.555 -0.7129 -0.8198 -1.4535
 8448TIP3   OH246758   2.440   4.439   3.753 -0.1963  0.1331 -0.0070
 8448TIP3    H146759   2.533   4.415   3.748 -0.3034 -0.0082 -2.1533
 8448TIP3    H246760   2.404   4.381   3.820  0.5878 -2.3114 -1.5672
 8449TIP3   OH246761   5.315   2.545   2.906  0.5127  0.2790  0.1106
 8449TIP3    H146762   5.325   2.620   2.848 -1.0182 -0.2060 -0.8411
 8449TIP3    H246763   5.223   2.521   2.899  0.1461  0.4417  3.0841
 8450TIP3   OH246764   0.777   2.286   5.297  0.4423  0.0997 -0.3085
 8450TIP3    H146765   0.700   2.233   5.316  0.0402  0.1082 -1.8253
 8450TIP3    H246766   0.844   2.252   5.357 -0.8314  0.4219  1.3723
 8451TIP3   OH246767   5.539   5.663   0.707 -0.4401  0.2530  0.0554
 8451TIP3    H146768   5.463   5.709   0.743 -1.4067 -1.2259 -0.0313
 8451TIP3    H246769   5.609   5.683   0.769 -0.6412  2.3165 -0.3043
 8452TIP3   OH246770   4.306   4.212   1.402 -0.4173 -0.4957 -0.5752
 8452TIP3    H146771   4.297   4.126   1.441 -2.4070  0.9030  2.3700
 8452TIP3    H246772   4.389   4.245   1.435 -0.3960 -0.6641 -0.4619
 8453TIP3   OH246773   2.343   5.375   1.404 -0.3967 -0.0417  0.2460
 8453TIP3    H146774   2.379   5.407   1.486  1.4560 -1.2895 -0.0155
 8453TIP3    H246775   2.397   5.298   1.382 -1.7444 -0.5842 -1.4094
 8454TIP3   OH246776   3.858   1.803   0.527  0.3752 -0.1103  0.2992
 8454TIP3    H146777   3.870   1.897   0.515  0.3225  0.1619  2.1387
 8454TIP3    H246778   3.893   1.784   0.614  1.1916 -1.9641 -0.3668
 8455TIP3   OH246779   1.596   0.872  10.905  0.2047 -0.6729  0.1798
 8455TIP3    H146780   1.682   0.863  10.947 -0.0067 -0.3323  0.6931
 8455TIP3    H246781   1.617   0.895  10.814  0.6859 -2.3470 -0.1806
 8456TIP3   OH246782   2.267   3.032   3.140  0.6122 -0.8684 -0.0375
 8456TIP3    H146783   2.310   3.111   3.173  1.0385 -0.2512 -1.9640
 8456TIP3    H246784   2.316   2.960   3.180 -1.0316 -0.2796  3.3802
 8457TIP3   OH246785   3.141   4.618  11.274  0.6184 -0.5427 -0.2520
 8457TIP3    H146786   3.204   4.688  11.258 -0.7257  0.7721 -0.0052
 8457TIP3    H246787   3.115   4.588  11.187  0.3144  0.0896 -0.3818
 8458TIP3   OH246788   2.922   1.376  12.610  0.0961  0.6858 -0.6003
 8458TIP3    H146789   2.838   1.406  12.643 -0.0002 -0.8125  0.6123
 8458TIP3    H246790   2.899   1.318  12.537  0.2109  2.1426 -1.8352
 8459TIP3   OH246791   4.942   6.296  13.360  0.2706  0.0962  0.5007
 8459TIP3    H146792   4.934   6.390  13.346 -1.0111 -0.2254 -1.3789
 8459TIP3    H246793   4.980   6.263  13.278  0.6568 -1.0259  1.1093
 8460TIP3   OH246794   4.844   3.997  14.288 -0.1958 -0.0315 -0.0192
 8460TIP3    H146795   4.864   4.090  14.300 -2.0389  0.1813  1.9752
 8460TIP3    H246796   4.929   3.956  14.271  0.7678  1.8807 -0.0826
 8461TIP3   OH246797   4.183   6.713  14.210 -0.0159  0.1882 -0.4682
 8461TIP3    H146798   4.099   6.740  14.173 -1.0443 -1.4047  0.5763
 8461TIP3    H246799   4.247   6.734  14.142 -0.8422  3.6306 -0.4117
 8462TIP3   OH246800   3.165   6.713  11.111 -0.6734  0.3421 -0.1279
 8462TIP3    H146801   3.230   6.648  11.138 -1.5416 -1.5703 -2.2437
 8462TIP3    H246802   3.213   6.774  11.056 -0.0053  1.0786  1.2320
 8463TIP3   OH246803   3.195   4.910   1.551  0.2481  0.6816  0.0404
 8463TIP3    H146804   3.271   4.853   1.565 -0.2663 -0.6110 -1.9859
 8463TIP3    H246805   3.147   4.905   1.634  1.3122 -0.1318  0.6442
 8464TIP3   OH246806   4.186   2.530   5.718 -0.2753  0.3685 -0.1585
 8464TIP3    H146807   4.242   2.558   5.791 -0.9869 -0.0743  0.5687
 8464TIP3    H246808   4.099   2.563   5.740 -0.4658  0.3787 -0.9000
 8465TIP3   OH246809   1.468   6.307  12.884 -0.8778  0.4482 -0.1796
 8465TIP3    H146810   1.498   6.364  12.814 -0.6526 -0.1074 -0.5363
 8465TIP3    H246811   1.397   6.356  12.926 -0.4421  1.1451 -0.2430
 8466TIP3   OH246812   1.844   4.135   0.924  0.4537 -0.0375  0.0794
 8466TIP3    H146813   1.903   4.115   0.851 -0.9568 -2.0887 -0.6053
 8466TIP3    H246814   1.894   4.110   1.002  1.0724 -0.2340 -0.3660
 8467TIP3   OH246815   0.861   4.987   3.836  0.2150  0.2541  0.2982
 8467TIP3    H146816   0.872   5.070   3.790 -1.9051  1.1615  1.2948
 8467TIP3    H246817   0.930   4.988   3.903  0.6147  0.9037 -0.1073
 8468TIP3   OH246818   6.052   5.254   6.458  0.1994 -0.4959 -0.2261
 8468TIP3    H146819   6.137   5.220   6.486  0.4102  1.6552  2.1757
 8468TIP3    H246820   6.072   5.340   6.422 -0.7389 -1.0704 -2.2550
 8469TIP3   OH246821   3.638   1.339  12.087  0.0871 -0.5317 -0.1942
 8469TIP3    H146822   3.593   1.378  12.012 -1.9830  2.0607  2.1850
 8469TIP3    H246823   3.721   1.386  12.093 -1.6284  2.5836  1.5854
 8470TIP3   OH246824   1.889   1.627  12.470 -0.4701  0.1951 -0.4079
 8470TIP3    H146825   1.969   1.674  12.449  0.0653 -0.7235 -0.4943
 8470TIP3    H246826   1.918   1.538  12.491 -1.5977 -0.6012 -2.0129
 8471TIP3   OH246827   4.294   2.677  12.929  0.1637  0.4659 -0.6915
 8471TIP3    H146828   4.308   2.768  12.905 -2.2277  1.1593  0.3087
 8471TIP3    H246829   4.356   2.661  13.001 -0.7058  1.9100  0.4238
 8472TIP3   OH246830   2.653   3.729   3.121  0.2075  0.6894  0.2715
 8472TIP3    H146831   2.743   3.709   3.094 -0.3425 -0.3113 -0.9459
 8472TIP3    H246832   2.601   3.658   3.084 -1.1871  1.6562  0.2960
 8473TIP3   OH246833   4.483   6.518  11.105 -0.4237  0.4521 -0.2845
 8473TIP3    H146834   4.431   6.448  11.144 -0.1908 -0.4733 -1.5941
 8473TIP3    H246835   4.422   6.564  11.047 -0.4944  1.1587  0.3342
 8474TIP3   OH246836   4.424   6.548  10.468  0.1229  0.1957 -0.4539
 8474TIP3    H146837   4.512   6.562  10.435  1.2260  1.2145  2.6256
 8474TIP3    H246838   4.430   6.467  10.519 -0.3138  1.0110  0.9406
 8475TIP3   OH246839   4.674   2.640  12.149 -0.5401  0.4063 -0.5527
 8475TIP3    H146840   4.758   2.627  12.105  1.0080  1.7637  1.7853
 8475TIP3    H246841   4.670   2.571  12.214 -1.1431  0.5025 -0.4791
 8476TIP3   OH246842   2.142   5.501  13.949 -0.4165 -0.4891 -0.5626
 8476TIP3    H146843   2.218   5.511  13.891 -0.3042  0.5583 -0.2540
 8476TIP3    H246844   2.164   5.554  14.026 -0.7489 -1.5091  0.2632
 8477TIP3   OH246845   0.295   3.054  12.318  0.3888 -0.4960 -0.5657
 8477TIP3    H146846   0.352   3.038  12.394 -0.3097  1.3938  0.4425
 8477TIP3    H246847   0.212   3.012  12.342  0.0569  0.3972 -0.0733
 8478TIP3   OH246848   3.248   0.565  12.340 -0.5339 -0.4568 -0.0071
 8478TIP3    H146849   3.171   0.544  12.288  0.6384 -0.8892 -1.6372
 8478TIP3    H246850   3.294   0.481  12.350  0.2299 -0.0348  0.0933
 8479TIP3   OH246851   4.245   2.823   4.648  0.4797 -0.2726  0.1675
 8479TIP3    H146852   4.314   2.884   4.675 -0.8751  2.1776 -1.4657
 8479TIP3    H246853   4.255   2.816   4.553 -1.1874 -0.2278 -0.0454
 8480TIP3   OH246854   3.648   0.708   6.198  0.1199 -0.6517 -0.2253
 8480TIP3    H146855   3.587   0.634   6.205 -0.4990 -0.0799  0.6762
 8480TIP3    H246856   3.629   0.762   6.275  0.2601  0.6745 -1.0926
 8481TIP3   OH246857   2.681   1.477   0.797 -0.3047  0.6601  0.3531
 8481TIP3    H146858   2.618   1.547   0.815  0.0771  0.6695  1.8357
 8481TIP3    H246859   2.665   1.413   0.866 -0.0164 -0.2863 -0.4363
 8482TIP3   OH246860   4.570   1.110   5.893  0.1669 -0.2066  0.0146
 8482TIP3    H146861   4.493   1.085   5.842  0.6130 -1.1790 -0.2080
 8482TIP3    H246862   4.552   1.199   5.922 -1.8588 -1.0153  1.5123
 8483TIP3   OH246863   0.077   1.970   0.752 -0.2850  0.1717 -0.0171
 8483TIP3    H146864   0.131   1.958   0.673 -1.5118 -1.0123 -0.7144
 8483TIP3    H246865   0.031   2.053   0.737  0.1086  0.3673 -0.1589
 8484TIP3   OH246866   0.214   2.883  15.423 -0.3972  0.1867 -0.1787
 8484TIP3    H146867   0.268   2.916  15.495  0.3959  0.3297 -0.8221
 8484TIP3    H246868   0.125   2.882  15.458  0.1125 -0.8803  1.2185
 8485TIP3   OH246869   0.623   0.330  11.628  0.4275 -0.5127 -0.3879
 8485TIP3    H146870   0.632   0.266  11.698 -0.1374 -2.7289 -2.2113
 8485TIP3    H246871   0.689   0.304  11.563  0.5324  1.0879 -0.9662
 8486TIP3   OH246872   0.287   5.071   1.524  0.8283  0.5994 -0.0674
 8486TIP3    H146873   0.332   5.045   1.604 -0.4885 -0.4672  0.3734
 8486TIP3    H246874   0.244   5.153   1.547  0.7168  0.4623  0.2233
 8487TIP3   OH246875   4.058   1.758   4.243 -0.2007 -0.3722  0.3939
 8487TIP3    H146876   4.042   1.668   4.270 -1.1680  0.4164  2.7345
 8487TIP3    H246877   3.996   1.774   4.172 -0.2086 -1.4521  0.1480
 8488TIP3   OH246878   3.099   1.746  15.863 -0.4169  0.1228 -0.6485
 8488TIP3    H146879   3.013   1.705  15.855  0.6679 -1.9824 -3.0346
 8488TIP3    H246880   3.157   1.676  15.892  1.0740  0.5191 -2.4648
 8489TIP3   OH246881   0.294   0.252  14.570 -0.2245  0.1764 -0.3861
 8489TIP3    H146882   0.387   0.252  14.547 -0.1470 -0.3824 -0.1064
 8489TIP3    H246883   0.276   0.161  14.594 -0.0380  0.8517  2.7693
 8490TIP3   OH246884   3.196   1.936   5.520  0.4888  0.2557  0.1111
 8490TIP3    H146885   3.148   1.898   5.594 -0.6809 -1.6968 -1.5211
 8490TIP3    H246886   3.288   1.933   5.547 -0.0277  1.7407  2.3322
 8491TIP3   OH246887   0.451   2.401   0.405  0.0200  0.4833 -0.1096
 8491TIP3    H146888   0.448   2.454   0.484  1.6462 -0.4132  0.6031
 8491TIP3    H246889   0.373   2.427   0.355  0.5547  3.2572  0.3373
 8492TIP3   OH246890   1.551   0.182  12.163  0.2958 -0.1825  0.1631
 8492TIP3    H146891   1.556   0.227  12.079 -1.8027 -0.0569  0.0572
 8492TIP3    H246892   1.639   0.194  12.202  1.0087  0.5450 -1.5755
 8493TIP3   OH246893   0.874   4.350   2.905  0.3560 -0.2382 -0.3335
 8493TIP3    H146894   0.786   4.325   2.935 -0.5115  1.5493 -1.2096
 8493TIP3    H246895   0.861   4.434   2.861  2.4636 -0.1255 -0.8441
 8494TIP3   OH246896   3.592   2.437  16.885  0.1618 -0.1199  0.4282
 8494TIP3    H146897   3.674   2.388  16.895  0.6204  0.4219 -0.5963
 8494TIP3    H246898   3.616   2.528  16.903 -0.5056 -0.1237  1.4481
 8495TIP3   OH246899   6.764   2.514   6.050  0.1633 -0.5698  0.4918
 8495TIP3    H146900   6.815   2.553   5.980 -1.6514  2.9195  0.8822
 8495TIP3    H246901   6.805   2.546   6.131 -2.0679  1.8623  0.8103
 8496TIP3   OH246902   3.655   6.323  15.736  0.5916  0.1827 -0.3526
 8496TIP3    H146903   3.616   6.319  15.648  0.4743  1.4321 -0.3755
 8496TIP3    H246904   3.580   6.331  15.795  0.6984  0.0905 -0.2048
 8497TIP3   OH246905   4.371   5.757  10.149 -0.1035 -0.4574  0.2159
 8497TIP3    H146906   4.398   5.838  10.192  0.2459 -0.1158 -0.6218
 8497TIP3    H246907   4.453   5.709  10.135 -0.1413 -0.3291 -0.5107
 8498TIP3   OH246908   3.187   0.907   5.688  0.4038  0.5486 -0.1937
 8498TIP3    H146909   3.191   1.000   5.666 -0.6868  0.0135 -3.0615
 8498TIP3    H246910   3.095   0.890   5.705  0.7436  0.1574  1.4233
 8499TIP3   OH246911   6.726   4.310   2.901  0.2417 -0.0929  0.1163
 8499TIP3    H146912   6.753   4.381   2.843 -0.8509  0.5440  0.3515
 8499TIP3    H246913   6.730   4.348   2.989 -4.0975  1.0995  0.0301
 8500TIP3   OH246914   1.755   6.350   2.077 -1.1026 -0.0234 -0.5005
 8500TIP3    H146915   1.681   6.410   2.065 -0.6267  0.7749  0.4601
 8500TIP3    H246916   1.783   6.364   2.167 -0.1516 -0.7573 -0.6705
 8501TIP3   OH246917   2.456   0.834   2.317 -0.3845  0.5200 -0.3089
 8501TIP3    H146918   2.439   0.851   2.410 -0.2397 -1.3038  0.0779
 8501TIP3    H246919   2.412   0.751   2.299 -3.2014  2.2856 -2.7258
 8502TIP3   OH246920   3.961   3.758   3.270 -0.0066 -0.3023 -0.3948
 8502TIP3    H146921   4.032   3.755   3.334 -0.2543  1.1514 -0.0264
 8502TIP3    H246922   3.887   3.796   3.317 -0.6624 -0.6356 -1.1246
 8503TIP3   OH246923   3.693   2.368   4.351  1.0473  0.1568  0.1586
 8503TIP3    H146924   3.707   2.453   4.308  1.5850 -0.3188 -0.6209
 8503TIP3    H246925   3.685   2.390   4.444  2.0036  0.9771  0.0636
 8504TIP3   OH246926   6.011   6.072  16.665 -0.4311  0.2168  0.0541
 8504TIP3    H146927   6.082   6.011  16.646 -0.3339  0.6224 -0.9482
 8504TIP3    H246928   6.050   6.159  16.654 -0.7262  0.4636  0.8670
 8505TIP3   OH246929   2.560   6.280   0.390  0.3220  0.4297 -0.0714
 8505TIP3    H146930   2.647   6.297   0.426  0.0264 -0.2030  0.9722
 8505TIP3    H246931   2.507   6.255   0.465 -0.8166  0.9701 -0.6613
 8506TIP3   OH246932   4.465   1.621  14.538  0.0805  0.1297 -0.3504
 8506TIP3    H146933   4.534   1.571  14.494 -1.3145 -1.1086 -1.2022
 8506TIP3    H246934   4.505   1.706  14.555  1.2060  0.1333 -2.6467
 8507TIP3   OH246935   2.776   4.534   3.644  0.5842 -0.2674  0.3703
 8507TIP3    H146936   2.825   4.493   3.716  0.4431 -0.2499  0.4762
 8507TIP3    H246937   2.844   4.564   3.583  0.6995 -0.3972  0.4337
 8508TIP3   OH246938   5.737   4.162  16.832 -0.1112 -0.1763  0.3839
 8508TIP3    H146939   5.741   4.067  16.833  0.7641 -0.1817 -0.9392
 8508TIP3    H246940   5.828   4.190  16.835 -0.4026  0.6891  2.4931
 8509TIP3   OH246941   3.676   4.071  16.779 -0.0403  0.3053  0.1075
 8509TIP3    H146942   3.608   4.095  16.716 -0.5586  0.8653  0.8664
 8509TIP3    H246943   3.647   4.109  16.861  1.4745  1.0447  0.3400
 8510TIP3   OH246944   1.381   3.918   2.406 -0.4117  0.1439  0.3822
 8510TIP3    H146945   1.413   3.834   2.374  0.9310  0.5287  0.6522
 8510TIP3    H246946   1.440   3.940   2.479 -2.0162  0.3355  1.6819
 8511TIP3   OH246947   3.221   5.832  15.259 -0.1412  0.0290  0.4056
 8511TIP3    H146948   3.166   5.905  15.230  0.0865  0.3239  0.7063
 8511TIP3    H246949   3.167   5.786  15.323  0.6504  1.4744  2.2181
 8512TIP3   OH246950   5.592   4.010   6.280  0.0375  0.6014 -0.2171
 8512TIP3    H146951   5.626   3.959   6.206  0.1467  1.3472 -0.6983
 8512TIP3    H246952   5.505   3.975   6.295 -0.2148  0.8326 -1.0970
 8513TIP3   OH246953   1.863   5.200  10.799 -0.1201  0.1468  0.0095
 8513TIP3    H146954   1.898   5.121  10.841  0.1087  0.3959  0.2927
 8513TIP3    H246955   1.938   5.237  10.752 -0.3506 -0.0757 -0.5502
 8514TIP3   OH246956   3.062   5.003   5.456 -0.6196 -0.3984  0.0481
 8514TIP3    H146957   2.967   4.993   5.461 -0.7090 -2.0656 -2.7116
 8514TIP3    H246958   3.076   5.078   5.398 -0.3482 -1.1152 -0.8572
 8515TIP3   OH246959   2.114   1.580  10.856 -0.3734 -0.7034  0.2268
 8515TIP3    H146960   2.088   1.645  10.920 -2.3236 -1.8766  0.7130
 8515TIP3    H246961   2.189   1.619  10.810 -1.5798  1.9413  0.3453
 8516TIP3   OH246962   3.750   4.854   4.177 -0.1805  0.7402  0.3588
 8516TIP3    H146963   3.715   4.888   4.095  0.2738 -1.7721 -0.9769
 8516TIP3    H246964   3.675   4.814   4.221 -0.1705  0.9508  0.5734
 8517TIP3   OH246965   3.214   4.249  16.021  0.0856 -0.7414  0.5200
 8517TIP3    H146966   3.131   4.238  16.068 -0.3435 -0.3961 -0.1462
 8517TIP3    H246967   3.191   4.243  15.929  0.3854  1.9347  0.2126
 8518TIP3   OH246968   0.509   2.539  10.928  0.5360 -0.1170 -0.3228
 8518TIP3    H146969   0.432   2.594  10.943 -0.6848 -2.1603  1.6004
 8518TIP3    H246970   0.542   2.566  10.843 -1.4019  1.8795 -0.5322
 8519TIP3   OH246971   1.332   6.776  13.432 -0.3494  0.0553 -0.2376
 8519TIP3    H146972   1.385   6.843  13.391 -0.4737  0.9315  0.9814
 8519TIP3    H246973   1.354   6.781  13.525 -1.2510 -0.7684  0.0434
 8520TIP3   OH246974   5.517   6.671  13.970 -0.6928 -0.0922  0.5402
 8520TIP3    H146975   5.595   6.614  13.974  2.0803  3.3973  2.0611
 8520TIP3    H246976   5.485   6.662  13.880  1.8387 -1.2871 -0.3469
 8521TIP3   OH246977   3.979   0.013  14.755  0.2249 -0.8217  0.3113
 8521TIP3    H146978   3.976   0.083  14.820  1.2429 -1.7010  1.3384
 8521TIP3    H246979   3.907  -0.045  14.780 -2.0094  0.8125 -1.7745
 8522TIP3   OH246980   5.597   4.227  16.092  0.3062  0.2923 -0.4185
 8522TIP3    H146981   5.584   4.133  16.107 -2.6288  0.5287 -1.0336
 8522TIP3    H246982   5.607   4.264  16.180 -1.3150 -0.2782  0.0380
 8523TIP3   OH246983   5.328   6.625   3.473  0.3606 -0.3174  0.7541
 8523TIP3    H146984   5.255   6.669   3.430 -0.3146 -1.5065  0.6310
 8523TIP3    H246985   5.393   6.694   3.487 -1.9872  1.5651  3.7714
 8524TIP3   OH246986   1.756   0.857  16.262 -0.2710  0.1160 -0.3390
 8524TIP3    H146987   1.846   0.890  16.258  0.2377 -1.0423  0.7146
 8524TIP3    H246988   1.708   0.923  16.313  0.6741 -0.5731  1.5497
 8525TIP3   OH246989   4.702   5.452  16.583  0.0851 -0.0325 -0.0280
 8525TIP3    H146990   4.608   5.452  16.567 -0.0182  0.1406  0.5552
 8525TIP3    H246991   4.729   5.543  16.571  0.1329 -0.0338  0.0694
 8526TIP3   OH246992   6.380   4.147   0.921 -0.1239 -0.3904 -0.2297
 8526TIP3    H146993   6.462   4.168   0.877  1.5611 -1.2200  2.2727
 8526TIP3    H246994   6.369   4.216   0.987 -3.0496  1.3530 -2.3162
 8527TIP3   OH246995   0.375   0.790  14.178  0.0490  0.6064 -0.2731
 8527TIP3    H146996   0.339   0.842  14.106  2.2611  0.5925 -1.4959
 8527TIP3    H246997   0.455   0.836  14.203  0.4648 -0.5837  0.6834
 8528TIP3   OH246998   3.126   6.354   2.414 -0.3567  0.5317  0.2794
 8528TIP3    H146999   3.117   6.259   2.409 -2.5900  0.7193 -0.3174
 8528TIP3    H247000   3.163   6.380   2.330  1.8284  0.1088  1.0418
 8529TIP3   OH247001   5.002   2.463  13.268  0.5542  0.1029  0.4920
 8529TIP3    H147002   4.949   2.537  13.241  0.8854  0.0945 -0.1855
 8529TIP3    H247003   5.092   2.490  13.253  0.6228 -1.2105 -1.8534
 8530TIP3   OH247004   0.420   4.549   3.905 -0.3129 -0.5918 -0.4466
 8530TIP3    H147005   0.495   4.491   3.917 -0.7765 -1.0755  0.2302
 8530TIP3    H247006   0.455   4.625   3.860  0.6692 -0.6368  0.2075
 8531TIP3   OH247007   6.131   1.320  16.184 -0.0047 -0.8237 -0.1809
 8531TIP3    H147008   6.056   1.364  16.225  0.3948 -0.0232 -0.3004
 8531TIP3    H247009   6.100   1.297  16.097  0.8587  2.4283 -1.4865
 8532TIP3   OH247010   4.879   4.065  16.923  0.0997 -0.2011  0.0037
 8532TIP3    H147011   4.969   4.042  16.897  1.7679  1.4685  3.6316
 8532TIP3    H247012   4.846   3.987  16.967  1.5460  0.5118  2.5191
 8533TIP3   OH247013   5.724   5.219  13.515  0.0802  0.3041 -0.4477
 8533TIP3    H147014   5.736   5.309  13.485  0.0712  0.0927 -1.1030
 8533TIP3    H247015   5.705   5.227  13.609 -0.2132  0.9994 -0.5629
 8534TIP3   OH247016   3.203   5.426  13.359  1.0163  0.1150 -0.1467
 8534TIP3    H147017   3.256   5.463  13.429 -2.1433  2.6916  1.1502
 8534TIP3    H247018   3.143   5.366  13.404  1.2807 -1.0323 -1.2517
 8535TIP3   OH247019   6.141   5.151   5.332 -0.5680  0.6865 -0.3022
 8535TIP3    H147020   6.063   5.152   5.276 -0.7681  1.8761 -0.0385
 8535TIP3    H247021   6.110   5.180   5.417 -0.0488 -0.0071  0.1251
 8536TIP3   OH247022   1.681   1.868   3.934 -0.0573 -0.4174 -0.1323
 8536TIP3    H147023   1.746   1.798   3.931  1.0589  0.6204 -2.1276
 8536TIP3    H247024   1.637   1.856   4.018  1.6415 -2.1119  0.5935
 8537TIP3   OH247025   4.387   0.779  14.459  0.5292 -0.5741  0.4207
 8537TIP3    H147026   4.408   0.870  14.480 -2.4577  0.0826  1.1056
 8537TIP3    H247027   4.457   0.750  14.401  3.0202  1.2494  2.2953
 8538TIP3   OH247028   0.845   0.219  11.480  0.6421  0.2784  0.5646
 8538TIP3    H147029   0.937   0.246  11.475  0.5371  0.7852  1.1674
 8538TIP3    H247030   0.802   0.266  11.409  0.4883  1.6336  1.5210
 8539TIP3   OH247031   5.897   0.882   0.079 -0.1914 -0.2040 -0.1592
 8539TIP3    H147032   5.888   0.937   0.001  0.8534  0.4576  0.1676
 8539TIP3    H247033   5.877   0.794   0.049  0.1271  0.0564 -1.1702
 8540TIP3   OH247034   3.181   4.401   1.416 -0.3378  1.1236  0.2292
 8540TIP3    H147035   3.176   4.431   1.325 -1.9968  1.1433  0.2946
 8540TIP3    H247036   3.093   4.415   1.451 -0.6891 -1.8867  0.8646
 8541TIP3   OH247037   6.573   2.042  16.769 -0.5849  0.2456  0.1673
 8541TIP3    H147038   6.521   2.109  16.725 -0.7739  0.4399  0.6768
 8541TIP3    H247039   6.587   2.076  16.857  0.2244  0.0919  0.1022
 8542TIP3   OH247040   6.658   6.299  10.458  0.6348 -0.1880 -0.0051
 8542TIP3    H147041   6.722   6.370  10.461  2.5370 -1.8491  0.8723
 8542TIP3    H247042   6.621   6.296  10.546 -1.4021  1.3279 -0.7356
 8543TIP3   OH247043   5.392   2.649   4.131 -0.3451 -0.7772  0.2700
 8543TIP3    H147044   5.419   2.606   4.050 -2.3458  1.4021 -1.6941
 8543TIP3    H247045   5.303   2.616   4.147 -0.2709 -0.5890  1.1552
 8544TIP3   OH247046   2.054   5.806  11.974  0.6190 -0.1791  0.6765
 8544TIP3    H147047   2.133   5.791  12.026  0.4605 -0.9000  0.7167
 8544TIP3    H247048   1.990   5.744  12.008  1.4527 -3.0615 -2.4166
 8545TIP3   OH247049   1.595   6.530   5.750  0.3074  0.2009 -0.1673
 8545TIP3    H147050   1.624   6.537   5.659  1.0772  1.9527  0.1660
 8545TIP3    H247051   1.504   6.501   5.745  1.2136 -2.7452 -1.3555
 8546TIP3   OH247052   6.210   4.969   3.973 -0.0702 -0.7156  0.7782
 8546TIP3    H147053   6.287   4.957   3.918 -0.8214  0.0097 -0.4943
 8546TIP3    H247054   6.145   4.909   3.937 -0.6486 -0.0609  0.7020
 8547TIP3   OH247055   2.623   2.910  15.020  0.1830 -0.1503 -0.0406
 8547TIP3    H147056   2.666   2.941  14.940 -0.9305 -0.7212 -0.8947
 8547TIP3    H247057   2.533   2.942  15.013 -0.1074 -0.7818  0.6507
 8548TIP3   OH247058   2.047   4.375   1.136 -0.1392 -0.1851 -0.1725
 8548TIP3    H147059   2.037   4.285   1.105  0.5806 -0.2447 -0.2418
 8548TIP3    H247060   2.095   4.420   1.067  0.5696 -0.0622  0.3845
 8549TIP3   OH247061   2.879   5.661   0.126 -0.5638 -0.3448  0.6731
 8549TIP3    H147062   2.941   5.615   0.183 -0.6494 -1.2456  0.0604
 8549TIP3    H247063   2.823   5.592   0.091  0.2889 -0.0202 -1.4903
 8550TIP3   OH247064   1.744   1.019  13.353 -0.2046  0.2129 -0.3833
 8550TIP3    H147065   1.744   1.076  13.430  2.2458 -2.5830  1.9247
 8550TIP3    H247066   1.656   0.982  13.350 -0.9176  1.8118 -0.1577
 8551TIP3   OH247067   2.197   4.984  11.712  0.0262  0.0526  0.0759
 8551TIP3    H147068   2.288   5.010  11.728  0.6202 -1.2772 -0.9320
 8551TIP3    H247069   2.197   4.889  11.726 -1.8608  0.3565  2.8162
 8552TIP3   OH247070   0.227   6.302  16.474 -0.2275  0.4216 -0.1996
 8552TIP3    H147071   0.153   6.275  16.528  0.4636 -0.0193  0.5594
 8552TIP3    H247072   0.213   6.259  16.390  0.5803 -2.0084  0.8044
 8553TIP3   OH247073   5.809   0.859  11.559 -0.1323 -0.1902 -0.3134
 8553TIP3    H147074   5.849   0.876  11.474 -0.6166 -0.4803 -0.6074
 8553TIP3    H247075   5.819   0.941  11.607 -0.9912  0.4163 -1.1258
 8554TIP3   OH247076   6.207   0.639   4.087 -1.0332 -0.4227 -0.5471
 8554TIP3    H147077   6.267   0.564   4.079 -1.7062 -0.8416 -1.9727
 8554TIP3    H247078   6.264   0.715   4.093 -0.3405 -0.8742 -1.2319
 8555TIP3   OH247079   2.955   0.477  14.748 -0.3966 -0.2820  1.0995
 8555TIP3    H147080   2.993   0.559  14.717  0.2675  0.1457  2.8975
 8555TIP3    H247081   2.860   0.488  14.737 -0.2143 -0.0747 -0.4512
 8556TIP3   OH247082   0.185   5.460  14.701  0.6456 -0.1925 -1.1172
 8556TIP3    H147083   0.113   5.405  14.670  0.3020 -0.0409 -0.5951
 8556TIP3    H247084   0.143   5.524  14.757  1.2877 -0.6395 -0.1093
 8557TIP3   OH247085   0.672   2.453  15.403  0.6866  0.4655 -0.3031
 8557TIP3    H147086   0.731   2.495  15.466  0.7628  1.7781 -1.2266
 8557TIP3    H247087   0.698   2.488  15.318 -0.0402 -0.5710 -0.9822
 8558TIP3   OH247088   6.414   0.004   6.382 -0.3651 -0.4245  0.1766
 8558TIP3    H147089   6.488   0.038   6.433 -0.2852 -0.6527  0.2152
 8558TIP3    H247090   6.426  -0.091   6.383 -0.1838 -0.4148 -0.5466
 8559TIP3   OH247091   3.294   3.717   3.066  0.8992 -0.2797  0.4110
 8559TIP3    H147092   3.345   3.770   3.128  0.4145 -1.7287  2.1385
 8559TIP3    H247093   3.203   3.733   3.091  0.7602 -2.2116  1.2553
 8560TIP3   OH247094   6.089   2.994   3.006 -0.2902  0.9042 -0.1404
 8560TIP3    H147095   6.045   2.979   3.090  0.5891  0.0319  0.1731
 8560TIP3    H247096   6.041   2.938   2.944 -0.3160  0.7990 -0.0264
 8561TIP3   OH247097   5.976   2.484   5.498 -0.5083 -0.0906  0.0253
 8561TIP3    H147098   6.072   2.481   5.497 -0.4773 -0.3598  1.6584
 8561TIP3    H247099   5.954   2.568   5.458  0.4014 -0.0019 -0.3055
 8562TIP3   OH247100   5.172   2.058  16.082 -0.2834 -0.9906 -0.0043
 8562TIP3    H147101   5.226   2.137  16.081 -1.2992 -0.2409  0.6896
 8562TIP3    H247102   5.190   2.018  16.167  0.1544 -1.4602 -0.3148
 8563TIP3   OH247103   2.150   4.596   1.002  0.4497 -0.4350  0.2565
 8563TIP3    H147104   2.087   4.666   1.019 -0.5253 -1.8040  2.7645
 8563TIP3    H247105   2.110   4.545   0.931  0.2801  0.4876 -0.3243
 8564TIP3   OH247106   3.406   6.073  11.513 -0.0204 -0.4039 -0.3332
 8564TIP3    H147107   3.385   6.093  11.604  0.3241 -0.4916 -0.2332
 8564TIP3    H247108   3.368   6.145  11.463  0.5016  0.0776 -0.0512
 8565TIP3   OH247109   2.620   1.716   3.885 -0.1076 -0.7313  0.5571
 8565TIP3    H147110   2.556   1.756   3.826 -0.7240 -1.9013  0.4013
 8565TIP3    H247111   2.692   1.778   3.888  0.3354 -1.0275 -2.1097
 8566TIP3   OH247112   2.568   3.590  14.202  0.6031  0.9387  0.0779
 8566TIP3    H147113   2.610   3.623  14.123  0.7001  1.3972  0.3199
 8566TIP3    H247114   2.610   3.505  14.218 -0.3788  0.1923 -1.1325
 8567TIP3   OH247115   2.405   4.223  13.861 -0.4894  0.1285  0.0357
 8567TIP3    H147116   2.408   4.310  13.822  0.1377 -0.5335 -1.4657
 8567TIP3    H247117   2.384   4.239  13.953  2.3746  2.0926  0.4855
 8568TIP3   OH247118   1.583   5.525   2.216  0.2215 -0.3136  0.8359
 8568TIP3    H147119   1.540   5.439   2.209  1.6348 -0.9282 -2.9161
 8568TIP3    H247120   1.676   5.505   2.227  0.3395  0.8462  2.2122
 8569TIP3   OH247121   3.246   0.783  13.838 -0.1600  0.3018 -0.6204
 8569TIP3    H147122   3.287   0.837  13.771  1.0891 -1.4356 -1.3142
 8569TIP3    H247123   3.162   0.756  13.800 -0.5127  1.2253 -0.5115
 8570TIP3   OH247124   5.587   4.614  13.236 -0.0004  0.0166  0.1186
 8570TIP3    H147125   5.558   4.626  13.146 -1.2370  1.1726  0.6382
 8570TIP3    H247126   5.561   4.524  13.258 -1.6777  0.4454 -0.0023
 8571TIP3   OH247127   5.674   2.147  12.523 -0.0798  0.0339  0.2552
 8571TIP3    H147128   5.718   2.140  12.608  1.6943 -0.8427 -0.6853
 8571TIP3    H247129   5.604   2.082  12.527  1.6137 -1.8971  0.1503
 8572TIP3   OH247130   2.759   6.483   2.348 -0.5115  0.1222 -0.1116
 8572TIP3    H147131   2.788   6.559   2.299  2.0728  0.9635  2.4107
 8572TIP3    H247132   2.826   6.471   2.415 -2.1668 -2.8243  1.2278
 8573TIP3   OH247133   4.641   0.848  12.560 -0.2261 -0.1680 -0.0581
 8573TIP3    H147134   4.618   0.929  12.516  0.0004  0.7244  1.4059
 8573TIP3    H247135   4.558   0.804  12.576 -0.2989 -0.5603 -1.4414
 8574TIP3   OH247136   3.760   3.347   4.650  0.0080 -0.4773  0.4400
 8574TIP3    H147137   3.846   3.304   4.658  0.6121  0.4423 -0.9064
 8574TIP3    H247138   3.717   3.300   4.579  0.1349  0.2647 -0.1270
 8575TIP3   OH247139   6.749   6.461  17.046  0.4049 -0.0489  0.4727
 8575TIP3    H147140   6.733   6.431  17.135 -1.5151 -3.8780 -0.9502
 8575TIP3    H247141   6.688   6.534  17.033 -0.8437 -0.8633  1.6187
 8576TIP3   OH247142   5.993   2.511  12.290 -0.2968  0.1931  0.4197
 8576TIP3    H147143   6.048   2.555  12.354 -1.6013  2.4373  0.1396
 8576TIP3    H247144   5.945   2.445  12.340  0.1230  0.5872  1.3644
 8577TIP3   OH247145   4.178   0.954  15.390  0.3937  0.5842  0.2063
 8577TIP3    H147146   4.197   0.867  15.353  0.0141  0.6865 -0.2353
 8577TIP3    H247147   4.264   0.994  15.403  0.6158 -0.1577  1.1633
 8578TIP3   OH247148   5.328   5.552  13.139 -0.0105  0.0295  0.2475
 8578TIP3    H147149   5.352   5.485  13.075  1.7214  0.6758  0.1681
 8578TIP3    H247150   5.251   5.515  13.184 -0.0039 -1.3379 -0.7885
 8579TIP3   OH247151   3.831   4.357  16.527  0.0351 -0.1543 -0.1025
 8579TIP3    H147152   3.779   4.358  16.608  1.5002 -1.6207  0.9056
 8579TIP3    H247153   3.916   4.394  16.553  1.1234 -2.2646 -0.5046
 8580TIP3   OH247154   4.883   1.233   5.568 -0.0194 -0.1005 -0.8528
 8580TIP3    H147155   4.805   1.178   5.573  0.1868 -0.5079 -1.8476
 8580TIP3    H247156   4.956   1.173   5.584  0.1015  0.2677  0.0110
 8581TIP3   OH247157   6.731   5.964   0.330  0.9312  0.4803  0.1917
 8581TIP3    H147158   6.700   5.903   0.264  1.2671  1.3746 -0.8314
 8581TIP3    H247159   6.797   5.916   0.380  0.8279 -0.1420 -0.2728
 8582TIP3   OH247160   0.331   1.089  11.974 -0.1837  0.0536 -0.1413
 8582TIP3    H147161   0.411   1.135  12.000  0.0039 -0.4157  0.1197
 8582TIP3    H247162   0.360   1.001  11.950 -0.7725 -0.5350  1.1935
 8583TIP3   OH247163   1.917   0.367  13.807  0.2362 -0.7374  0.0170
 8583TIP3    H147164   1.952   0.404  13.888  0.5793  0.0562 -0.4871
 8583TIP3    H247165   1.959   0.417  13.737 -2.3680  0.7513 -0.6311
 8584TIP3   OH247166   3.790   1.654   0.262 -0.1130  0.4427 -0.4355
 8584TIP3    H147167   3.871   1.683   0.220 -1.7406  3.0869 -2.0000
 8584TIP3    H247168   3.788   1.701   0.345 -0.1217  0.4549 -0.4428
 8585TIP3   OH247169   3.655   3.918  12.733  0.0125  0.4220  0.0778
 8585TIP3    H147170   3.713   3.865  12.789  0.7804 -0.1764 -1.2306
 8585TIP3    H247171   3.698   3.918  12.648 -2.3008 -0.7443 -1.1975
 8586TIP3   OH247172   0.056   2.622  15.786 -0.8659 -0.0926  0.6908
 8586TIP3    H147173   0.080   2.531  15.805 -0.7508  0.0123  1.0574
 8586TIP3    H247174   0.011   2.652  15.866 -0.1486  0.4388  0.9019
 8587TIP3   OH247175   6.289   2.707  11.139 -0.3178  0.5094 -0.5617
 8587TIP3    H147176   6.231   2.783  11.140 -2.1020 -0.7215 -2.0311
 8587TIP3    H247177   6.256   2.653  11.066  1.2624 -1.3545  0.0131
 8588TIP3   OH247178   0.318   4.629  13.271  0.2236  0.1205  0.5210
 8588TIP3    H147179   0.226   4.649  13.289  0.3656 -0.3482  1.9275
 8588TIP3    H247180   0.322   4.612  13.177 -1.5291 -1.8719  0.7479
 8589TIP3   OH247181   5.242   4.052  15.519 -0.5219  0.2240 -0.0842
 8589TIP3    H147182   5.193   4.029  15.598  0.3691  0.5436  0.5730
 8589TIP3    H247183   5.333   4.033  15.541 -0.1617  1.1616 -0.7189
 8590TIP3   OH247184   4.890   4.559   3.382 -0.1866 -0.2514 -0.4669
 8590TIP3    H147185   4.859   4.646   3.356 -1.7611 -0.9679 -1.1209
 8590TIP3    H247186   4.944   4.530   3.309 -1.0941 -0.5102 -1.0573
 8591TIP3   OH247187   1.735   2.151  16.324  0.0842  0.6844  0.7018
 8591TIP3    H147188   1.759   2.243  16.321  1.2508  0.3907 -1.6134
 8591TIP3    H247189   1.810   2.107  16.365  2.3062  0.2076 -3.3093
 8592TIP3   OH247190   1.362   0.861   5.286  0.1154 -0.2815 -0.0241
 8592TIP3    H147191   1.434   0.848   5.347 -0.2671  0.3017  0.5687
 8592TIP3    H247192   1.402   0.904   5.211  0.3036  0.5000  0.5144
 8593TIP3   OH247193   3.278   0.103   4.791 -0.3045  0.0480  0.0285
 8593TIP3    H147194   3.290   0.009   4.803 -1.5760  0.0328  1.5842
 8593TIP3    H247195   3.365   0.141   4.806  0.9083 -1.0106 -3.4357
 8594TIP3   OH247196   0.603   2.017  11.008  0.3343  0.0201 -0.0579
 8594TIP3    H147197   0.667   2.001  10.939 -0.5448  0.6649 -1.0491
 8594TIP3    H247198   0.570   2.105  10.991  0.4412  0.3938  1.4807
 8595TIP3   OH247199   5.368   4.476  12.908  0.1435 -0.5147  0.5459
 8595TIP3    H147200   5.439   4.538  12.924 -0.6401  0.8378 -0.9114
 8595TIP3    H247201   5.409   4.403  12.863  0.3703  1.2050 -2.2701
 8596TIP3   OH247202   6.382   2.228  16.674  0.2759 -0.8864  0.4892
 8596TIP3    H147203   6.421   2.273  16.748  1.2825 -1.0013  0.0446
 8596TIP3    H247204   6.348   2.298  16.618  0.7731 -0.7212  0.3832
 8597TIP3   OH247205   4.094   1.637  16.130  0.3570 -0.7600 -0.2064
 8597TIP3    H147206   4.174   1.687  16.119  0.5459 -1.4263 -2.2838
 8597TIP3    H247207   4.097   1.571  16.060 -1.4765 -1.5016  0.3499
 8598TIP3   OH247208   1.879   0.165   1.518 -0.0561 -0.3988  0.0331
 8598TIP3    H147209   1.800   0.113   1.505  0.1958 -0.8384  0.2497
 8598TIP3    H247210   1.942   0.104   1.555  0.4090 -0.0665 -0.2015
 8599TIP3   OH247211   5.035   3.526   2.862 -0.0173  0.6050 -0.2887
 8599TIP3    H147212   5.122   3.485   2.866  0.1977  1.0416 -0.4836
 8599TIP3    H247213   5.010   3.536   2.954 -0.4693 -0.7958 -0.2387
 8600TIP3   OH247214   4.155   4.931  14.015 -0.0304  0.4074 -0.0486
 8600TIP3    H147215   4.216   4.967  13.951 -0.8868  1.5136 -0.2874
 8600TIP3    H247216   4.210   4.880  14.075  1.0885  1.1940 -0.3715
 8601TIP3   OH247217   1.943   3.602   0.936  0.0770  0.1922 -0.0702
 8601TIP3    H147218   1.968   3.540   1.005 -2.6153 -0.8697  0.0656
 8601TIP3    H247219   2.004   3.585   0.864  0.7607 -1.0769  0.7848
 8602TIP3   OH247220   6.219   5.317  15.756 -0.4334  0.0489 -0.9134
 8602TIP3    H147221   6.130   5.299  15.786 -0.6791  0.1940 -1.5452
 8602TIP3    H247222   6.219   5.410  15.735  0.2842  0.3903  0.4687
 8603TIP3   OH247223   0.705   1.961  15.023  0.1335 -0.3077  0.2083
 8603TIP3    H147224   0.696   2.031  14.959 -1.1205  0.3138  1.0257
 8603TIP3    H247225   0.676   1.999  15.106  1.3014 -1.2194  1.0808
 8604TIP3   OH247226   2.095   1.979  13.799 -0.1720  0.3639 -0.6423
 8604TIP3    H147227   2.143   2.005  13.721  1.3561 -1.8245 -0.5099
 8604TIP3    H247228   2.004   2.003  13.780  0.2741  0.5616 -2.7791
 8605TIP3   OH247229   5.864   4.841  13.723 -0.2296  0.1001 -0.4324
 8605TIP3    H147230   5.872   4.930  13.758 -1.7688  1.2551 -2.7748
 8605TIP3    H247231   5.805   4.797  13.783 -0.3628  1.0276  0.1421
 8606TIP3   OH247232   0.674   1.251   5.087  0.3175 -0.5816  0.1567
 8606TIP3    H147233   0.586   1.288   5.076  0.5041 -0.2725 -0.3180
 8606TIP3    H247234   0.689   1.202   5.006  0.8044 -0.1738 -0.0016
 8607TIP3   OH247235   5.614   1.478  14.953 -0.0533  0.5643  0.0034
 8607TIP3    H147236   5.553   1.544  14.987  1.3298  2.0007 -0.1480
 8607TIP3    H247237   5.664   1.525  14.886  0.2000 -1.0015 -0.9585
 8608TIP3   OH247238   4.693   2.225   0.228  0.3138 -0.1230 -0.5184
 8608TIP3    H147239   4.778   2.199   0.194 -0.6764 -2.9192 -1.1000
 8608TIP3    H247240   4.630   2.182   0.170 -1.4480 -2.1954  2.6328
 8609TIP3   OH247241   3.490   4.167   0.316 -0.4934  0.1986 -0.0011
 8609TIP3    H147242   3.407   4.122   0.301 -0.0085 -1.5297  1.9678
 8609TIP3    H247243   3.469   4.236   0.379 -0.4190 -0.3698  0.6538
 8610TIP3   OH247244   2.944   1.550  13.400 -0.1558 -0.1678 -0.3041
 8610TIP3    H147245   2.952   1.478  13.338 -0.7653  0.5944 -1.3021
 8610TIP3    H247246   2.872   1.603  13.367 -0.1146  0.5844  0.7363
 8611TIP3   OH247247   2.722   3.370   5.070 -0.3946  0.6463  0.2200
 8611TIP3    H147248   2.797   3.310   5.069 -0.3900  0.6419 -1.3545
 8611TIP3    H247249   2.649   3.318   5.037  0.0453  1.9656 -3.1883
 8612TIP3   OH247250   3.422   4.265  13.491  0.9778 -0.4411 -0.4225
 8612TIP3    H147251   3.327   4.278  13.490  1.1445  0.9654 -1.3037
 8612TIP3    H247252   3.438   4.210  13.567 -0.1231  3.0171  2.6049
 8613TIP3   OH247253   6.485   2.839   3.740 -0.1885 -0.5240  0.6679
 8613TIP3    H147254   6.447   2.751   3.747 -1.7401 -0.1348 -1.6874
 8613TIP3    H247255   6.539   2.836   3.662 -0.1248  0.5669  0.6490
 8614TIP3   OH247256   0.228   2.519  15.075 -0.5296 -0.0263  1.3276
 8614TIP3    H147257   0.177   2.598  15.091 -1.0540 -0.3289  1.2073
 8614TIP3    H247258   0.168   2.447  15.096 -0.9151 -0.4396 -0.8841
 8615TIP3   OH247259   0.978   5.970  15.676 -0.4544 -0.2805 -0.3669
 8615TIP3    H147260   0.926   6.008  15.605 -0.7200  1.4774  0.7003
 8615TIP3    H247261   0.956   5.877  15.674 -0.5194 -0.2724 -2.5024
 8616TIP3   OH247262   5.277   3.771  14.562  0.3219  0.4655 -0.1723
 8616TIP3    H147263   5.245   3.693  14.607  0.8948  0.0055 -0.5397
 8616TIP3    H247264   5.371   3.756  14.553  0.7533  1.9896  1.2997
 8617TIP3   OH247265   0.707   0.262  16.767 -0.0711 -0.5998  0.0258
 8617TIP3    H147266   0.741   0.220  16.688  0.9392 -0.0800  0.1782
 8617TIP3    H247267   0.765   0.336  16.782 -0.7132 -0.2487  0.8349
 8618TIP3   OH247268   5.518   3.078   5.359  0.1649  0.3731 -0.0515
 8618TIP3    H147269   5.581   3.113   5.422  0.1741  0.5411 -0.1548
 8618TIP3    H247270   5.432   3.100   5.396  0.1344 -0.7782  0.6312
 8619TIP3   OH247271   4.153   2.128   2.787  0.0270 -0.0683 -0.3667
 8619TIP3    H147272   4.161   2.173   2.871  0.4826 -0.9842  0.1024
 8619TIP3    H247273   4.111   2.192   2.729  0.5441  0.9023  0.2972
 8620TIP3   OH247274   3.451   4.654   5.758 -0.2792 -0.1883  0.2198
 8620TIP3    H147275   3.377   4.603   5.725 -0.1929  0.6340 -1.3197
 8620TIP3    H247276   3.414   4.706   5.829 -1.5331  1.1740 -1.3491
 8621TIP3   OH247277   1.336   5.598  12.713 -0.2446  0.1545  0.2616
 8621TIP3    H147278   1.245   5.623  12.699 -0.2539  1.2506  2.0202
 8621TIP3    H247279   1.334   5.542  12.791  0.6781  1.0700  0.9774
 8622TIP3   OH247280   6.350   6.606  11.724  0.8124  0.3841  0.0147
 8622TIP3    H147281   6.262   6.631  11.694  1.5230  1.0482 -1.5984
 8622TIP3    H247282   6.362   6.655  11.805 -0.3406  0.2108  0.3027
 8623TIP3   OH247283   3.834   0.575   5.549 -0.0102 -0.1456 -0.5738
 8623TIP3    H147284   3.845   0.625   5.469  0.6147  0.4257 -0.1459
 8623TIP3    H247285   3.836   0.483   5.521 -0.1570  0.0515 -1.2422
 8624TIP3   OH247286   3.225   0.711   3.341 -0.1277 -0.1621 -0.3104
 8624TIP3    H147287   3.292   0.774   3.367  0.3946 -1.3312  1.3719
 8624TIP3    H247288   3.167   0.760   3.283  1.3954  1.2714 -0.7070
 8625TIP3   OH247289   3.792   3.950   4.807 -0.0718 -0.5354 -0.4175
 8625TIP3    H147290   3.747   4.026   4.770 -0.8423  0.1201  1.6704
 8625TIP3    H247291   3.728   3.879   4.801 -0.7872 -0.0494  0.9299
 8626TIP3   OH247292   0.103   3.136   5.471 -0.5578 -0.6993  0.4756
 8626TIP3    H147293   0.119   3.207   5.533 -0.2721  0.2567 -0.6615
 8626TIP3    H247294   0.190   3.109   5.443 -0.6714 -1.4239  0.7982
 8627TIP3   OH247295   5.613   1.887   5.827 -0.6117 -0.2164  0.4310
 8627TIP3    H147296   5.532   1.886   5.878 -1.3321  1.0257 -0.6346
 8627TIP3    H247297   5.640   1.979   5.825  0.1782 -0.4452 -0.2333
 8628TIP3   OH247298   2.336   1.826   1.336  0.7109 -0.3826  0.0933
 8628TIP3    H147299   2.281   1.748   1.346  1.6184 -0.9931  0.5199
 8628TIP3    H247300   2.307   1.885   1.406  1.0764 -1.0006  0.7878
 8629TIP3   OH247301   1.840   4.170   2.054  0.0199 -0.1314  0.5612
 8629TIP3    H147302   1.833   4.078   2.029  2.2012 -0.2769  0.2956
 8629TIP3    H247303   1.754   4.208   2.032 -1.0037 -2.1270  0.9203
 8630TIP3   OH247304   0.596   5.289  17.137  0.4352 -0.7351  0.2981
 8630TIP3    H147305   0.661   5.220  17.151  0.0016 -1.1589  0.2837
 8630TIP3    H247306   0.587   5.330  17.223  0.5771 -0.8050  0.3469
 8631TIP3   OH247307   4.190   5.305  15.150 -0.4419 -0.2221 -0.4010
 8631TIP3    H147308   4.171   5.398  15.149  2.1065  0.4227  1.2830
 8631TIP3    H247309   4.280   5.298  15.119 -0.4214 -2.0802 -0.0589
 8632TIP3   OH247310   0.523   3.302   3.346  0.2291  0.0083 -0.6991
 8632TIP3    H147311   0.451   3.361   3.321  0.6905  0.1287 -1.8027
 8632TIP3    H247312   0.493   3.216   3.318 -1.1810 -0.6538  2.4088
 8633TIP3   OH247313   1.741   1.489  12.675  0.0065 -0.2431  0.9195
 8633TIP3    H147314   1.735   1.563  12.615 -1.2665  0.4863  1.9064
 8633TIP3    H247315   1.825   1.447  12.653  1.3162  2.1165  1.0802
 8634TIP3   OH247316   5.702   1.053   1.715 -0.5281  0.1486 -0.9100
 8634TIP3    H147317   5.681   1.019   1.628  0.9388 -0.4281 -1.0569
 8634TIP3    H247318   5.617   1.061   1.758 -1.2298 -0.0672 -2.2022
 8635TIP3   OH247319   0.741   0.205  17.047  0.2659  0.1010 -1.0836
 8635TIP3    H147320   0.733   0.202  16.952  0.8516  1.0844 -1.1786
 8635TIP3    H247321   0.833   0.184  17.064 -0.0621 -1.0547 -0.6608
 8636TIP3   OH247322   0.944   6.734  11.559  0.0277  0.2710 -0.1849
 8636TIP3    H147323   0.879   6.663  11.565 -0.0570  0.3199 -0.5108
 8636TIP3    H247324   0.892   6.814  11.567  0.3202  0.2976  2.1384
 8637TIP3   OH247325   1.390   3.379   0.058 -0.7517  0.2554 -0.1139
 8637TIP3    H147326   1.321   3.401   0.119 -0.5466  0.1180  0.1710
 8637TIP3    H247327   1.464   3.435   0.083 -0.2465 -0.6756  0.5802
 8638TIP3   OH247328   0.191   5.936   3.360  0.4331 -0.2656 -0.6161
 8638TIP3    H147329   0.112   5.973   3.400  0.2543 -2.1418  0.9173
 8638TIP3    H247330   0.227   6.007   3.306 -0.5943  1.6435  1.1043
 8639TIP3   OH247331   6.401   0.953   4.364  0.3004  0.7437  0.0689
 8639TIP3    H147332   6.387   0.976   4.455  0.7313  2.3004 -0.2390
 8639TIP3    H247333   6.414   0.858   4.365 -2.4970  0.2884  1.2552
 8640TIP3   OH247334   1.477   0.091  14.156  0.2889 -0.4982  0.3315
 8640TIP3    H147335   1.478   0.098  14.061  0.6485 -0.7855  0.3132
 8640TIP3    H247336   1.569   0.093  14.181  0.1783  2.6740  0.9073
 8641TIP3   OH247337   4.782   4.839   2.387 -0.3640 -0.1234  0.6294
 8641TIP3    H147338   4.699   4.792   2.398 -1.7831  1.7537 -1.0657
 8641TIP3    H247339   4.771   4.919   2.438  0.1422  0.4063 -0.0607
 8642TIP3   OH247340   5.676   0.564   3.415 -0.6747  0.4130  0.1443
 8642TIP3    H147341   5.651   0.644   3.460 -0.0745  0.9984 -0.5317
 8642TIP3    H247342   5.772   0.562   3.420 -0.5617  0.6649 -1.3445
 8643TIP3   OH247343   3.637   3.695  11.436 -0.0574  0.6061  0.2182
 8643TIP3    H147344   3.640   3.674  11.343  0.6260  1.9209 -0.0753
 8643TIP3    H247345   3.543   3.697  11.457 -0.2030 -0.1978 -0.3053
 8644TIP3   OH247346   5.307   3.844  11.350  1.0752 -0.2193 -0.5330
 8644TIP3    H147347   5.395   3.882  11.347  1.0902 -0.2949 -1.2549
 8644TIP3    H247348   5.250   3.917  11.375  1.4064 -0.3012  0.5044
 8645TIP3   OH247349   6.325   6.573   5.541 -0.1888  0.1176  0.1986
 8645TIP3    H147350   6.373   6.522   5.476 -1.5902 -1.9608  0.6905
 8645TIP3    H247351   6.327   6.663   5.508  0.3406 -0.6403 -1.9747
 8646TIP3   OH247352   6.214   4.312  15.096  0.0097 -0.4805 -0.6788
 8646TIP3    H147353   6.155   4.323  15.021 -0.5991 -1.2660 -0.3303
 8646TIP3    H247354   6.165   4.348  15.170  0.0499 -0.9281 -0.4310
 8647TIP3   OH247355   2.988   3.220   0.296  0.1165  0.1191 -0.7251
 8647TIP3    H147356   3.051   3.279   0.338 -0.2549 -0.2048  0.3197
 8647TIP3    H247357   3.037   3.139   0.284 -0.1039 -0.1512  0.1393
 8648TIP3   OH247358   5.785   5.689   6.538  0.0866  0.1794  0.3798
 8648TIP3    H147359   5.774   5.643   6.621 -0.3231  0.0053  0.2289
 8648TIP3    H247360   5.743   5.774   6.552  2.2707  1.1939  1.2162
 8649TIP3   OH247361   4.294   4.024  10.899  0.0849 -0.4296  0.2347
 8649TIP3    H147362   4.282   4.086  10.828  2.7593 -2.1870 -1.9612
 8649TIP3    H247363   4.261   3.941  10.865  0.1030 -1.0411  1.6160
 8650TIP3   OH247364   4.087   6.188  11.506  0.0462 -0.1489  0.8207
 8650TIP3    H147365   4.165   6.137  11.525 -1.2646 -1.4990  3.1315
 8650TIP3    H247366   4.103   6.273  11.547 -0.0877 -0.8157  2.3400
 8651TIP3   OH247367   5.077   3.801   2.740 -0.4794 -0.0684 -0.3561
 8651TIP3    H147368   5.066   3.732   2.805  1.1954 -1.5293 -1.5251
 8651TIP3    H247369   5.016   3.869   2.767 -1.3423 -1.4910  1.5295
 8652TIP3   OH247370   5.792   0.079  15.704 -0.2711 -0.2297  0.3032
 8652TIP3    H147371   5.812   0.173  15.705  0.3831 -0.3382 -0.7987
 8652TIP3    H247372   5.874   0.038  15.674 -0.5025 -1.1674  0.9265
 8653TIP3   OH247373   3.944   0.681  14.338 -0.4233 -0.1166 -0.3448
 8653TIP3    H147374   4.024   0.653  14.293 -1.7410 -0.5631 -2.5591
 8653TIP3    H247375   3.882   0.609  14.326 -2.8463  2.1806 -3.3926
 8654TIP3   OH247376   2.941   5.014  13.958 -0.5064 -0.3664  0.0405
 8654TIP3    H147377   2.867   5.067  13.986  0.3325  0.8862 -0.0544
 8654TIP3    H247378   2.981   4.982  14.039  0.1658  0.8163  0.1919
 8655TIP3   OH247379   2.399   6.781   2.919  0.0822 -0.4466 -0.2320
 8655TIP3    H147380   2.447   6.746   2.994  4.1947  0.7581 -2.0087
 8655TIP3    H247381   2.412   6.876   2.924 -1.2085 -0.1600 -1.4745
 8656TIP3   OH247382   3.077   1.811  11.973  0.0566 -0.0898  0.2526
 8656TIP3    H147383   3.075   1.818  12.068  0.2312  0.5266  0.2147
 8656TIP3    H247384   3.169   1.799  11.951  0.0812  0.3079  0.1286
 8657TIP3   OH247385   5.020   0.367  14.022  0.0663 -0.1907  0.2324
 8657TIP3    H147386   5.087   0.301  14.033  0.7946  0.6685  1.2037
 8657TIP3    H247387   4.977   0.372  14.108 -2.0503 -1.5354 -0.6748
 8658TIP3   OH247388   3.396   4.516  15.760 -0.6998  0.1361  0.0488
 8658TIP3    H147389   3.454   4.453  15.718  1.7236  0.9302  1.9901
 8658TIP3    H247390   3.366   4.472  15.840 -0.1784  0.8861  0.6687
 8659TIP3   OH247391   3.177   5.846   4.403 -1.2832  0.5452  0.3115
 8659TIP3    H147392   3.148   5.888   4.322 -0.5665  0.5233  0.0405
 8659TIP3    H247393   3.106   5.864   4.465 -2.1887 -0.0952 -0.5184
 8660TIP3   OH247394   3.345   1.457   4.484  0.1421 -0.0270 -0.5363
 8660TIP3    H147395   3.367   1.532   4.540 -1.1988 -0.3420  0.4678
 8660TIP3    H247396   3.269   1.417   4.527 -0.1891 -0.9892 -1.9629
 8661TIP3   OH247397   3.806   3.816  12.075  0.2056 -0.0491  0.5273
 8661TIP3    H147398   3.822   3.744  12.013 -0.1090 -0.4647  0.9231
 8661TIP3    H247399   3.753   3.776  12.144  1.6761  0.0596  1.7741
 8662TIP3   OH247400   5.800   6.357   2.784  0.0668  0.3475  0.1188
 8662TIP3    H147401   5.829   6.266   2.781 -1.6213 -0.2938  1.5119
 8662TIP3    H247402   5.874   6.404   2.821  0.7188 -0.5788  0.0345
 8663TIP3   OH247403   2.325   0.464   4.287 -0.1853  0.0753 -0.0010
 8663TIP3    H147404   2.264   0.403   4.331  0.3752  0.2469  1.0449
 8663TIP3    H247405   2.294   0.551   4.313  1.3054  0.1496  1.7195
 8664TIP3   OH247406   6.693   4.523   0.636  0.4368  0.2950 -0.1985
 8664TIP3    H147407   6.600   4.541   0.649  0.8484  3.4040 -0.6388
 8664TIP3    H247408   6.698   4.482   0.550 -0.6520 -2.4669  0.9271
 8665TIP3   OH247409   2.024   4.450   4.934 -0.2066  0.6724 -0.5284
 8665TIP3    H147410   1.941   4.435   4.980  0.2856  0.2201  0.2330
 8665TIP3    H247411   2.057   4.363   4.915 -0.9629  0.8225 -2.8498
 8666TIP3   OH247412   3.637   5.355  12.513  0.6204  0.0494 -0.1363
 8666TIP3    H147413   3.630   5.441  12.554 -1.9426 -0.4412  0.5731
 8666TIP3    H247414   3.705   5.310  12.563 -0.7270  0.3261  2.0683
 8667TIP3   OH247415   5.300   6.183  12.084 -0.1385  0.2028 -0.1307
 8667TIP3    H147416   5.380   6.181  12.031 -0.5384 -1.7347 -0.7394
 8667TIP3    H247417   5.235   6.223  12.027  0.0491  0.4609 -0.1654
 8668TIP3   OH247418   5.425   1.644   4.068  0.4872  0.5400  0.0496
 8668TIP3    H147419   5.502   1.701   4.068  0.1314  1.0517  1.2167
 8668TIP3    H247420   5.385   1.657   4.154 -1.3937  0.9424 -0.8131
 8669TIP3   OH247421   4.130   0.652   5.181  0.6172 -0.0511  0.1553
 8669TIP3    H147422   4.182   0.643   5.261 -0.5449  0.0287  0.9454
 8669TIP3    H247423   4.195   0.652   5.110  1.8990  2.1088  1.2052
 8670TIP3   OH247424   5.906   0.434   1.209 -0.6365  0.0104 -0.0807
 8670TIP3    H147425   5.854   0.405   1.284 -0.2323  1.0582  0.6237
 8670TIP3    H247426   5.905   0.359   1.149 -0.8349 -0.9136  1.0344
 8671TIP3   OH247427   1.119   2.068   3.846 -0.3068  0.1383  0.1700
 8671TIP3    H147428   1.167   2.120   3.782  1.9457 -1.1864  0.6750
 8671TIP3    H247429   1.029   2.065   3.812  0.0416  2.2171 -1.1367
 8672TIP3   OH247430   0.161   0.991   5.146  0.6378 -0.0692  0.0221
 8672TIP3    H147431   0.088   1.044   5.113 -0.3039 -1.4507 -0.2172
 8672TIP3    H247432   0.151   0.995   5.241  0.6167  0.2409  0.0078
 8673TIP3   OH247433   3.049   4.395  12.560  0.9553 -0.1007  0.1171
 8673TIP3    H147434   2.969   4.436  12.593  0.8296 -1.4464  1.5795
 8673TIP3    H247435   3.043   4.304  12.588  2.6685 -0.3951 -0.3719
 8674TIP3   OH247436   1.263   6.608   4.726 -0.1260  0.5427  0.3175
 8674TIP3    H147437   1.291   6.694   4.756 -0.0302  0.7941 -0.4647
 8674TIP3    H247438   1.172   6.601   4.755  0.7353 -0.3857  3.1041
 8675TIP3   OH247439   1.922   6.766   2.354 -0.1891 -0.9113 -0.2254
 8675TIP3    H147440   1.842   6.749   2.304 -0.6460 -0.6124  0.3885
 8675TIP3    H247441   1.911   6.856   2.385  0.6128 -0.6964 -0.5394
 8676TIP3   OH247442   1.513   0.597   0.350 -0.1359  0.1448  0.6805
 8676TIP3    H147443   1.427   0.597   0.392  0.1406 -2.3235  1.4575
 8676TIP3    H247444   1.573   0.626   0.420 -0.0975 -0.3339  0.8502
 8677TIP3   OH247445   0.005   2.645   3.846  0.0541 -0.8200  0.3404
 8677TIP3    H147446  -0.046   2.568   3.870 -0.8611 -0.3017  0.1106
 8677TIP3    H247447   0.079   2.611   3.795 -1.6616 -1.3775 -1.9180
 8678TIP3   OH247448   3.194   6.068  13.267 -0.7280  0.2640  0.0511
 8678TIP3    H147449   3.168   6.076  13.359 -2.0198 -1.0057 -0.1765
 8678TIP3    H247450   3.219   5.976  13.257  1.0360  0.7643 -0.4904
 8679TIP3   OH247451   6.730   0.825  12.174  0.5551  0.4762  0.1769
 8679TIP3    H147452   6.698   0.738  12.197 -0.2560  0.8954  0.6607
 8679TIP3    H247453   6.651   0.878  12.165  0.9550  0.8120 -1.6205
 8680TIP3   OH247454   4.520   5.760  13.259  0.4840  0.1243 -0.5935
 8680TIP3    H147455   4.554   5.850  13.261 -0.3876  0.4516  0.6729
 8680TIP3    H247456   4.562   5.717  13.333 -0.4747  0.0289 -0.0846
 8681TIP3   OH247457   0.765   2.567  12.819 -0.5550 -0.1444 -0.4547
 8681TIP3    H147458   0.842   2.551  12.873 -1.4498 -0.1676  0.8707
 8681TIP3    H247459   0.699   2.505  12.852 -1.5241  0.7093 -0.7170
 8682TIP3   OH247460   3.573   1.274   5.900  0.0244 -0.3107  0.2681
 8682TIP3    H147461   3.601   1.268   5.991  4.0598 -2.5802 -0.9142
 8682TIP3    H247462   3.527   1.192   5.883 -2.7426  1.0220  0.6554
 8683TIP3   OH247463   6.440   5.562   1.500  0.2493  0.2278  0.2917
 8683TIP3    H147464   6.509   5.560   1.566  0.3586  0.3955  0.1826
 8683TIP3    H247465   6.390   5.482   1.515  0.7734 -0.1535  0.0420
 8684TIP3   OH247466   2.669   4.396  11.516  0.0637  0.7278 -0.2711
 8684TIP3    H147467   2.635   4.336  11.449  0.4343 -1.0388  1.0492
 8684TIP3    H247468   2.741   4.442  11.472  0.9290 -1.0889 -0.8429
 8685TIP3   OH247469   3.020   5.478  12.487 -0.0643 -0.1009 -0.0686
 8685TIP3    H147470   2.962   5.446  12.556  1.1546 -1.7094  0.2658
 8685TIP3    H247471   3.108   5.453  12.517  0.5269 -0.4771 -2.0033
 8686TIP3   OH247472   4.224   4.828   6.429  0.3103 -0.0021 -0.2310
 8686TIP3    H147473   4.140   4.868   6.405 -0.0503  0.0283  1.0251
 8686TIP3    H247474   4.203   4.771   6.502  1.2161 -0.8241 -0.5928
 8687TIP3   OH247475   2.271   1.743   5.965  0.4448 -0.1377  0.6450
 8687TIP3    H147476   2.267   1.709   6.055 -0.0272 -0.7343  0.4082
 8687TIP3    H247477   2.183   1.727   5.930 -0.1863  2.3747  0.8793
 8688TIP3   OH247478   1.029   2.579   0.725 -0.2504 -0.2832  0.1772
 8688TIP3    H147479   1.036   2.494   0.768  1.8936  0.1431  0.7614
 8688TIP3    H247480   1.119   2.606   0.709 -0.9185  1.2369 -1.3377
 8689TIP3   OH247481   2.941   5.701  14.061  0.2917 -0.6796 -0.6496
 8689TIP3    H147482   2.953   5.625  14.004 -0.1936 -0.8519 -0.5305
 8689TIP3    H247483   2.862   5.680  14.112 -0.3158  0.2609 -1.1886
 8690TIP3   OH247484   4.642   4.894   5.399 -0.5214 -0.0293 -0.0499
 8690TIP3    H147485   4.593   4.939   5.330  1.6069 -0.9628 -2.2972
 8690TIP3    H247486   4.724   4.942   5.407 -0.6401 -0.0315  1.8047
 8691TIP3   OH247487   0.624   4.783   5.812  0.3335 -0.3441  0.0249
 8691TIP3    H147488   0.645   4.695   5.843 -0.1157 -0.2899  0.4900
 8691TIP3    H247489   0.671   4.791   5.729 -1.1397 -1.7174 -0.9882
 8692TIP3   OH247490   5.924   6.719   6.013  0.4298 -0.0596 -0.4916
 8692TIP3    H147491   5.942   6.746   6.103 -1.7592  0.3324 -0.1117
 8692TIP3    H247492   5.955   6.628   6.008 -0.3675 -0.4502  1.0136
 8693TIP3   OH247493   0.884   6.569  16.337 -0.1735 -1.0903  0.5350
 8693TIP3    H147494   0.864   6.620  16.259 -1.0352  1.0024  2.0361
 8693TIP3    H247495   0.923   6.488  16.304  0.8629  0.3453 -1.9821
 8694TIP3   OH247496   5.962   1.305   1.603 -0.4476  0.2400 -0.5945
 8694TIP3    H147497   6.058   1.298   1.607 -0.4039  1.2575  1.3114
 8694TIP3    H247498   5.944   1.327   1.511  1.1578  0.1803 -0.9636
 8695TIP3   OH247499   0.299   5.953   5.217 -0.2078 -0.1635  0.1848
 8695TIP3    H147500   0.334   6.017   5.279  0.6081 -0.9431  0.5513
 8695TIP3    H247501   0.376   5.910   5.182 -0.7808 -2.4660  1.5710
 8696TIP3   OH247502   3.292   6.454   3.075  0.1444 -0.5140 -0.6354
 8696TIP3    H147503   3.355   6.383   3.084 -1.0598 -1.5383 -0.0892
 8696TIP3    H247504   3.283   6.490   3.163 -0.2799 -0.5791 -0.6532
 8697TIP3   OH247505   4.135   2.018   0.188 -0.1940  0.2109  0.4109
 8697TIP3    H147506   4.112   2.107   0.165 -0.9272 -0.1237 -0.2027
 8697TIP3    H247507   4.164   1.978   0.106  0.5851  0.0141  0.7692
 8698TIP3   OH247508   5.850   6.150   0.332  0.5058  0.5463  0.9006
 8698TIP3    H147509   5.923   6.187   0.283  0.4467 -1.5896 -0.9443
 8698TIP3    H247510   5.887   6.127   0.417  1.6771  0.6646  0.4394
 8699TIP3   OH247511   1.680   4.631   0.769 -0.6486 -0.4628  0.4466
 8699TIP3    H147512   1.681   4.699   0.837  2.8230  0.1669 -0.0268
 8699TIP3    H247513   1.729   4.558   0.808 -0.4988 -0.9311 -0.5866
 8700TIP3   OH247514   5.840   5.117  15.582  0.3550 -0.7197 -0.2792
 8700TIP3    H147515   5.758   5.107  15.630 -0.7100 -0.9308 -2.0619
 8700TIP3    H247516   5.825   5.193  15.524  1.7648 -0.1716  0.0378
 8701TIP3   OH247517   4.974   0.625   2.820  0.6471  0.1977 -0.0156
 8701TIP3    H147518   4.993   0.719   2.814  0.0199  0.5679  2.5605
 8701TIP3    H247519   5.058   0.582   2.803  0.9845  1.2050 -1.0111
 8702TIP3   OH247520   1.491   4.251   1.029  0.5218 -0.1475  0.7220
 8702TIP3    H147521   1.488   4.300   1.111 -0.3235 -1.6629  1.6333
 8702TIP3    H247522   1.512   4.317   0.962 -1.4748  1.6159  1.7445
 8703TIP3   OH247523   2.996   3.868  12.204 -0.0032 -0.0027  0.1503
 8703TIP3    H147524   3.011   3.831  12.116  0.0061 -2.3702  1.0710
 8703TIP3    H247525   2.931   3.937  12.190  1.0882  0.7247 -1.9067
 8704TIP3   OH247526   4.118   5.880  14.716  0.0235 -0.3514  0.3255
 8704TIP3    H147527   4.186   5.941  14.745  0.7630 -0.5319 -0.9623
 8704TIP3    H247528   4.156   5.836  14.640 -0.8782 -1.7108  0.6194
 8705TIP3   OH247529   2.560   5.039  15.990 -0.1159  0.0041 -0.8898
 8705TIP3    H147530   2.588   5.130  15.999  0.4254 -0.3471  1.4863
 8705TIP3    H247531   2.587   5.015  15.901  0.4781  1.8783 -1.2704
 8706TIP3   OH247532   6.734   6.237   5.475  0.5482  0.3698  0.3440
 8706TIP3    H147533   6.742   6.288   5.555  1.1882 -0.0439  0.5518
 8706TIP3    H247534   6.728   6.146   5.504  3.1801 -0.0234 -0.1168
 8707TIP3   OH247535   4.519   2.280  13.678  0.4870  0.3653 -0.2375
 8707TIP3    H147536   4.591   2.341  13.661  0.2324  0.6514 -0.2966
 8707TIP3    H247537   4.540   2.243  13.764  0.9775  0.0525 -0.4884
 8708TIP3   OH247538   1.454   1.835   5.342  0.2867 -0.2329 -0.3732
 8708TIP3    H147539   1.409   1.760   5.382  1.6018 -0.8943 -0.0693
 8708TIP3    H247540   1.525   1.795   5.291  1.3010  0.8080  0.1684
 8709TIP3   OH247541   0.823   3.537   2.734  0.2218  0.0215  0.1574
 8709TIP3    H147542   0.901   3.536   2.790  0.5702 -0.7235 -0.3248
 8709TIP3    H247543   0.831   3.619   2.684  0.3427  0.2778  0.5880
 8710TIP3   OH247544   2.525   0.239  15.076 -0.6576  0.3766 -0.2503
 8710TIP3    H147545   2.511   0.295  15.152 -0.0464 -1.0915  1.0038
 8710TIP3    H247546   2.442   0.191  15.066  0.0327 -1.1292  0.9872
 8711TIP3   OH247547   3.893   6.684   1.221  0.3123  0.3023 -0.0888
 8711TIP3    H147548   3.975   6.719   1.256  0.9765 -1.2487  0.0232
 8711TIP3    H247549   3.851   6.641   1.296  0.6605 -1.0921 -0.6481
 8712TIP3   OH247550   3.448   2.395  16.343 -0.4962  0.2110  0.5771
 8712TIP3    H147551   3.458   2.313  16.391  1.3863 -0.3774 -0.7038
 8712TIP3    H247552   3.480   2.462  16.404 -1.0267 -0.1138  1.2316
 8713TIP3   OH247553   1.456   5.777  12.247 -0.2380  0.9483 -0.4255
 8713TIP3    H147554   1.523   5.804  12.185 -1.9331 -1.4320 -3.6041
 8713TIP3    H247555   1.473   5.684  12.261 -1.3359  0.9112  0.7921
 8714TIP3   OH247556   2.399   0.928  16.858  0.2887  0.3381 -0.0453
 8714TIP3    H147557   2.457   0.911  16.932 -0.9558  2.3241  1.4906
 8714TIP3    H247558   2.311   0.923  16.895 -0.3794  1.2389 -1.4425
 8715TIP3   OH247559   4.075   6.574   2.523 -0.2875  0.0082  0.3814
 8715TIP3    H147560   4.089   6.573   2.428 -1.2382 -0.0607  0.2390
 8715TIP3    H247561   3.995   6.625   2.535  0.6338  1.3204  1.2617
 8716TIP3   OH247562   1.806   1.532  13.493  0.5942 -0.5294 -0.1970
 8716TIP3    H147563   1.832   1.479  13.568  0.3284  0.1088  0.3569
 8716TIP3    H247564   1.733   1.585  13.525  0.2966 -0.4380 -0.9855
 8717TIP3   OH247565   3.220   1.145   0.897 -0.4675  0.1775  0.0165
 8717TIP3    H147566   3.314   1.128   0.887 -0.3934  0.9685 -0.8627
 8717TIP3    H247567   3.179   1.060   0.884  0.1204 -0.1405  0.1962
 8718TIP3   OH247568   4.165   2.112  16.168  0.5791 -0.5549  0.3771
 8718TIP3    H147569   4.182   2.143  16.258 -0.1792 -0.5446  0.5188
 8718TIP3    H247570   4.090   2.054  16.176  0.0207  0.0438 -0.3671
 8719TIP3   OH247571   3.234   5.571  17.024  1.0510 -0.3712 -0.2839
 8719TIP3    H147572   3.174   5.641  17.049  0.7672  0.0017 -1.8673
 8719TIP3    H247573   3.266   5.597  16.938 -0.0625 -2.8061 -1.5311
 8720TIP3   OH247574   6.156   5.703  10.596 -0.1289  0.0297 -0.1259
 8720TIP3    H147575   6.233   5.761  10.600 -0.5841  0.6088  2.6142
 8720TIP3    H247576   6.187   5.620  10.633 -0.2400 -0.5252 -1.2515
 8721TIP3   OH247577   2.655   6.666   6.391 -0.0369 -0.8399 -0.1721
 8721TIP3    H147578   2.640   6.608   6.317 -2.0483  0.4815 -0.8929
 8721TIP3    H247579   2.705   6.739   6.355 -1.0438 -0.1806 -0.3016
 8722TIP3   OH247580   3.321   5.175   1.777 -0.1192 -0.1721  0.2630
 8722TIP3    H147581   3.416   5.183   1.778 -0.1987  0.9700  1.2746
 8722TIP3    H247582   3.303   5.104   1.838  0.0706 -0.2240  0.2603
 8723TIP3   OH247583   1.705   5.705   1.491  0.1508 -0.2989  0.1022
 8723TIP3    H147584   1.692   5.653   1.411 -2.6223  0.1795  0.1643
 8723TIP3    H247585   1.719   5.794   1.460  3.8850 -0.7066  0.0532
 8724TIP3   OH247586   4.792   0.739   1.958  0.3800 -0.6713 -0.4644
 8724TIP3    H147587   4.754   0.663   1.913  0.5998 -0.8217 -0.3981
 8724TIP3    H247588   4.886   0.729   1.948  0.4463 -0.8330  0.2170
 8725TIP3   OH247589   0.729   6.173  15.815  0.3848  0.3007  0.1276
 8725TIP3    H147590   0.674   6.149  15.889  1.1810  1.7682  1.2413
 8725TIP3    H247591   0.685   6.248  15.775  0.5528  0.2276 -0.2027
 8726TIP3   OH247592   4.773   2.903  14.753  0.1495  0.1281  0.2656
 8726TIP3    H147593   4.799   2.900  14.844  1.1723 -0.5454 -0.0366
 8726TIP3    H247594   4.814   2.982  14.718  2.1808 -1.1082 -0.2952
 8727TIP3   OH247595   0.577   3.242   0.362  0.2244 -0.6161 -0.0827
 8727TIP3    H147596   0.544   3.180   0.298  1.3700 -1.1064 -0.2190
 8727TIP3    H247597   0.629   3.189   0.423 -2.0363 -0.4353  2.1725
 8728TIP3   OH247598   2.954   3.693   4.611  0.1017  0.0693  0.2278
 8728TIP3    H147599   2.970   3.711   4.703  1.3654  0.1510  0.0155
 8728TIP3    H247600   2.867   3.729   4.593 -0.5350 -0.7444  1.5838
 8729TIP3   OH247601   5.675   3.868  14.060 -0.0737  0.3399  0.5322
 8729TIP3    H147602   5.584   3.836  14.056 -0.1913  0.7102  0.1256
 8729TIP3    H247603   5.674   3.948  14.007  0.0600  1.3987  2.0812
 8730TIP3   OH247604   0.016   3.053  13.224  0.2528  0.0785  0.0229
 8730TIP3    H147605   0.034   3.024  13.134 -1.5250 -0.7129 -0.1065
 8730TIP3    H247606   0.064   2.992  13.280  1.8451  0.9149 -0.3413
 8731TIP3   OH247607   2.765   4.732   0.656  0.0377 -0.2837 -0.2585
 8731TIP3    H147608   2.751   4.671   0.583  0.6908 -0.0895 -0.5590
 8731TIP3    H247609   2.838   4.787   0.626 -1.2253  1.3494 -0.4587
 8732TIP3   OH247610   3.572   4.320  12.158 -0.4204  0.4575  0.1155
 8732TIP3    H147611   3.641   4.336  12.093  0.2013  0.7101  0.8308
 8732TIP3    H247612   3.540   4.232  12.137  0.9095 -0.1439  0.4661
 8733TIP3   OH247613   3.257   1.369  16.455  0.3385 -0.1725 -0.4524
 8733TIP3    H147614   3.247   1.284  16.498  3.3873 -0.5408 -0.2298
 8733TIP3    H247615   3.289   1.428  16.524 -1.2787  1.0656 -0.7129
 8734TIP3   OH247616   5.210   1.279  12.083  0.5058  0.2131 -0.0662
 8734TIP3    H147617   5.207   1.301  12.176  0.9422 -0.6656  0.1597
 8734TIP3    H247618   5.294   1.314  12.053  1.0492 -0.8092  0.2201
 8735TIP3   OH247619   2.785   2.054  14.489  0.4274 -0.4731 -1.0442
 8735TIP3    H147620   2.796   1.959  14.500 -2.0162 -0.7654 -0.5709
 8735TIP3    H247621   2.698   2.064  14.451  1.0617  1.5709 -2.1063
 8736TIP3   OH247622   1.502   5.364  17.125  0.0787 -0.7311 -0.2429
 8736TIP3    H147623   1.507   5.435  17.062 -0.6838  0.1519  0.6485
 8736TIP3    H247624   1.593   5.341  17.143  0.3765  0.6051  0.0789
 8737TIP3   OH247625   3.529   3.612   1.740 -0.1475 -0.7202  0.0865
 8737TIP3    H147626   3.451   3.604   1.795  0.2620 -0.3772  0.7247
 8737TIP3    H247627   3.596   3.647   1.798  0.2186 -0.0848 -0.7034
 8738TIP3   OH247628   5.929   4.731   5.289  0.2786  0.1223  0.3901
 8738TIP3    H147629   5.997   4.760   5.228 -0.7105 -0.2788 -0.9581
 8738TIP3    H247630   5.969   4.658   5.337  0.6693 -0.4196 -0.7173
 8739TIP3   OH247631   1.952   1.537   2.588  0.5634 -0.0274  0.4661
 8739TIP3    H147632   1.903   1.501   2.661  1.9873 -1.6079  0.7024
 8739TIP3    H247633   1.887   1.551   2.519 -0.5283 -0.0336  1.4813
 8740TIP3   OH247634   1.064   0.521  12.783 -0.6255  0.2597 -1.0053
 8740TIP3    H147635   0.989   0.576  12.806 -0.8307  0.4591 -2.1027
 8740TIP3    H247636   1.128   0.582  12.747 -0.3920 -0.0619 -1.1356
 8741TIP3   OH247637   5.695   0.398   3.878 -0.3459 -0.1682  0.4882
 8741TIP3    H147638   5.775   0.373   3.924 -2.1266  0.1709  4.0594
 8741TIP3    H247639   5.652   0.314   3.858 -0.3831 -0.2717  1.0081
 8742TIP3   OH247640   5.231   0.388  13.348 -0.1392  0.1286  0.1154
 8742TIP3    H147641   5.190   0.305  13.370  0.8905 -0.3083  0.4642
 8742TIP3    H247642   5.192   0.413  13.264  0.4834 -1.3758 -0.6593
 8743TIP3   OH247643   6.318   2.395   2.849 -0.1105 -0.5908  0.4560
 8743TIP3    H147644   6.320   2.394   2.753 -0.8608  1.5865  0.3607
 8743TIP3    H247645   6.286   2.308   2.873 -0.9450 -0.8177 -1.3118
 8744TIP3   OH247646   4.771   1.627  16.796 -0.2080  0.2693  0.3734
 8744TIP3    H147647   4.688   1.584  16.776 -0.0151  0.4761 -1.0156
 8744TIP3    H247648   4.822   1.561  16.842  0.0422 -1.0131 -1.6021
 8745TIP3   OH247649   3.698   4.110   3.716  0.1656 -0.1630 -0.2184
 8745TIP3    H147650   3.656   4.148   3.638 -3.0340  1.0420  1.9049
 8745TIP3    H247651   3.700   4.181   3.779 -1.7519 -2.1899  2.3454
 8746TIP3   OH247652   4.242   3.686  15.989  0.4279  0.5208  0.0133
 8746TIP3    H147653   4.170   3.713  15.932  1.7957  1.7905 -1.1716
 8746TIP3    H247654   4.204   3.616  16.043 -1.2863  0.1816 -1.5276
 8747TIP3   OH247655   0.330   5.523   4.991 -0.1107 -0.2132  0.2262
 8747TIP3    H147656   0.312   5.612   4.960 -1.6726 -0.3188  0.7364
 8747TIP3    H247657   0.278   5.514   5.070  0.1499 -1.5305  0.2775
 8748TIP3   OH247658   5.544   6.619   1.103  0.1541 -0.3267 -0.2683
 8748TIP3    H147659   5.611   6.552   1.119  1.6711  0.4649 -2.7890
 8748TIP3    H247660   5.592   6.701   1.098 -1.5552  0.8896  1.7155
 8749TIP3   OH247661   2.930   5.628  17.099  0.1713  0.5592  0.3740
 8749TIP3    H147662   3.000   5.692  17.088  3.1496 -1.9471  2.7030
 8749TIP3    H247663   2.891   5.649  17.184  2.4352 -1.5340  2.0902
 8750TIP3   OH247664   4.923   4.908  15.378 -0.1629 -0.1736  0.2610
 8750TIP3    H147665   4.908   4.959  15.458  0.3260  0.1370  0.1589
 8750TIP3    H247666   5.018   4.895  15.375  0.0853  1.5999 -1.3459
 8751TIP3   OH247667   1.273   2.545   4.043  0.5807  0.5888 -0.1984
 8751TIP3    H147668   1.311   2.467   4.002  1.0328  1.5812 -1.7391
 8751TIP3    H247669   1.345   2.608   4.048  1.1138 -0.0624  3.9850
 8752TIP3   OH247670   2.610   1.898  11.726  0.3731 -0.2850 -0.2613
 8752TIP3    H147671   2.534   1.863  11.680 -0.3322 -3.1263  2.6736
 8752TIP3    H247672   2.577   1.973  11.775 -0.1778 -0.5434 -0.2354
 8753TIP3   OH247673   2.038   5.593   0.706  0.0954 -0.2157  0.2140
 8753TIP3    H147674   1.955   5.554   0.732 -0.7457  1.3340 -0.0024
 8753TIP3    H247675   2.022   5.688   0.711  1.2869  0.1200 -1.5672
 8754TIP3   OH247676   4.269   3.146   1.772 -0.3978  0.3437  0.2608
 8754TIP3    H147677   4.277   3.116   1.863  0.5146  0.8215  0.3538
 8754TIP3    H247678   4.346   3.110   1.728 -0.9130 -0.0072 -0.3723
 8755TIP3   OH247679   2.512   1.538   5.759  0.5191 -0.2573 -0.1725
 8755TIP3    H147680   2.486   1.484   5.684 -0.4900 -0.6636  0.4453
 8755TIP3    H247681   2.443   1.524   5.823 -0.6643  3.0040 -0.5551
 8756TIP3   OH247682   3.354   1.713   6.036 -0.0198  0.0484 -0.2933
 8756TIP3    H147683   3.318   1.790   6.080  0.0784 -0.5648  0.9298
 8756TIP3    H247684   3.449   1.722   6.045 -0.0240 -0.4732  0.3500
 8757TIP3   OH247685   0.100   3.352  14.519 -0.3603  0.1231  0.3752
 8757TIP3    H147686   0.110   3.330  14.426  0.3284  1.2842  0.1451
 8757TIP3    H247687   0.179   3.403  14.540 -0.9171  0.6123  1.3678
 8758TIP3   OH247688   6.693   0.229   1.927 -0.0938  0.3767 -0.6302
 8758TIP3    H147689   6.753   0.297   1.896  0.5430  0.5749  0.9653
 8758TIP3    H247690   6.650   0.268   2.004  0.8369 -1.2528  0.7779
 8759TIP3   OH247691   4.662   1.061  16.883  0.3717  0.0266  0.5103
 8759TIP3    H147692   4.677   1.079  16.790 -2.0411 -0.7794 -0.1254
 8759TIP3    H247693   4.675   0.966  16.891  1.0345  0.1597  1.1306
 8760TIP3   OH247694   5.371   3.104   3.516  0.3122  0.1087 -0.1441
 8760TIP3    H147695   5.464   3.086   3.504  0.5158  0.6737  0.5332
 8760TIP3    H247696   5.328   3.020   3.497  1.1541 -0.8770  2.0274
 8761TIP3   OH247697   1.574   6.649  13.897 -0.0766 -0.2914 -0.1365
 8761TIP3    H147698   1.591   6.598  13.976  0.9117 -1.5902 -1.1324
 8761TIP3    H247699   1.655   6.698  13.883  0.9217 -2.2411 -1.8325
 8762TIP3   OH247700   5.863   0.629  12.897  0.2872  0.3461  0.3746
 8762TIP3    H147701   5.837   0.552  12.846  0.4731  0.3538  0.2691
 8762TIP3    H247702   5.794   0.693  12.880  0.4061  0.3884  0.0411
 8763TIP3   OH247703   0.832   5.369   3.978 -0.2958  0.2377  0.2010
 8763TIP3    H147704   0.791   5.452   3.955 -1.5842 -0.1932  0.8349
 8763TIP3    H247705   0.760   5.306   3.977  0.5110 -0.7172  0.5487
 8764TIP3   OH247706   4.303   5.061  14.986  0.6260 -0.7660 -0.5597
 8764TIP3    H147707   4.281   5.143  14.941 -0.6663 -0.1051  1.1849
 8764TIP3    H247708   4.391   5.040  14.955  1.4701  1.8887 -0.2214
 8765TIP3   OH247709   5.508   2.479  14.288  0.1470  0.0172 -0.3111
 8765TIP3    H147710   5.415   2.503  14.289  0.0239 -0.4097 -0.8229
 8765TIP3    H247711   5.515   2.409  14.352 -0.0654 -0.5514 -0.8917
 8766TIP3   OH247712   3.528   3.728  16.480 -0.1606 -0.2441 -0.1629
 8766TIP3    H147713   3.496   3.727  16.571  1.1900 -1.1920  0.3464
 8766TIP3    H247714   3.623   3.742  16.488 -0.1813  0.8649 -1.5134
 8767TIP3   OH247715   0.043   5.696   2.293  0.1379  0.0533 -0.3232
 8767TIP3    H147716   0.124   5.746   2.282  0.2187  0.0754  0.3213
 8767TIP3    H247717  -0.020   5.740   2.236  0.4885  0.2442 -0.5668
 8768TIP3   OH247718   0.628   1.491  13.432  0.3587 -0.3641 -0.0374
 8768TIP3    H147719   0.684   1.413  13.430 -0.0779 -0.6712 -0.6510
 8768TIP3    H247720   0.605   1.502  13.524 -0.8016 -1.8615 -0.1071
 8769TIP3   OH247721   0.968   0.063   4.548 -0.7920  0.3092 -0.3893
 8769TIP3    H147722   0.876   0.089   4.548 -0.9473 -0.2337 -0.1831
 8769TIP3    H247723   1.014   0.138   4.584 -1.3859 -0.2537  1.6376
 8770TIP3   OH247724   5.337   5.658  15.187 -0.2751  0.7580  0.1059
 8770TIP3    H147725   5.349   5.616  15.272  2.0960 -1.2823 -1.0769
 8770TIP3    H247726   5.417   5.636  15.139 -2.2668  0.2421 -3.2806
 8771TIP3   OH247727   0.418   4.931  13.137  0.0709 -0.4368 -0.7346
 8771TIP3    H147728   0.436   4.878  13.214  2.3320  0.4796 -0.5532
 8771TIP3    H247729   0.366   5.004  13.170 -1.1092 -1.3340 -0.5712
 8772TIP3   OH247730   5.743   0.015   1.379  0.0967  0.1815  0.1402
 8772TIP3    H147731   5.782  -0.064   1.341  0.2067  1.1174 -1.8093
 8772TIP3    H247732   5.725  -0.009   1.470 -0.6331 -2.3531 -0.5917
 8773TIP3   OH247733   3.772   3.616  15.534  0.0132 -0.1026 -0.2233
 8773TIP3    H147734   3.689   3.650  15.501 -0.6613  0.8310  2.2360
 8773TIP3    H247735   3.832   3.690  15.531 -0.3145  0.2711  1.3541
 8774TIP3   OH247736   4.517   1.258   3.419  0.5886  0.7687 -0.6087
 8774TIP3    H147737   4.581   1.211   3.365  0.9527  0.5994 -0.0429
 8774TIP3    H247738   4.521   1.349   3.387  1.4429  0.8553 -0.2924
 8775TIP3   OH247739   1.865   2.188   2.500  0.7271 -0.6082 -0.7950
 8775TIP3    H147740   1.912   2.106   2.487  0.7124 -0.7084 -0.2282
 8775TIP3    H247741   1.776   2.161   2.524  1.4809 -0.5022  2.4686
 8776TIP3   OH247742   1.985   0.955   2.609 -0.3331  0.2625 -0.0401
 8776TIP3    H147743   1.929   0.944   2.686 -0.1827  0.5458  0.1142
 8776TIP3    H247744   1.925   0.971   2.537 -0.5676 -1.5609 -0.2868
 8777TIP3   OH247745   0.384   1.945   4.143  0.0955  0.4341 -0.5300
 8777TIP3    H147746   0.416   1.926   4.231 -1.7280  0.1386  0.1177
 8777TIP3    H247747   0.397   2.039   4.132 -1.8121  0.9485  1.0447
 8778TIP3   OH247748   3.860   1.073  13.186  0.4040 -0.3446  0.6004
 8778TIP3    H147749   3.906   1.069  13.102 -1.1141 -2.3532 -0.2298
 8778TIP3    H247750   3.845   1.166  13.201 -0.0995  0.0510 -1.8715
 8779TIP3   OH247751   1.154   2.397   3.077 -0.3305 -0.0192 -0.0158
 8779TIP3    H147752   1.162   2.350   2.995 -0.7503 -1.5244  0.7673
 8779TIP3    H247753   1.141   2.489   3.052  1.6115 -0.1211 -1.5617
 8780TIP3   OH247754   2.219   0.069   5.870  0.2624 -0.2469  0.7276
 8780TIP3    H147755   2.215  -0.020   5.836 -0.2836  0.1593 -0.3250
 8780TIP3    H247756   2.139   0.078   5.922  0.4268 -0.4383  1.0144
 8781TIP3   OH247757   0.466   2.010   4.440 -0.0617  0.3297  0.3854
 8781TIP3    H147758   0.436   1.939   4.497  0.7527  3.0548  4.6754
 8781TIP3    H247759   0.389   2.066   4.428 -0.5656 -0.8242 -2.5163
 8782TIP3   OH247760   1.883   3.777  13.322 -0.3315  0.0754 -0.4253
 8782TIP3    H147761   1.897   3.683  13.325  0.2685  0.1248 -1.3573
 8782TIP3    H247762   1.942   3.813  13.388  0.8861 -0.0560 -1.4178
 8783TIP3   OH247763   2.499   1.192   0.374 -0.0805 -0.5919  0.2106
 8783TIP3    H147764   2.464   1.259   0.315 -0.5464 -0.0520  1.0836
 8783TIP3    H247765   2.504   1.235   0.459 -1.3719 -1.9469  1.0127
 8784TIP3   OH247766   0.438   1.224  16.401 -0.0265 -0.2492  0.5653
 8784TIP3    H147767   0.379   1.175  16.458  1.5388  0.1954  2.6972
 8784TIP3    H247768   0.512   1.165  16.387  0.2137  0.1537  0.1124
 8785TIP3   OH247769   2.154   1.477   2.145  0.0583 -0.0433  0.5480
 8785TIP3    H147770   2.081   1.444   2.198 -0.3337  0.8290  0.5715
 8785TIP3    H247771   2.212   1.519   2.209 -1.0196  2.1160  0.2236
 8786TIP3   OH247772   3.669   0.587   0.874  0.1588 -0.3865 -0.4734
 8786TIP3    H147773   3.649   0.674   0.907 -0.9043 -0.7613 -0.0512
 8786TIP3    H247774   3.672   0.597   0.779 -1.4977 -0.1437 -0.5416
 8787TIP3   OH247775   6.287   3.910   4.924  0.9164 -0.2859  0.1632
 8787TIP3    H147776   6.218   3.849   4.900  0.0533  0.8464 -0.3199
 8787TIP3    H247777   6.325   3.938   4.841  1.8423 -0.7549  0.4167
 8788TIP3   OH247778   1.436   2.810  11.546 -0.1834  0.3002  0.5520
 8788TIP3    H147779   1.446   2.871  11.473  2.9808 -1.1357 -0.3920
 8788TIP3    H247780   1.491   2.845  11.616 -3.5379  1.9062  2.6310
 8789TIP3   OH247781   0.019   3.812   3.398  0.3025  0.5820 -0.1372
 8789TIP3    H147782   0.053   3.743   3.455 -0.7517  0.2187  0.0738
 8789TIP3    H247783  -0.072   3.825   3.427 -0.0003  0.9676 -1.2007
 8790TIP3   OH247784   2.900   1.879   6.369 -0.4506 -0.2478  0.7857
 8790TIP3    H147785   2.870   1.968   6.355  0.4087 -0.0683 -0.0088
 8790TIP3    H247786   2.821   1.830   6.389 -0.6858  1.1389  3.7808
 8791TIP3   OH247787   6.537   5.339  12.900 -0.3659 -0.5217 -0.1982
 8791TIP3    H147788   6.526   5.331  12.995 -1.1553 -0.3552 -0.2741
 8791TIP3    H247789   6.469   5.282  12.863 -0.1854 -0.4361 -0.6659
 8792TIP3   OH247790   0.331   2.862   4.846 -0.1606  0.0645  0.1625
 8792TIP3    H147791   0.351   2.773   4.875 -0.1445  0.2201  0.6385
 8792TIP3    H247792   0.407   2.913   4.870  1.1674 -0.3200 -2.7987
 8793TIP3   OH247793   0.235   4.754   6.234 -0.2732 -0.1262 -0.2393
 8793TIP3    H147794   0.183   4.682   6.197 -0.6149 -1.6412  2.8075
 8793TIP3    H247795   0.313   4.711   6.269  0.9844  1.4939 -0.9202
 8794TIP3   OH247796   3.767   0.670   1.858  0.8298  0.2754  0.1592
 8794TIP3    H147797   3.797   0.698   1.772  0.6143  0.7636  0.2419
 8794TIP3    H247798   3.820   0.593   1.878  0.2790 -0.3676 -0.7872
 8795TIP3   OH247799   4.156   1.792   6.118  0.3058  0.2289  0.1045
 8795TIP3    H147800   4.249   1.772   6.126  0.2689 -0.5395 -1.1024
 8795TIP3    H247801   4.147   1.881   6.153  1.4884  0.3139  0.2273
 8796TIP3   OH247802   6.296   5.560  14.282  0.9110  0.2795  0.1601
 8796TIP3    H147803   6.358   5.603  14.222  0.8329  0.8387  0.4759
 8796TIP3    H247804   6.338   5.565  14.368  0.9020 -0.2883  0.2013
 8797TIP3   OH247805   3.010   2.155  16.759 -0.2078 -0.0472 -0.1252
 8797TIP3    H147806   3.051   2.239  16.779 -0.7667 -0.2109  1.9884
 8797TIP3    H247807   2.916   2.173  16.762 -0.3846 -1.0375  2.1386
 8798TIP3   OH247808   1.303   6.341  14.503  0.5118  0.1568  0.4804
 8798TIP3    H147809   1.234   6.280  14.478  1.3352 -0.7646  0.4195
 8798TIP3    H247810   1.261   6.427  14.498 -0.9721 -0.4447  1.5638
 8799TIP3   OH247811   2.918   4.894   3.460 -0.2016  0.0969  0.8084
 8799TIP3    H147812   2.939   4.801   3.476  2.1993  0.4235 -0.1381
 8799TIP3    H247813   2.980   4.922   3.393 -1.8153  2.0614  0.0355
 8800TIP3   OH247814   4.255   3.354  14.538 -1.0528 -0.8218 -0.0605
 8800TIP3    H147815   4.251   3.423  14.604 -3.4276  1.2659 -2.1224
 8800TIP3    H247816   4.168   3.315  14.539 -0.6792 -1.7076 -0.9643
 8801TIP3   OH247817   0.968   3.049   1.223 -0.0302  0.2473  0.3031
 8801TIP3    H147818   0.977   3.128   1.275 -1.4262  0.7186 -0.1431
 8801TIP3    H247819   1.047   2.998   1.243  0.0460  0.9546  1.9118
 8802TIP3   OH247820   1.636   6.667  15.351 -0.2492 -0.0363  0.1601
 8802TIP3    H147821   1.606   6.606  15.419 -0.6645  0.5091  0.4818
 8802TIP3    H247822   1.664   6.744  15.400  1.8308 -0.5624 -0.1259
 8803TIP3   OH247823   2.503   5.327  12.352  0.0845  0.0703  0.3832
 8803TIP3    H147824   2.510   5.233  12.335 -0.2589 -0.2924  2.0361
 8803TIP3    H247825   2.594   5.355  12.365  0.1585 -0.1146  0.2836
 8804TIP3   OH247826   0.084   6.442   2.077 -0.3125 -0.0505  0.3399
 8804TIP3    H147827  -0.008   6.414   2.082 -0.4535  0.3856  0.1897
 8804TIP3    H247828   0.115   6.408   1.992 -0.6276  0.6668 -0.0710
 8805TIP3   OH247829   5.981   6.642  10.741  0.4136 -0.5813  0.5574
 8805TIP3    H147830   5.890   6.666  10.761  0.4391 -1.3431  1.6876
 8805TIP3    H247831   6.018   6.721  10.703 -0.5590 -0.0623  0.6410
 8806TIP3   OH247832   3.707   6.006  16.751 -0.3317  0.2656  0.5733
 8806TIP3    H147833   3.735   6.072  16.815 -0.5901  1.4674 -0.5116
 8806TIP3    H247834   3.631   6.045  16.708 -0.5418 -0.7896 -0.0350
 8807TIP3   OH247835   1.170   2.059   6.015 -0.4980  0.0803 -0.3196
 8807TIP3    H147836   1.183   2.122   6.086 -0.7766  0.7281 -0.8362
 8807TIP3    H247837   1.156   1.976   6.060 -0.3770  0.4246  0.3781
 8808TIP3   OH247838   5.697   2.254   5.235 -0.1589  0.1583  0.4901
 8808TIP3    H147839   5.714   2.344   5.264 -0.8831  0.5247 -0.2015
 8808TIP3    H247840   5.753   2.241   5.159  1.7761 -0.8219  1.9818
 8809TIP3   OH247841   3.597   3.752   1.060  0.2307 -0.5124 -0.0745
 8809TIP3    H147842   3.657   3.679   1.073  0.7619 -0.2000 -0.6911
 8809TIP3    H247843   3.641   3.808   0.995  0.2310  0.7911  1.0114
 8810TIP3   OH247844   1.190   4.005   0.701  0.1685 -0.7080  0.2912
 8810TIP3    H147845   1.223   3.972   0.784 -0.9132 -1.4733  0.4357
 8810TIP3    H247846   1.117   4.062   0.725  0.0202 -0.7229 -0.1101
 8811TIP3   OH247847   5.573   5.651   2.646 -0.3552  0.4215 -0.0918
 8811TIP3    H147848   5.525   5.603   2.579  0.3654 -0.5960  0.0957
 8811TIP3    H247849   5.570   5.742   2.617 -2.1502  0.3510 -0.2105
 8812TIP3   OH247850   0.574   0.490  12.057 -0.0258 -0.0711 -0.2721
 8812TIP3    H147851   0.554   0.583  12.069  1.8642  0.7086 -2.2890
 8812TIP3    H247852   0.607   0.461  12.141  0.2871  1.3825  0.1327
 8813TIP3   OH247853   5.023   0.489  14.960 -0.1682 -0.2131  0.0594
 8813TIP3    H147854   5.112   0.461  14.978 -0.8096 -1.2546  1.8777
 8813TIP3    H247855   5.015   0.574  15.005 -0.2313 -0.3583  0.3258
 8814TIP3   OH247856   3.650   2.916  14.941  0.1083  0.1586  0.2466
 8814TIP3    H147857   3.621   2.918  14.850  2.1423 -0.2762 -0.4702
 8814TIP3    H247858   3.632   3.004  14.974  0.3461  0.6625 -0.9253
 8815TIP3   OH247859   6.687   2.228   3.925  0.1686 -0.1190  0.5209
 8815TIP3    H147860   6.735   2.237   3.843  1.0175 -0.9934  0.9029
 8815TIP3    H247861   6.753   2.203   3.989 -0.5149  0.3708  1.4403
 8816TIP3   OH247862   1.032   1.528   0.530 -0.3805 -0.2400 -0.8515
 8816TIP3    H147863   1.115   1.566   0.503 -0.6044 -0.4729 -1.8965
 8816TIP3    H247864   1.028   1.444   0.484  0.0716 -1.5405  1.3310
 8817TIP3   OH247865   6.669   0.540  11.577 -0.0421 -0.1613  0.3380
 8817TIP3    H147866   6.718   0.597  11.518 -0.7316  0.4826  0.3732
 8817TIP3    H247867   6.706   0.557  11.663  0.0356 -0.0819  0.2889
 8818TIP3   OH247868   4.848   3.638  11.627 -0.4521  0.2891  0.0393
 8818TIP3    H147869   4.934   3.609  11.595 -0.1853  1.4219 -0.3142
 8818TIP3    H247870   4.823   3.571  11.691 -0.8490 -1.8800 -2.2187
 8819TIP3   OH247871   4.042   1.285  16.368 -0.5512  0.4360 -0.2532
 8819TIP3    H147872   3.975   1.306  16.433 -0.9195 -0.2018 -0.4218
 8819TIP3    H247873   3.993   1.258  16.290 -0.1057  0.5963 -0.5974
 8820TIP3   OH247874   6.688   1.976   1.775 -0.1372 -0.4725  0.2995
 8820TIP3    H147875   6.684   2.071   1.765 -0.4548 -0.4680  0.4615
 8820TIP3    H247876   6.607   1.953   1.822 -1.0944 -1.0396 -1.5123
 8821TIP3   OH247877   2.859   3.622   0.076 -0.5513  0.4152  0.7166
 8821TIP3    H147878   2.927   3.626   0.143 -0.1633 -1.0298  0.4373
 8821TIP3    H247879   2.802   3.696   0.096  2.1684  2.9805 -0.2536
 8822TIP3   OH247880   5.735   2.150  11.108 -0.1691  0.5139 -0.4179
 8822TIP3    H147881   5.813   2.112  11.147 -0.2507  0.5520 -0.2143
 8822TIP3    H247882   5.734   2.117  11.018 -0.5492 -0.4365 -0.0769
 8823TIP3   OH247883   2.481   1.517  17.172 -0.4840 -0.0146 -0.0643
 8823TIP3    H147884   2.472   1.432  17.130  1.6992 -1.0610  1.3550
 8823TIP3    H247885   2.407   1.523  17.232 -0.3722 -1.2046  0.2157
 8824TIP3   OH247886   0.680   3.584  14.203  0.1496  0.9251 -0.5097
 8824TIP3    H147887   0.690   3.511  14.264  3.1732 -1.4012 -3.3868
 8824TIP3    H247888   0.609   3.558  14.145  0.7115  0.5560 -1.0559
 8825TIP3   OH247889   4.094   5.370   5.521  0.8281  0.4952 -0.3291
 8825TIP3    H147890   4.147   5.428   5.575 -0.0887 -1.3876  2.8370
 8825TIP3    H247891   4.156   5.305   5.488  1.0143  0.0992  0.7647
 8826TIP3   OH247892   5.817   3.118   4.674 -0.3651  0.4902  0.1166
 8826TIP3    H147893   5.874   3.041   4.672 -2.0937 -0.8549 -2.2709
 8826TIP3    H247894   5.867   3.184   4.722  2.9259 -0.7662 -1.3337
 8827TIP3   OH247895   4.374   0.880  12.680 -0.1477  0.5555  0.0862
 8827TIP3    H147896   4.398   0.948  12.744  2.2663  0.6203 -0.8131
 8827TIP3    H247897   4.369   0.800  12.732 -0.4611  0.9709  0.7209
 8828TIP3   OH247898   4.060   3.906   3.711 -0.5267 -0.2317 -0.0068
 8828TIP3    H147899   4.067   3.907   3.616 -0.8129 -0.6757 -0.0376
 8828TIP3    H247900   4.116   3.832   3.738 -0.5592 -0.1964  0.1587
 8829TIP3   OH247901   1.983   6.627   5.612  0.6461 -0.3345 -0.4286
 8829TIP3    H147902   2.071   6.629   5.574  1.4242  2.5717  1.2365
 8829TIP3    H247903   1.998   6.603   5.704 -0.1998  0.6818 -0.0106
 8830TIP3   OH247904   3.815   4.522  14.972 -0.4880  0.0613  0.0132
 8830TIP3    H147905   3.816   4.614  14.998  1.5376  0.1329 -0.1633
 8830TIP3    H247906   3.870   4.519  14.893 -0.8797 -1.2278 -0.2259
 8831TIP3   OH247907   0.558   2.719  16.461  0.0723  0.5348 -0.0788
 8831TIP3    H147908   0.650   2.716  16.434  0.2569  1.0312  0.4762
 8831TIP3    H247909   0.525   2.802  16.428 -0.1545  0.4011 -0.1940
 8832TIP3   OH247910   4.238   1.006  11.802  0.2255  0.4240  0.1071
 8832TIP3    H147911   4.304   0.983  11.867  1.0396 -1.5871 -1.3326
 8832TIP3    H247912   4.156   0.969  11.837  0.7342 -1.0056 -0.1515
 8833TIP3   OH247913   6.167   3.112  11.300 -0.2720 -0.3435 -0.0666
 8833TIP3    H147914   6.116   3.190  11.280 -0.8508 -0.9737 -1.1403
 8833TIP3    H247915   6.213   3.133  11.381 -0.3585  1.1244 -0.3800
 8834TIP3   OH247916   1.915   2.759   2.282 -0.7350  0.2343  0.4056
 8834TIP3    H147917   1.850   2.805   2.228 -1.7704 -0.8253  0.7175
 8834TIP3    H247918   1.962   2.702   2.220 -1.4346 -0.4447  0.4866
 8835TIP3   OH247919   0.027   0.965   2.789 -0.0162  0.1134  0.1635
 8835TIP3    H147920   0.064   0.878   2.805  1.2025  0.5787 -0.0074
 8835TIP3    H247921   0.079   1.000   2.717  0.3704  1.5007  1.0955
 8836TIP3   OH247922   5.496   0.242  15.467  0.2027  0.1632  0.4330
 8836TIP3    H147923   5.542   0.313  15.511  0.1049  1.1411 -0.9657
 8836TIP3    H247924   5.468   0.184  15.537  0.4382  1.4203  1.6049
 8837TIP3   OH247925   3.636   5.813  15.970 -0.0376  0.1839 -0.5569
 8837TIP3    H147926   3.589   5.854  16.042  0.0367 -1.6316  0.5702
 8837TIP3    H247927   3.714   5.868  15.959  0.5982 -0.2046  1.6140
 8838TIP3   OH247928   4.364   5.013  13.865 -0.0677  0.4412 -0.2248
 8838TIP3    H147929   4.449   4.983  13.899  0.3302  2.3572  0.5947
 8838TIP3    H247930   4.371   5.000  13.770  0.4458 -1.0434 -0.0090
 8839TIP3   OH247931   6.766   3.924   1.687  0.3515  1.2519  0.1556
 8839TIP3    H147932   6.804   3.897   1.771  0.0611  0.0916 -0.0577
 8839TIP3    H247933   6.839   3.919   1.625 -0.0671 -0.9359 -0.2462
 8840TIP3   OH247934   3.459   1.713  14.862 -0.2283  0.3682  0.3662
 8840TIP3    H147935   3.372   1.687  14.891 -0.2859  1.0109  0.8065
 8840TIP3    H247936   3.475   1.796  14.908  0.6388  0.2174  0.3388
 8841TIP3   OH247937   1.377   6.648  15.691 -0.0262  0.5291  0.4403
 8841TIP3    H147938   1.375   6.554  15.711  1.5283  0.7060  1.5990
 8841TIP3    H247939   1.427   6.655  15.610 -1.1296  0.2862 -0.2785
 8842TIP3   OH247940   5.216   4.032   2.516  0.0806  0.1725  0.5135
 8842TIP3    H147941   5.184   4.108   2.564  2.2096  0.3179  1.8350
 8842TIP3    H247942   5.169   3.958   2.555 -0.0936  0.5536  1.0426
 8843TIP3   OH247943   1.465   1.490   2.043  0.0255 -0.1211 -0.2334
 8843TIP3    H147944   1.466   1.437   2.123  1.1179  0.3816  0.1057
 8843TIP3    H247945   1.523   1.444   1.983 -0.5612 -0.3394 -0.6374
 8844TIP3   OH247946   1.488   3.208  14.083  0.5570  0.0255  0.3960
 8844TIP3    H147947   1.543   3.129  14.086 -0.9909 -1.0902  2.6705
 8844TIP3    H247948   1.436   3.198  14.004  1.5783 -0.3667 -0.2434
 8845TIP3   OH247949   5.288   6.454   4.518  0.3749 -0.1895  0.1701
 8845TIP3    H147950   5.259   6.517   4.583  0.1875  1.0472 -1.0650
 8845TIP3    H247951   5.378   6.478   4.499  0.0831  0.1923 -0.8249
 8846TIP3   OH247952   6.593   4.853   2.660  0.4498 -0.3118 -0.0809
 8846TIP3    H147953   6.684   4.836   2.635  2.0352  0.2871  4.3237
 8846TIP3    H247954   6.599   4.927   2.720 -2.9630 -0.3520  0.4768
 8847TIP3   OH247955   1.111   6.111  11.730 -0.3638  0.3177  0.0188
 8847TIP3    H147956   1.034   6.144  11.685 -0.7879 -0.6118  0.0217
 8847TIP3    H247957   1.176   6.180  11.722 -0.6529  0.4520 -1.4139
 8848TIP3   OH247958   5.557   6.494   0.805 -0.6677 -0.5788  0.0905
 8848TIP3    H147959   5.639   6.467   0.763 -1.7440 -1.5372 -1.5006
 8848TIP3    H247960   5.583   6.563   0.867  1.4860 -1.6854  0.5239
 8849TIP3   OH247961   2.277   0.022   3.686  0.2428  0.1597 -0.6173
 8849TIP3    H147962   2.363  -0.009   3.714 -0.8522 -3.7322 -0.9423
 8849TIP3    H247963   2.258  -0.028   3.606 -2.2359  1.0211 -0.6636
 8850TIP3   OH247964   1.787   3.531  11.032  0.1178 -0.3643 -0.2093
 8850TIP3    H147965   1.801   3.458  10.971  0.9648  0.3460 -0.8986
 8850TIP3    H247966   1.697   3.519  11.063 -0.2632 -0.8781 -1.4232
 8851TIP3   OH247967   2.326   1.481  16.548 -0.1723 -0.0328 -0.0595
 8851TIP3    H147968   2.350   1.573  16.562  1.6158 -0.5811  0.6841
 8851TIP3    H247969   2.286   1.454  16.631  1.7403 -0.6253  0.7246
 8852TIP3   OH247970   1.343   4.499  17.015 -0.1595 -0.0855 -0.1594
 8852TIP3    H147971   1.255   4.466  17.002  0.8024 -2.7350 -0.4431
 8852TIP3    H247972   1.341   4.588  16.978 -2.3589 -0.5194 -1.2388
 8853TIP3   OH247973   5.734   0.385  15.051 -0.3289 -0.0327  0.5391
 8853TIP3    H147974   5.698   0.314  15.105 -0.9714  0.9606  1.4551
 8853TIP3    H247975   5.758   0.342  14.969 -1.4061 -1.1875  0.7859
 8854TIP3   OH247976   2.879   4.633   5.668  0.1080 -0.3585  0.8327
 8854TIP3    H147977   2.921   4.714   5.695  0.6896  0.0071 -1.0182
 8854TIP3    H247978   2.785   4.649   5.680  0.3271 -0.3484  2.8212
 8855TIP3   OH247979   1.996   1.321  16.615 -0.3841  0.7584  0.2355
 8855TIP3    H147980   1.946   1.245  16.588  0.6604  0.4726 -0.9467
 8855TIP3    H247981   2.050   1.290  16.687 -0.5402  0.6044  0.2883
 8856TIP3   OH247982   3.908   1.627  16.317  0.1327  0.3008  0.0852
 8856TIP3    H147983   3.984   1.604  16.262  1.0304 -0.0092  1.4065
 8856TIP3    H247984   3.832   1.598  16.266  0.8711  0.8019 -1.3684
 8857TIP3   OH247985   2.144   1.420   0.494 -0.2920 -0.0194  0.0051
 8857TIP3    H147986   2.177   1.350   0.437  0.4581  0.4957 -0.2104
 8857TIP3    H247987   2.187   1.404   0.578  0.7595  0.7982 -0.3446
 8858TIP3   OH247988   3.537   0.880  11.966 -0.2582 -0.3040 -0.2966
 8858TIP3    H147989   3.520   0.927  12.047 -0.2502 -0.8012  0.0019
 8858TIP3    H247990   3.452   0.874  11.923 -0.2422  0.0589 -0.3817
 8859TIP3   OH247991   5.876   1.460   5.989 -0.5874 -0.0841 -0.1264
 8859TIP3    H147992   5.818   1.485   6.061  0.2080  0.6819  0.2697
 8859TIP3    H247993   5.841   1.507   5.914  0.8318  2.2886  0.5920
 8860TIP3   OH247994   2.494   5.666   1.323 -0.4216  0.8652  0.1664
 8860TIP3    H147995   2.535   5.687   1.240 -1.0181 -0.8587 -0.6215
 8860TIP3    H247996   2.486   5.570   1.322  1.9329  0.4808  3.3501
 8861TIP3   OH247997   6.317   4.204  16.302 -0.2041  0.5409 -0.2933
 8861TIP3    H147998   6.364   4.258  16.238  2.4342 -1.5285 -0.2676
 8861TIP3    H247999   6.294   4.265  16.372  0.1122  2.1427 -1.5232
 8862TIP3   OH248000   6.485   0.037   3.665  0.3746  0.0998 -0.4390
 8862TIP3    H148001   6.485  -0.058   3.660 -1.2555  0.0398  0.2816
 8862TIP3    H248002   6.393   0.061   3.672  0.7486  1.7480 -0.7266
 8863TIP3   OH248003   2.774   6.552  12.432 -0.9807 -0.0828  0.4603
 8863TIP3    H148004   2.825   6.491  12.486  0.4671 -2.3004 -3.0331
 8863TIP3    H248005   2.695   6.503  12.410 -1.0509  0.3645 -0.2844
 8864TIP3   OH248006   4.537   5.730  13.901  0.0928 -0.4543 -0.2208
 8864TIP3    H148007   4.450   5.736  13.860  0.3355 -0.5248 -0.7595
 8864TIP3    H248008   4.592   5.789  13.849  0.6893 -1.4586 -0.7535
 8865TIP3   OH248009   0.886   6.552   1.714  0.5621  0.1736  0.3610
 8865TIP3    H148010   0.796   6.521   1.726  0.8121 -0.5100  0.5318
 8865TIP3    H248011   0.880   6.617   1.644 -0.1533  0.5682  0.7716
 8866TIP3   OH248012   2.885   5.583  15.809 -0.0938  0.3585  0.8413
 8866TIP3    H148013   2.827   5.636  15.755 -0.2823  0.1012  0.7884
 8866TIP3    H248014   2.907   5.639  15.883  3.0507  2.1024 -1.1909
 8867TIP3   OH248015   3.798   4.994  15.752 -0.4094 -0.2182 -0.0042
 8867TIP3    H148016   3.817   4.917  15.698  0.3430 -0.8748  1.1559
 8867TIP3    H248017   3.883   5.037  15.763 -0.6347  0.1515  0.2999
 8868TIP3   OH248018   5.861   0.003  16.712  0.1747 -0.3225 -0.3230
 8868TIP3    H148019   5.897   0.038  16.631 -1.5148  2.0216 -0.1609
 8868TIP3    H248020   5.937  -0.012  16.767  1.1801  3.6192 -0.2977
 8869TIP3   OH248021   0.628   6.571  15.431  0.1832  0.2839  0.3703
 8869TIP3    H148022   0.648   6.580  15.338  0.8680  0.6977  0.5568
 8869TIP3    H248023   0.550   6.626  15.444 -0.4150 -0.4234 -0.1160
 8870TIP3   OH248024   3.472   4.051  12.901 -0.0968  0.5242  0.2844
 8870TIP3    H148025   3.535   4.015  12.838 -1.1399 -2.7764  0.9328
 8870TIP3    H248026   3.387   4.039  12.859 -0.7392 -0.8667  1.8877
 8871TIP3   OH248027   0.956   4.674  11.921  0.1482  0.1571  0.0874
 8871TIP3    H148028   0.868   4.649  11.891 -0.4418  1.8961  0.2806
 8871TIP3    H248029   0.940   4.735  11.993  1.5374 -0.0622  0.5980
 8872TIP3   OH248030   5.019   6.369   2.235 -0.8493  0.3870  0.1432
 8872TIP3    H148031   5.046   6.448   2.281  0.3773 -0.8756  1.7258
 8872TIP3    H248032   5.064   6.374   2.150  0.5168  0.6516  0.8570
 8873TIP3   OH248033   2.520   5.728   4.164  0.5401 -0.2323  0.2112
 8873TIP3    H148034   2.520   5.662   4.094  1.5087 -1.3043  1.1640
 8873TIP3    H248035   2.511   5.677   4.244 -0.1229  0.9386  0.8964
 8874TIP3   OH248036   0.420   5.517   2.970 -0.0910 -0.3785 -0.0314
 8874TIP3    H148037   0.407   5.543   2.879 -0.6257  0.9327  0.3919
 8874TIP3    H248038   0.378   5.432   2.977 -2.6713  0.7862 -0.3369
 8875TIP3   OH248039   3.756   3.902  12.468  0.1564 -0.6148 -0.7275
 8875TIP3    H148040   3.751   3.994  12.441 -0.0373 -0.8964 -1.7175
 8875TIP3    H248041   3.704   3.855  12.403 -2.1244 -1.1382  1.3444
 8876TIP3   OH248042   1.930   1.214  13.077  0.3456 -0.1762 -0.1840
 8876TIP3    H148043   1.950   1.171  12.993  1.7239 -0.3717  0.2285
 8876TIP3    H248044   2.010   1.260  13.100 -0.6595  1.5098  0.0812
 8877TIP3   OH248045   6.061   3.945  14.454  0.0208 -0.1787 -0.4309
 8877TIP3    H148046   6.013   4.005  14.510  0.3048 -0.9694  0.6918
 8877TIP3    H248047   6.131   3.911  14.510  1.5114  0.4646 -1.8235
 8878TIP3   OH248048   0.033   1.390  12.843  0.1549  0.5646  0.9436
 8878TIP3    H148049   0.006   1.323  12.781 -1.2678 -0.0942  2.2068
 8878TIP3    H248050   0.062   1.341  12.920  4.2379  1.2538  0.0571
 8879TIP3   OH248051   1.810   0.046   0.929  0.0122 -0.2947 -0.1232
 8879TIP3    H148052   1.822   0.056   1.024 -2.1051 -1.1884  0.2962
 8879TIP3    H248053   1.780   0.132   0.900 -1.1260 -0.5054  0.3709
 8880TIP3   OH248054   3.808   4.447  12.005  0.1014  0.4520  0.3221
 8880TIP3    H148055   3.845   4.426  11.919  0.5699 -0.0670  0.6408
 8880TIP3    H248056   3.873   4.504  12.046 -0.8358  2.0117 -0.2576
 8881TIP3   OH248057   1.798   4.422   3.447  0.4250 -0.5277  0.1162
 8881TIP3    H148058   1.838   4.469   3.520 -1.5769  0.8807  0.3899
 8881TIP3    H248059   1.738   4.360   3.488 -2.0329  1.4607 -0.1948
 8882TIP3   OH248060   2.243   0.427   5.378  0.2436 -0.2139 -0.0268
 8882TIP3    H148061   2.277   0.416   5.467 -2.0417 -0.8084  0.8525
 8882TIP3    H248062   2.201   0.513   5.379  0.9261  0.1385 -0.8118
 8883TIP3   OH248063   2.068   5.196   5.896 -0.2964  0.4403  0.1250
 8883TIP3    H148064   2.083   5.220   5.804  1.4198 -1.9828 -0.3117
 8883TIP3    H248065   2.072   5.280   5.943 -0.5369  1.6559 -1.9091
 8884TIP3   OH248066   0.701   3.928   6.085 -0.0340 -0.2794 -0.5463
 8884TIP3    H148067   0.723   3.852   6.138 -2.5952 -1.5601 -1.1417
 8884TIP3    H248068   0.781   3.979   6.082  1.0753 -1.6585  1.9934
 8885TIP3   OH248069   5.837   3.130  13.511  0.0020 -0.0107 -0.3018
 8885TIP3    H148070   5.841   3.113  13.417  1.4794  0.8708 -0.4360
 8885TIP3    H248071   5.901   3.200  13.526  1.4538 -1.6238  1.6686
 8886TIP3   OH248072   6.607   2.476   0.187 -0.6051 -0.0525  0.3638
 8886TIP3    H148073   6.642   2.548   0.240  1.1938 -0.7630  0.2294
 8886TIP3    H248074   6.636   2.396   0.233  0.4533 -0.6760 -1.2852
 8887TIP3   OH248075   5.767   1.942  13.351 -0.0969 -0.4655 -0.1439
 8887TIP3    H148076   5.747   1.985  13.434  0.0042 -1.6399  0.4985
 8887TIP3    H248077   5.863   1.949  13.344 -0.2877  2.2294 -1.6288
 8888TIP3   OH248078   2.167   6.614   1.377  1.0027  0.1850 -0.3589
 8888TIP3    H148079   2.241   6.566   1.340 -0.0863 -0.0615 -2.4126
 8888TIP3    H248080   2.101   6.614   1.307 -0.0570  2.4168  0.5167
 8889TIP3   OH248081   2.817   6.427  10.912  0.1175 -0.5216  0.5325
 8889TIP3    H148082   2.737   6.374  10.910  0.3642 -1.3153  4.2406
 8889TIP3    H248083   2.886   6.366  10.885 -0.2696 -0.2168 -1.3078
 8890TIP3   OH248084   6.542   2.780   4.398  1.3216  0.0253 -0.1803
 8890TIP3    H148085   6.560   2.697   4.442  0.3745 -1.1037 -1.8274
 8890TIP3    H248086   6.604   2.842   4.438  1.9784 -1.4206  1.1649
 8891TIP3   OH248087   3.400   2.412   3.630 -0.1060  0.4430  0.1406
 8891TIP3    H148088   3.493   2.435   3.640 -0.0710  1.4660 -1.9819
 8891TIP3    H248089   3.353   2.489   3.660 -0.2110  0.4712 -0.0919
 8892TIP3   OH248090   5.747   6.363  12.415 -0.6171  0.5164 -0.3193
 8892TIP3    H148091   5.728   6.278  12.456 -0.9610  0.4026 -0.7100
 8892TIP3    H248092   5.789   6.341  12.332  1.1211  0.7616  0.4414
 8893TIP3   OH248093   3.761   0.720  11.842  0.3407 -0.6011  0.0035
 8893TIP3    H148094   3.671   0.729  11.873  0.3051 -0.3318 -0.1793
 8893TIP3    H248095   3.763   0.634  11.799  0.5305 -1.2253  1.2187
 8894TIP3   OH248096   6.178   3.608   5.753  0.3386  0.2545  0.5032
 8894TIP3    H148097   6.238   3.647   5.817  1.1605 -0.1004 -0.0365
 8894TIP3    H248098   6.218   3.524   5.732 -0.2221  0.1279 -0.0675
 8895TIP3   OH248099   3.805   6.341  11.492  0.6186  0.2062  0.4023
 8895TIP3    H148100   3.830   6.401  11.562  1.8555  1.3780 -0.9644
 8895TIP3    H248101   3.877   6.279  11.486 -0.4637 -1.2453  1.5294
 8896TIP3   OH248102   6.560   0.410  14.977 -0.5306  0.5699  0.4624
 8896TIP3    H148103   6.621   0.412  15.051 -0.9405  0.9228  0.7946
 8896TIP3    H248104   6.616   0.415  14.900 -0.1526  1.1918  0.7678
 8897TIP3   OH248105   3.526   1.630   5.140 -0.5722  0.6440  0.0175
 8897TIP3    H148106   3.522   1.537   5.165  1.0453  0.6949  0.5925
 8897TIP3    H248107   3.434   1.658   5.141 -1.1524 -1.0516 -0.6504
 8898TIP3   OH248108   6.537   2.757   1.970  0.4194 -0.9321 -0.1853
 8898TIP3    H148109   6.543   2.662   1.962  1.0909 -0.8147 -1.1640
 8898TIP3    H248110   6.567   2.791   1.886  1.1201  0.1780  0.4892
 8899TIP3   OH248111   2.845   4.636   5.109 -0.0944 -0.0512  0.3161
 8899TIP3    H148112   2.769   4.578   5.105 -3.1272  3.5501 -0.8131
 8899TIP3    H248113   2.884   4.630   5.022 -1.4304  0.6991 -0.3753
 8900TIP3   OH248114   4.463   2.014  12.199  0.2305  0.2808 -0.0322
 8900TIP3    H148115   4.477   2.081  12.266 -2.0118  0.6476  0.1321
 8900TIP3    H248116   4.382   2.040  12.155 -1.5171 -2.9626  0.9271
 8901TIP3   OH248117   0.415   3.263  13.611 -0.2186 -0.1745  0.2526
 8901TIP3    H148118   0.463   3.296  13.535 -0.5408  0.6289  0.3845
 8901TIP3    H248119   0.330   3.237  13.576 -0.8245  1.3341  0.4988
 8902TIP3   OH248120   4.743   1.580   1.785  0.5368 -0.5164  0.0714
 8902TIP3    H148121   4.830   1.597   1.823 -0.3103 -1.0664  2.4274
 8902TIP3    H248122   4.688   1.650   1.819 -0.2177 -0.8633 -0.4133
 8903TIP3   OH248123   5.452   2.249  12.314  0.3926 -0.4439  0.0846
 8903TIP3    H148124   5.520   2.213  12.369  0.1605 -1.5160 -0.3101
 8903TIP3    H248125   5.373   2.249  12.368  0.5916  0.3978  0.3986
 8904TIP3   OH248126   3.190   2.441   4.922  0.1864  0.2173  0.4908
 8904TIP3    H148127   3.185   2.409   4.832  0.8150 -0.7917  0.8034
 8904TIP3    H248128   3.262   2.392   4.962 -0.2631  0.4402  1.6253
 8905TIP3   OH248129   4.148   6.421  12.143 -0.1096 -0.2713 -0.2328
 8905TIP3    H148130   4.204   6.487  12.184 -0.0752 -0.0291 -0.6559
 8905TIP3    H248131   4.071   6.417  12.199 -1.5174  2.3722 -1.7695
 8906TIP3   OH248132   2.639   2.406  12.515 -0.7691 -0.7497 -0.4903
 8906TIP3    H148133   2.606   2.451  12.436 -0.9535  1.3578  0.6997
 8906TIP3    H248134   2.562   2.398  12.571  0.0047  1.3985  1.0416
 8907TIP3   OH248135   2.371   2.364   5.399  0.0230  0.2828 -0.5036
 8907TIP3    H148136   2.425   2.291   5.429 -2.3678 -3.1820 -3.6933
 8907TIP3    H248137   2.433   2.432   5.375  2.4961 -1.1583  1.3848
 8908TIP3   OH248138   5.657   1.276   0.644 -0.0983 -0.1827 -0.6229
 8908TIP3    H148139   5.717   1.298   0.714  0.0517  1.6950 -1.2881
 8908TIP3    H248140   5.583   1.234   0.688  0.2663  0.3966  0.5813
 8909TIP3   OH248141   2.269   1.892  11.974  0.2930  0.5322 -0.1627
 8909TIP3    H148142   2.339   1.831  11.997  0.6184  0.2852 -1.7019
 8909TIP3    H248143   2.272   1.958  12.043  1.2853 -0.0834  0.4152
 8910TIP3   OH248144   2.467   1.951  12.516  0.7754 -0.4177  0.6188
 8910TIP3    H148145   2.414   2.001  12.577  1.1630  0.5500  0.1780
 8910TIP3    H248146   2.532   1.907  12.571  0.5714 -0.2605  0.9887
 8911TIP3   OH248147   6.478   5.604   4.459 -0.2534  0.1522  0.5756
 8911TIP3    H148148   6.433   5.648   4.386 -1.1525 -0.7298  0.5644
 8911TIP3    H248149   6.503   5.674   4.518  1.3737  0.9990 -1.0285
 8912TIP3   OH248150   0.343   3.187  16.692  0.1806  0.4220 -0.0014
 8912TIP3    H148151   0.283   3.191  16.767  2.1728  2.1932  1.6397
 8912TIP3    H248152   0.356   3.279  16.668  1.1030 -0.0225 -1.2913
 8913TIP3   OH248153   3.696   3.030   6.174 -0.5470 -0.0217  0.1567
 8913TIP3    H148154   3.754   3.059   6.104 -1.2455 -0.2077 -0.5064
 8913TIP3    H248155   3.642   2.962   6.135 -3.5410  2.4114 -0.2997
 8914TIP3   OH248156   1.653   2.895  11.087 -0.1523  0.3298 -0.4688
 8914TIP3    H148157   1.591   2.897  11.015 -0.4456 -0.2868 -0.2373
 8914TIP3    H248158   1.678   2.803  11.096 -0.5444  0.3102  0.5663
 8915TIP3   OH248159   0.121   4.369  12.594  0.4507  0.1704 -0.1253
 8915TIP3    H148160   0.050   4.434  12.595 -0.3948 -0.7101  1.2188
 8915TIP3    H248161   0.200   4.419  12.613 -0.3652  0.6823  2.3402
 8916TIP3   OH248162   4.086   2.190  15.376  0.0275  0.6440 -0.4089
 8916TIP3    H148163   4.074   2.232  15.461  0.7953  0.6314 -0.2857
 8916TIP3    H248164   4.042   2.247  15.314  0.9272  1.5576 -0.2274
 8917TIP3   OH248165   1.624   4.807  13.241 -0.6857 -0.3279  0.1334
 8917TIP3    H148166   1.639   4.901  13.250 -2.5197  0.0416 -0.2698
 8917TIP3    H248167   1.561   4.786  13.310 -0.3249 -1.2663  0.1904
 8918TIP3   OH248168   2.798   1.969  13.126  0.0904  0.5617  0.2573
 8918TIP3    H148169   2.800   2.012  13.040 -0.7961  0.5284  0.2092
 8918TIP3    H248170   2.887   1.979  13.160  1.1966 -1.6748 -1.7539
 8919TIP3   OH248171   0.038   4.534   2.767 -0.5230  0.0595 -0.0134
 8919TIP3    H148172   0.033   4.626   2.739  1.6848  0.0121 -0.7635
 8919TIP3    H248173   0.044   4.485   2.685 -0.4789 -0.6571  0.4155
 8920TIP3   OH248174   5.687   3.738   4.899  0.4791 -0.6627  0.3651
 8920TIP3    H148175   5.751   3.805   4.874  1.6937 -2.1288 -0.6496
 8920TIP3    H248176   5.722   3.701   4.980 -0.3824  0.1425  1.1242
 8921TIP3   OH248177   1.282   0.136   1.770  0.2332  0.4881  0.3350
 8921TIP3    H148178   1.365   0.104   1.736  0.7354 -0.4789  2.3348
 8921TIP3    H248179   1.231   0.058   1.789  0.1352  0.9381  2.1053
 8922TIP3   OH248180   4.031   3.540  13.724 -0.0741  0.2062 -0.1822
 8922TIP3    H148181   3.994   3.496  13.800  1.9464 -2.0067 -0.3581
 8922TIP3    H248182   3.986   3.501  13.649  1.0945 -1.0046 -0.2924
 8923TIP3   OH248183   5.714   2.496  13.565 -0.2771  0.3196  0.0048
 8923TIP3    H148184   5.742   2.502  13.474 -1.8504 -0.1979 -0.5442
 8923TIP3    H248185   5.788   2.455  13.610 -0.3593 -1.6372 -1.5008
 8924TIP3   OH248186   1.043   0.137  14.165  0.3621  0.2640  0.3977
 8924TIP3    H148187   1.128   0.110  14.199  0.2869 -0.5508 -0.0580
 8924TIP3    H248188   1.000   0.180  14.240  0.2125 -1.4888  1.3653
 8925TIP3   OH248189   2.998   3.089   4.714 -0.2125 -1.1047  0.3885
 8925TIP3    H148190   2.918   3.088   4.661  0.4030 -0.8572 -0.5646
 8925TIP3    H248191   3.068   3.102   4.651  0.5117 -0.4407  1.3093
 8926TIP3   OH248192   3.419   4.838   0.378 -0.9196  0.2256 -0.0365
 8926TIP3    H148193   3.327   4.823   0.397 -0.8458 -2.5059 -1.3983
 8926TIP3    H248194   3.432   4.803   0.290  1.5012  0.0999  0.2887
 8927TIP3   OH248195   0.958   1.308   0.388  0.2232 -0.1352 -0.2059
 8927TIP3    H148196   0.888   1.244   0.381 -1.1075  1.1571  0.7627
 8927TIP3    H248197   0.997   1.312   0.301  0.5313 -2.4192 -0.2272
 8928TIP3   OH248198   0.826   5.877   2.941 -0.4821 -0.2692  0.3767
 8928TIP3    H148199   0.884   5.908   2.872  0.4433 -0.2041  1.1711
 8928TIP3    H248200   0.762   5.948   2.953 -0.7504 -0.3480 -0.5014
 8929TIP3   OH248201   5.286   1.631  15.566  0.5800  0.1022 -0.2997
 8929TIP3    H148202   5.216   1.638  15.500  0.0840 -1.1433  0.0636
 8929TIP3    H248203   5.240   1.609  15.647  1.3430 -0.0278  0.1032
 8930TIP3   OH248204   2.502   3.079   2.295  0.0859 -0.0068  0.0852
 8930TIP3    H148205   2.481   3.166   2.330 -0.4197 -0.3893  0.7403
 8930TIP3    H248206   2.501   3.092   2.200  1.6349  1.0700  0.1749
 8931TIP3   OH248207   0.796   3.592   6.035  1.1406  0.0133 -0.5642
 8931TIP3    H148208   0.780   3.644   5.956  0.6634  0.7064 -0.0261
 8931TIP3    H248209   0.789   3.501   6.006  1.2158  0.2584 -1.3665
 8932TIP3   OH248210   5.478   5.529  11.116 -0.4413  0.1580 -0.1245
 8932TIP3    H148211   5.460   5.587  11.189  0.3292 -1.0451  1.0692
 8932TIP3    H248212   5.416   5.556  11.048 -2.5889  0.0334  1.6698
 8933TIP3   OH248213   5.684   3.969   5.372 -0.2125 -0.0213 -0.4281
 8933TIP3    H148214   5.742   3.925   5.310 -0.1411 -0.1921 -0.2394
 8933TIP3    H248215   5.696   3.922   5.454 -0.7199 -0.1439 -0.4199
 8934TIP3   OH248216   2.943   1.203  11.438 -0.1448 -0.3849 -0.2183
 8934TIP3    H148217   2.855   1.210  11.474  0.0941  1.9624  0.0768
 8934TIP3    H248218   2.930   1.198  11.343 -0.6164 -0.6863 -0.1394
 8935TIP3   OH248219   0.527   3.218   1.536 -0.3038  0.2430 -0.5624
 8935TIP3    H148220   0.550   3.216   1.443  0.6318  0.6042 -0.3539
 8935TIP3    H248221   0.589   3.279   1.575 -1.0791  0.5693  0.2057
 8936TIP3   OH248222   0.233   5.384  15.418  0.0151 -0.3974 -0.3115
 8936TIP3    H148223   0.237   5.329  15.339 -0.6055  0.6212 -1.0802
 8936TIP3    H248224   0.237   5.474  15.384  0.3712  0.0516  0.8738
 8937TIP3   OH248225   3.375   6.027  14.988  0.0423 -1.1527  0.4800
 8937TIP3    H148226   3.289   6.014  14.948  0.7124 -1.8127 -0.7943
 8937TIP3    H248227   3.396   5.943  15.028 -0.7365 -0.4339  2.5830
 8938TIP3   OH248228   0.113   5.152   1.842 -0.2332 -0.6138  0.4618
 8938TIP3    H148229   0.031   5.128   1.800  0.2086 -1.4721  0.0449
 8938TIP3    H248230   0.145   5.227   1.792 -0.7971 -0.2225  0.6824
 8939TIP3   OH248231   5.151   4.251   3.707  0.3592 -0.1173 -0.2853
 8939TIP3    H148232   5.130   4.296   3.626  0.1406  0.8404  0.2925
 8939TIP3    H248233   5.089   4.287   3.772  0.7576 -0.6051  0.3825
 8940TIP3   OH248234   6.351   2.579  12.787 -0.4193  0.0655  0.5075
 8940TIP3    H148235   6.393   2.621  12.712 -0.4970 -1.5993 -0.4906
 8940TIP3    H248236   6.262   2.560  12.758 -1.0841  1.1232  1.7076
 8941TIP3   OH248237   2.913   3.800  15.739  0.4258  0.3292  0.3236
 8941TIP3    H148238   2.843   3.839  15.793 -0.9951  0.1696 -1.3007
 8941TIP3    H248239   2.881   3.712  15.718  0.9778  0.3469 -0.6664
 8942TIP3   OH248240   3.976   3.848   1.466 -0.2910 -0.3150  0.0276
 8942TIP3    H148241   3.990   3.809   1.553 -1.4988  0.3025  0.5301
 8942TIP3    H248242   3.920   3.923   1.482  0.5749  0.6164 -1.1527
 8943TIP3   OH248243   3.735   2.201  15.444 -0.5137  0.4327 -0.1911
 8943TIP3    H148244   3.728   2.205  15.349 -0.4894 -1.4070 -0.3195
 8943TIP3    H248245   3.762   2.288  15.470  0.4637  0.7099 -1.9622
 8944TIP3   OH248246   5.064   3.727  12.288 -0.1970  0.1924  0.0303
 8944TIP3    H148247   5.065   3.714  12.194  0.2413  0.8200 -0.0564
 8944TIP3    H248248   5.115   3.807  12.302  1.0242 -0.6900  0.9106
 8945TIP3   OH248249   2.454   1.794  16.741  0.0226  0.1058  0.2375
 8945TIP3    H148250   2.533   1.752  16.777 -0.3275 -1.2009 -0.4617
 8945TIP3    H248251   2.481   1.826  16.656  0.5369  2.1838  1.1278
 8946TIP3   OH248252   6.122   3.130  15.097  0.1216 -0.0606 -0.4052
 8946TIP3    H148253   6.161   3.048  15.066  1.2514  0.4636 -0.4105
 8946TIP3    H248254   6.105   3.115  15.190  0.8913 -0.0957 -0.2673
 8947TIP3   OH248255   5.282   0.038  11.797 -0.3666  0.4021 -0.3782
 8947TIP3    H148256   5.227   0.112  11.822 -0.8104 -0.1605  0.3615
 8947TIP3    H248257   5.296   0.049  11.703 -0.3447  1.4722 -0.2624
 8948TIP3   OH248258   2.596   6.337   2.195 -0.6356  0.0221 -0.0252
 8948TIP3    H148259   2.665   6.401   2.212 -0.9066  0.1578  0.6230
 8948TIP3    H248260   2.604   6.316   2.102  1.6685 -1.5949  0.4462
 8949TIP3   OH248261   2.798   3.041   4.484 -0.4167  0.1949  0.1671
 8949TIP3    H148262   2.712   3.083   4.490 -2.3268 -3.5461  1.8893
 8949TIP3    H248263   2.794   2.988   4.404  1.2649  1.6706 -0.9835
 8950TIP3   OH248264   3.714   5.757   0.853 -0.2275 -0.6448  0.2930
 8950TIP3    H148265   3.645   5.724   0.796 -0.8349  1.8580 -0.5354
 8950TIP3    H248266   3.711   5.700   0.930 -1.5720 -2.0835 -0.7660
 8951TIP3   OH248267   5.763   2.213   5.607  0.6215  0.3464 -0.0605
 8951TIP3    H148268   5.832   2.264   5.648  0.5261 -0.6575  1.4043
 8951TIP3    H248269   5.682   2.242   5.650  0.3527  0.1964 -0.4537
 8952TIP3   OH248270   5.461   4.175   0.771 -0.4466 -0.0759  0.4565
 8952TIP3    H148271   5.486   4.239   0.704 -1.9612  0.4613  0.3603
 8952TIP3    H248272   5.466   4.223   0.853  0.9816 -0.6121  0.7108
 8953TIP3   OH248273   2.586   4.880   5.108 -0.0112 -0.6510  0.5020
 8953TIP3    H148274   2.547   4.842   5.029  1.3995  0.4948 -0.8061
 8953TIP3    H248275   2.679   4.862   5.100  0.2942  0.4198  1.3802
 8954TIP3   OH248276   0.339   5.047  16.266 -0.7287 -0.2847 -0.2820
 8954TIP3    H148277   0.324   5.119  16.327 -1.9711  0.2672 -1.1953
 8954TIP3    H248278   0.434   5.033  16.268 -0.6747  0.0879  1.3188
 8955TIP3   OH248279   1.685   0.670   3.279 -0.1453  0.0640 -0.3444
 8955TIP3    H148280   1.628   0.607   3.324 -2.9220  2.9116  0.4346
 8955TIP3    H248281   1.730   0.716   3.350  1.0562 -0.2630 -0.8690
 8956TIP3   OH248282   2.759   5.393   4.913  0.2101 -0.0696  0.2756
 8956TIP3    H148283   2.762   5.434   5.000  0.7575 -0.2383  0.3457
 8956TIP3    H248284   2.666   5.378   4.896  0.2018 -2.2482  1.8910
 8957TIP3   OH248285   3.679   4.891   1.336 -0.3280  0.0376  0.5623
 8957TIP3    H148286   3.709   4.803   1.312 -1.5648 -0.2704  0.0605
 8957TIP3    H248287   3.756   4.933   1.374 -0.1750 -1.8958  2.5537
 8958TIP3   OH248288   0.742   6.727   2.214 -0.4316 -0.2782 -0.4435
 8958TIP3    H148289   0.738   6.633   2.233 -2.1507 -0.2126 -0.3180
 8958TIP3    H248290   0.825   6.756   2.252 -0.3179 -1.5690  0.3446
 8959TIP3   OH248291   4.542   0.396  14.246 -0.0007  0.3107  0.0281
 8959TIP3    H148292   4.534   0.311  14.203 -0.7169 -0.0485  0.8434
 8959TIP3    H248293   4.486   0.389  14.324  0.6731  1.2061  0.6098
 8960TIP3   OH248294   2.550   2.455  15.615  0.0825 -0.7229 -0.2162
 8960TIP3    H148295   2.623   2.497  15.660  1.1681 -1.2313 -1.4298
 8960TIP3    H248296   2.473   2.481  15.665  1.1098 -0.4057  1.2762
 8961TIP3   OH248297   0.112   1.052   1.326  0.3444  0.0655 -0.5717
 8961TIP3    H148298   0.024   1.055   1.289  0.7134 -0.1087 -1.4922
 8961TIP3    H248299   0.169   1.079   1.254  1.0579  0.0245 -0.0338
 8962TIP3   OH248300   0.777   2.955  14.136 -0.7431  0.2400 -0.4336
 8962TIP3    H148301   0.747   2.994  14.218  0.6874 -1.5909  1.0464
 8962TIP3    H248302   0.802   3.029  14.081 -0.6527  1.4812  1.2178
 8963TIP3   OH248303   6.277   1.407   2.807  0.0737  0.4404  0.3931
 8963TIP3    H148304   6.251   1.368   2.724 -0.5812 -1.1374  1.2906
 8963TIP3    H248305   6.371   1.423   2.798  0.0671  0.0187 -0.5314
 8964TIP3   OH248306   3.413   1.533   1.225 -0.3285  0.0624 -0.4860
 8964TIP3    H148307   3.508   1.532   1.237 -0.3600  1.0242 -0.1324
 8964TIP3    H248308   3.388   1.441   1.234  0.7670 -0.4962 -2.3339
 8965TIP3   OH248309   5.454   0.926  13.352  0.2763  0.5022  0.2883
 8965TIP3    H148310   5.464   0.854  13.415 -0.9892  0.5792  0.6172
 8965TIP3    H248311   5.361   0.947  13.356  0.4508  1.4822 -0.5631
 8966TIP3   OH248312   1.672   4.413  13.344  0.7388 -0.4832 -0.5001
 8966TIP3    H148313   1.594   4.449  13.300 -0.3834 -2.1303  0.0464
 8966TIP3    H248314   1.738   4.408  13.274  1.1152  2.8039 -0.5583
 8967TIP3   OH248315   2.769   1.241  10.594 -0.0116 -0.6286 -0.5444
 8967TIP3    H148316   2.683   1.283  10.589 -1.3833 -3.3203 -1.1003
 8967TIP3    H248317   2.799   1.260  10.683 -0.4422  1.6143 -0.8180
 8968TIP3   OH248318   4.442   6.775  17.048  0.1866 -0.5039  0.4602
 8968TIP3    H148319   4.367   6.804  16.996 -0.2811  0.7329  1.7616
 8968TIP3    H248320   4.517   6.823  17.011  0.3897 -1.8051 -0.8964
 8969TIP3   OH248321   6.044   2.416   1.400  0.2956  0.0151  0.0608
 8969TIP3    H148322   6.067   2.508   1.388 -1.3034  0.8099  2.2720
 8969TIP3    H248323   5.977   2.399   1.334 -0.9348  1.1266  0.9758
 8970TIP3   OH248324   1.331   3.793   4.879  0.5793  0.4970 -0.2143
 8970TIP3    H148325   1.386   3.810   4.956  0.3567  0.1214  0.0329
 8970TIP3    H248326   1.275   3.871   4.872  0.3459  0.3727  0.2272
 8971TIP3   OH248327   0.859   1.411   6.661  0.2521 -0.6713 -0.4876
 8971TIP3    H148328   0.871   1.482   6.724 -0.1203 -0.5252 -0.5791
 8971TIP3    H248329   0.764   1.406   6.647  0.4089  0.4683 -2.3625
 8972TIP3   OH248330   0.771   4.219   0.319 -0.3190  0.5360  0.5257
 8972TIP3    H148331   0.855   4.211   0.274 -0.1774 -1.4890  1.0961
 8972TIP3    H248332   0.794   4.251   0.407 -0.0687 -0.4925  0.8480
 8973TIP3   OH248333   4.109   4.482   2.551  0.6428 -0.2781  0.3125
 8973TIP3    H148334   4.128   4.509   2.641 -1.6169  1.2951  0.4059
 8973TIP3    H248335   4.185   4.511   2.500  1.8969 -1.0775  1.6459
 8974TIP3   OH248336   5.872   3.482   2.270  0.6573  0.1400  0.6953
 8974TIP3    H148337   5.886   3.403   2.321 -1.3548 -1.1193 -0.5878
 8974TIP3    H248338   5.951   3.490   2.215  0.5244 -1.4720  0.2363
 8975TIP3   OH248339   5.732   3.185   3.489  0.0390 -0.3979  0.0592
 8975TIP3    H148340   5.778   3.226   3.416  1.5361 -2.3317 -0.1483
 8975TIP3    H248341   5.782   3.211   3.567  0.4434 -1.0492  0.0235
 8976TIP3   OH248342   5.767   5.666  14.691 -0.1018 -0.0077 -0.5558
 8976TIP3    H148343   5.674   5.686  14.679  0.0425 -0.0409 -1.8288
 8976TIP3    H248344   5.770   5.570  14.699 -0.1230 -0.0541 -1.0851
 8977TIP3   OH248345   5.235   3.797   5.767  0.4290 -0.1781  0.3386
 8977TIP3    H148346   5.217   3.744   5.689 -0.3180 -2.0692  1.7101
 8977TIP3    H248347   5.325   3.775   5.791 -0.4232 -2.4513  1.9437
 8978TIP3   OH248348   1.593   3.858   5.032 -0.0145 -0.2313  0.8224
 8978TIP3    H148349   1.658   3.801   5.073 -1.3233 -1.0336  1.8682
 8978TIP3    H248350   1.559   3.911   5.104 -0.0620  0.6449  0.1669
 8979TIP3   OH248351   6.062   3.924  11.817 -0.2250 -0.1257 -0.5856
 8979TIP3    H148352   6.144   3.887  11.852 -0.5713 -0.4847 -0.1452
 8979TIP3    H248353   6.019   3.964  11.893 -1.6382 -2.1027 -0.2509
 8980TIP3   OH248354   3.243   5.912   3.744  0.2168  0.0940 -0.4954
 8980TIP3    H148355   3.166   5.909   3.688 -0.9224 -0.7165  1.0441
 8980TIP3    H248356   3.218   5.969   3.817  1.7948  1.4498 -0.9412
 8981TIP3   OH248357   3.508   6.117  12.761 -0.4797 -0.6161  0.0386
 8981TIP3    H148358   3.554   6.163  12.831 -1.6716  1.1615 -0.2520
 8981TIP3    H248359   3.447   6.059  12.807 -0.2597 -0.5156  0.4646
 8982TIP3   OH248360   0.017   5.870  15.805  0.2222 -0.5847  0.1924
 8982TIP3    H148361   0.021   5.903  15.895 -0.1690 -0.6108  0.2196
 8982TIP3    H248362   0.038   5.777  15.813  1.2928 -0.3636  0.1194
 8983TIP3   OH248363   2.433   4.259  14.126 -0.5893 -0.2828  0.3653
 8983TIP3    H148364   2.512   4.239  14.175  0.3735  1.0680 -0.5434
 8983TIP3    H248365   2.437   4.354  14.114 -0.7950 -0.5411 -2.2418
 8984TIP3   OH248366   3.855   3.460  16.247 -0.3030  0.1747 -0.0360
 8984TIP3    H148367   3.834   3.472  16.155 -0.2742 -0.2543 -0.1020
 8984TIP3    H248368   3.770   3.454  16.290 -0.3304 -0.7574 -0.1942
 8985TIP3   OH248369   2.006   1.340   2.412 -0.0742 -0.3341 -0.5237
 8985TIP3    H148370   2.064   1.288   2.467 -1.4155 -1.2580  0.0705
 8985TIP3    H248371   1.975   1.410   2.470 -0.7777 -0.7736 -0.3601
 8986TIP3   OH248372   2.821   6.412  14.023  0.3095  0.0254  0.0189
 8986TIP3    H148373   2.769   6.379  13.949  0.6666 -1.8583  0.5638
 8986TIP3    H248374   2.761   6.472  14.068  0.1684  1.4400 -1.8888
 8987TIP3   OH248375   0.694   0.232   3.991  0.1755  0.4045 -0.0996
 8987TIP3    H148376   0.614   0.182   4.008  0.4537 -0.2967 -0.8021
 8987TIP3    H248377   0.664   0.310   3.944  0.0648 -0.7392 -2.0104
 8988TIP3   OH248378   1.120   2.457   6.443  0.1247  0.4002 -0.3645
 8988TIP3    H148379   1.181   2.463   6.369 -0.1416 -0.1648 -0.6394
 8988TIP3    H248380   1.133   2.537   6.492  1.3846  0.0991 -0.1878
 8989TIP3   OH248381   2.658   5.979   1.353 -0.3527  0.2316 -0.4591
 8989TIP3    H148382   2.580   6.001   1.404  1.1366  0.3125  1.9784
 8989TIP3    H248383   2.661   5.883   1.354 -0.5244  0.2250 -0.7028
 8990TIP3   OH248384   2.002   4.787  11.194 -0.1833 -0.0568  0.0272
 8990TIP3    H148385   2.036   4.869  11.230  0.4834 -0.0292 -0.6181
 8990TIP3    H248386   1.932   4.761  11.253  0.7050  0.1101  1.1925
 8991TIP3   OH248387   3.772   4.612  12.896  0.1456  0.3873 -0.1139
 8991TIP3    H148388   3.684   4.624  12.931  0.3380  1.1718  0.1149
 8991TIP3    H248389   3.829   4.611  12.973  0.2985 -0.6359 -0.2181
 8992TIP3   OH248390   1.521   1.227   4.977 -0.9868  0.0467  0.2091
 8992TIP3    H148391   1.536   1.151   5.033 -0.4914  1.5364  2.1985
 8992TIP3    H248392   1.435   1.259   5.003 -1.7870 -0.5573 -1.5596
 8993TIP3   OH248393   1.319   1.979   1.079 -0.1346 -0.3598  0.4647
 8993TIP3    H148394   1.250   2.022   1.130  0.1609  0.2930  0.3232
 8993TIP3    H248395   1.271   1.929   1.013 -0.5548 -1.8258  1.8041
 8994TIP3   OH248396   2.716   2.189  11.785 -0.0768 -0.0384  0.6406
 8994TIP3    H148397   2.686   2.263  11.732  0.1873 -0.7112 -0.4647
 8994TIP3    H248398   2.793   2.223  11.831 -0.6429  0.7236  1.0540
 8995TIP3   OH248399   4.533   0.776   2.543  0.4592  0.8761 -0.2968
 8995TIP3    H148400   4.598   0.706   2.555 -0.9588 -0.3450  0.4672
 8995TIP3    H248401   4.508   0.769   2.451  0.0322  0.0813 -0.1336
 8996TIP3   OH248402   4.315   5.727   1.070 -0.3745  0.2922  0.1441
 8996TIP3    H148403   4.253   5.761   1.134  0.3070 -1.2435  1.6869
 8996TIP3    H248404   4.288   5.636   1.056 -0.2415  0.4655 -1.4276
 8997TIP3   OH248405   0.251   2.897   0.929  0.5506  0.1231 -0.4234
 8997TIP3    H148406   0.196   2.885   1.006  0.4928  2.3340 -0.0681
 8997TIP3    H248407   0.337   2.864   0.956  0.3066  0.0381  0.2702
 8998TIP3   OH248408   4.702   3.949  13.934  0.6601 -0.5157 -0.0527
 8998TIP3    H148409   4.761   4.021  13.957  0.8051 -0.5092 -0.4458
 8998TIP3    H248410   4.654   3.981  13.858  0.2500 -0.5768  0.1797
 8999TIP3   OH248411   3.663   3.091   4.803  0.4396 -0.1517 -0.0176
 8999TIP3    H148412   3.594   3.157   4.811  1.1699  0.5921  0.4198
 8999TIP3    H248413   3.633   3.033   4.733 -0.6992  0.0490  0.2840
 9000TIP3   OH248414   6.387   2.580   3.531 -0.2076 -0.0967 -0.0501
 9000TIP3    H148415   6.431   2.602   3.449  0.0702  0.1211  0.1553
 9000TIP3    H248416   6.442   2.512   3.571 -0.8006 -0.8291 -0.4491
 9001TIP3   OH248417   6.411   3.150   5.823  0.0985 -0.0928  0.7258
 9001TIP3    H148418   6.488   3.162   5.767 -1.1453 -0.6679 -1.1910
 9001TIP3    H248419   6.428   3.068   5.869  0.2223 -0.7058 -0.3884
 9002TIP3   OH248420   3.066   0.390   4.481 -0.4325  0.2677 -0.5278
 9002TIP3    H148421   3.079   0.456   4.549 -0.4806 -1.4537  1.2167
 9002TIP3    H248422   3.026   0.438   4.408 -1.6783  1.8949  1.1597
 9003TIP3   OH248423   5.476   4.775  11.786 -0.2832 -0.4669 -0.3021
 9003TIP3    H148424   5.394   4.752  11.742  0.4401 -2.6036 -0.6691
 9003TIP3    H248425   5.519   4.835  11.725 -0.2796 -1.6934 -1.5852
 9004TIP3   OH248426   6.321   4.425  13.408 -0.2580  0.4445  0.1845
 9004TIP3    H148427   6.250   4.412  13.471 -1.1729 -0.3374 -0.9685
 9004TIP3    H248428   6.335   4.339  13.369  0.4874  0.8487 -0.4732
 9005TIP3   OH248429   5.575   0.541   2.902 -0.1914 -0.5071 -0.6076
 9005TIP3    H148430   5.488   0.582   2.901 -0.7368 -1.5384  0.8898
 9005TIP3    H248431   5.557   0.449   2.919  1.2406 -0.5441  0.9014
 9006TIP3   OH248432   4.618   2.072  15.610  0.5525  0.5508  0.3093
 9006TIP3    H148433   4.594   2.106  15.524  1.2477 -0.4287 -0.2901
 9006TIP3    H248434   4.712   2.090  15.617  1.0690 -1.6289 -0.2520
 9007TIP3   OH248435   2.327   3.351   0.454  0.0386 -0.3679  0.0299
 9007TIP3    H148436   2.420   3.349   0.474  0.4358  0.6047 -1.5649
 9007TIP3    H248437   2.316   3.289   0.382 -0.7038 -1.0766  0.7287
 9008TIP3   OH248438   6.744   4.238   1.629 -0.0327 -0.2474  0.6027
 9008TIP3    H148439   6.775   4.158   1.586 -0.5071 -1.4142  2.3247
 9008TIP3    H248440   6.729   4.212   1.720 -4.1548  0.6922  0.3991
 9009TIP3   OH248441   2.507   1.327   0.624  0.4886 -0.4368 -0.0413
 9009TIP3    H148442   2.594   1.311   0.660  1.5541  0.3941 -2.1207
 9009TIP3    H248443   2.508   1.418   0.595 -1.3699 -0.1639  0.5685
 9010TIP3   OH248444   0.225   3.786   2.942 -0.1034 -0.1931  0.1947
 9010TIP3    H148445   0.297   3.746   2.895  0.3984  0.3331  0.5035
 9010TIP3    H248446   0.166   3.818   2.874  0.2434 -0.1064 -0.0670
 9011TIP3   OH248447   5.720   1.188  13.959  0.3389 -0.5652 -0.7431
 9011TIP3    H148448   5.795   1.131  13.976  0.6393 -0.2900 -1.1325
 9011TIP3    H248449   5.682   1.204  14.045  0.4503 -1.0809 -0.5939
 9012TIP3   OH248450   1.828   0.262  12.452 -0.3409 -0.1519 -0.8067
 9012TIP3    H148451   1.849   0.216  12.370 -1.5176  0.7719 -1.6581
 9012TIP3    H248452   1.811   0.191  12.515 -0.1030 -0.8764 -1.5349
 9013TIP3   OH248453   4.729   3.155   1.185 -0.1380  0.1921 -0.0301
 9013TIP3    H148454   4.670   3.228   1.168  0.0742  0.4475  0.3083
 9013TIP3    H248455   4.694   3.114   1.265  0.4918  0.7228  0.5314
 9014TIP3   OH248456   3.142   3.912  14.788 -0.0564 -0.0380  0.1993
 9014TIP3    H148457   3.077   3.948  14.727 -1.8702 -1.4492  1.1871
 9014TIP3    H248458   3.098   3.913  14.872  2.1014  1.1018  1.3941
 9015TIP3   OH248459   1.752   0.017   5.635 -0.1140 -0.6639 -0.3826
 9015TIP3    H148460   1.782   0.068   5.710  0.3172 -0.3420 -0.7686
 9015TIP3    H248461   1.823  -0.045   5.618  0.4048  0.1766 -1.3689
 9016TIP3   OH248462   4.702   6.695   1.325 -0.2933  0.5353  0.0108
 9016TIP3    H148463   4.749   6.655   1.398 -0.3739 -1.5505 -1.0345
 9016TIP3    H248464   4.620   6.646   1.319 -0.7118  1.3107 -0.8993
 9017TIP3   OH248465   3.902   1.365   1.000  0.6447  0.2101  0.1225
 9017TIP3    H148466   3.927   1.408   0.918 -0.7039  0.3799 -0.2150
 9017TIP3    H248467   3.975   1.383   1.059  1.3402  0.6469 -0.8376
 9018TIP3   OH248468   6.247   0.667   3.748 -0.7662 -0.0252 -0.0264
 9018TIP3    H148469   6.232   0.638   3.658  0.2699  0.7411 -0.4618
 9018TIP3    H248470   6.222   0.759   3.748  0.2476  0.2612  0.1881
 9019TIP3   OH248471   2.849   0.384   4.142 -0.5921  0.0504  0.1404
 9019TIP3    H148472   2.775   0.442   4.158  0.4220  1.6652 -0.7095
 9019TIP3    H248473   2.925   0.433   4.174 -0.0203 -2.3218  2.7316
 9020TIP3   OH248474   2.009   0.257   2.307 -0.3960  0.4917 -0.0123
 9020TIP3    H148475   2.084   0.289   2.256 -0.5173 -0.1938 -0.6436
 9020TIP3    H248476   2.039   0.258   2.397  1.0607 -1.5609 -0.4165
 9021TIP3   OH248477   0.329   3.268   5.205  0.0009  0.2739  0.1384
 9021TIP3    H148478   0.328   3.334   5.275  0.0966 -0.0415  0.4421
 9021TIP3    H248479   0.350   3.186   5.250  2.5322  0.4338 -0.5877
 9022TIP3   OH248480   4.751   0.304   2.165 -0.2013 -0.1840 -0.5282
 9022TIP3    H148481   4.779   0.334   2.079  0.1280  0.0002 -0.3600
 9022TIP3    H248482   4.721   0.383   2.210  1.6197  0.1152  0.2850
 9023TIP3   OH248483   5.630   1.651   3.622  0.0689  0.0134  0.0959
 9023TIP3    H148484   5.678   1.717   3.572  0.6205  0.9921  1.8254
 9023TIP3    H248485   5.698   1.590   3.652 -0.2216 -0.4130 -0.0985
 9024TIP3   OH248486   2.940   6.711  12.313  0.1564  0.0519  0.0976
 9024TIP3    H148487   2.908   6.778  12.252  0.9058  0.4974  0.1709
 9024TIP3    H248488   2.862   6.667  12.345 -0.3265  0.6548 -0.2355
 9025TIP3   OH248489   5.968   6.498   5.130  0.3928  0.0602  0.2935
 9025TIP3    H148490   6.010   6.517   5.045  1.0971  0.5960  0.7506
 9025TIP3    H248491   5.918   6.576   5.151  2.1989  0.9456  1.5253
 9026TIP3   OH248492   1.826   0.033  16.215  0.1120  0.0900  0.3364
 9026TIP3    H148493   1.851  -0.059  16.213  0.0857  0.0787 -1.6808
 9026TIP3    H248494   1.897   0.078  16.168 -1.8024  0.5134 -2.3831
 9027TIP3   OH248495   6.042   5.388   3.797  0.0385 -0.4489 -0.2600
 9027TIP3    H148496   6.003   5.342   3.871  0.4875 -0.9004 -0.3036
 9027TIP3    H248497   6.101   5.325   3.757 -0.9387 -0.5602 -1.6207
 9028TIP3   OH248498   4.705   0.794  16.929  0.4632 -0.3657  0.0428
 9028TIP3    H148499   4.658   0.736  16.869  1.2383 -0.2667 -0.6835
 9028TIP3    H248500   4.794   0.759  16.932  1.2017  1.2428 -1.1157
 9029TIP3   OH248501   6.418   2.898   1.001 -0.0172 -0.0488 -0.3793
 9029TIP3    H148502   6.356   2.954   1.047 -0.1233 -0.1267 -0.4274
 9029TIP3    H248503   6.368   2.863   0.927  0.4080  0.8007 -1.0886
 9030TIP3   OH248504   5.614   0.460   1.051  0.1926 -0.2842  0.3451
 9030TIP3    H148505   5.576   0.440   1.136 -0.9747  0.5933  0.0495
 9030TIP3    H248506   5.544   0.443   0.988  1.5482 -2.6926 -0.6843
 9031TIP3   OH248507   6.509   1.257   2.267 -0.4579  0.1356 -0.2255
 9031TIP3    H148508   6.592   1.300   2.248 -0.5977 -0.1227 -1.4775
 9031TIP3    H248509   6.531   1.188   2.330 -0.2213  1.9487  1.8113
 9032TIP3   OH248510   6.145   0.118  15.510  0.0224  0.3843 -0.5560
 9032TIP3    H148511   6.109   0.045  15.560 -1.7969  2.5634  1.6202
 9032TIP3    H248512   6.210   0.157  15.568  0.4359  0.8999 -1.3530
 9033TIP3   OH248513   2.139   6.352  15.534  0.0587  0.2970  0.0362
 9033TIP3    H148514   2.053   6.390  15.516 -0.3900 -0.9217 -0.4646
 9033TIP3    H248515   2.201   6.422  15.511 -0.7739  1.0976  0.1515
 9034TIP3   OH248516   6.672   1.050   4.917  0.2858 -0.0519 -0.9116
 9034TIP3    H148517   6.637   1.043   5.006  2.3860 -0.7821 -0.0722
 9034TIP3    H248518   6.618   0.990   4.865 -0.3160 -0.4010  0.0896
 9035TIP3   OH248519   3.417   4.600  15.261 -0.5322  0.0420  0.0639
 9035TIP3    H148520   3.403   4.618  15.169  0.0079 -1.0766 -0.2523
 9035TIP3    H248521   3.375   4.515  15.276 -0.4531  0.1221  0.7957
 9036TIP3   OH248522   0.134   3.636  13.358  0.0592 -0.2046 -0.1449
 9036TIP3    H148523   0.108   3.645  13.450 -0.4546 -0.5849 -0.2489
 9036TIP3    H248524   0.053   3.616  13.312  0.3848 -0.4451 -0.6222
 9037TIP3   OH248525   0.006   1.717   0.831 -0.0846 -0.3204 -0.1503
 9037TIP3    H148526  -0.035   1.678   0.754  1.3133 -0.5025 -0.8259
 9037TIP3    H248527   0.035   1.803   0.801 -0.1450 -0.1166  0.3740
 9038TIP3   OH248528   3.982   5.215  11.232  0.3935  0.0678 -0.1705
 9038TIP3    H148529   3.943   5.294  11.195 -1.5504 -0.2905  0.9672
 9038TIP3    H248530   3.910   5.151  11.233  1.0784 -0.7499  1.6740
 9039TIP3   OH248531   0.812   3.214  12.527  0.2750 -0.3481  0.4051
 9039TIP3    H148532   0.765   3.296  12.515 -0.1143 -0.7471 -0.9797
 9039TIP3    H248533   0.760   3.166  12.592  1.0173  0.8322  1.9528
 9040TIP3   OH248534   5.628   5.121   4.606 -0.2905  0.0310 -0.2130
 9040TIP3    H148535   5.639   5.110   4.512 -1.5798  0.9164 -0.5012
 9040TIP3    H248536   5.539   5.090   4.624  0.7295 -2.3652  1.1412
 9041TIP3   OH248537   5.215   0.379   3.234 -0.1373 -0.5338 -0.4314
 9041TIP3    H148538   5.269   0.361   3.311 -1.3499  0.9753  0.8325
 9041TIP3    H248539   5.215   0.297   3.185  0.8033 -1.4782  1.0787
 9042TIP3   OH248540   1.504   0.979   2.831  0.1156  0.1422 -0.3421
 9042TIP3    H148541   1.427   1.036   2.833 -0.5663 -0.7748  0.8041
 9042TIP3    H248542   1.511   0.944   2.920 -0.1595 -2.4136 -1.2492
 9043TIP3   OH248543   1.390   4.141  16.333 -0.0606  0.0506 -0.2453
 9043TIP3    H148544   1.471   4.186  16.359 -1.5064  3.7763 -1.5530
 9043TIP3    H248545   1.360   4.188  16.255 -2.2312 -2.8554 -1.3551
 9044TIP3   OH248546   4.115   4.050  11.544 -0.3546  0.1284 -0.0304
 9044TIP3    H148547   4.169   4.031  11.467  1.3674  0.1382  1.1284
 9044TIP3    H248548   4.178   4.069  11.614 -1.8819  1.1731  1.1292
 9045TIP3   OH248549   1.680   2.302   1.448  0.3701 -0.7718  0.4615
 9045TIP3    H148550   1.718   2.293   1.535  1.0963  1.4374  0.4332
 9045TIP3    H248551   1.670   2.396   1.436  0.8417 -0.9819 -2.0754
 9046TIP3   OH248552   1.242   1.264  11.229  0.0281  0.1336  0.3139
 9046TIP3    H148553   1.265   1.220  11.310  0.3739 -3.2059 -1.4340
 9046TIP3    H248554   1.146   1.260  11.226 -0.0473  1.1561  0.9702
 9047TIP3   OH248555   5.789   1.415   2.082 -0.0307  0.0311 -0.2139
 9047TIP3    H148556   5.774   1.344   2.145 -0.7878 -0.0674 -0.4919
 9047TIP3    H248557   5.784   1.372   1.997 -2.1508  0.6707 -0.4596
 9048TIP3   OH248558   1.025   6.058  15.068 -0.0538  0.2882 -0.4858
 9048TIP3    H148559   1.038   5.963  15.070  0.9521  0.3981 -0.9564
 9048TIP3    H248560   0.930   6.069  15.065 -0.1715 -0.7275 -1.4689
 9049TIP3   OH248561   1.679   1.016   3.305  0.8442 -0.6267  0.3314
 9049TIP3    H148562   1.759   1.067   3.320  0.9218 -0.9195  0.9284
 9049TIP3    H248563   1.702   0.927   3.332  0.3417 -0.7303  0.4228
 9050TIP3   OH248564   2.473   2.603   4.792  0.2152  0.1948 -0.1473
 9050TIP3    H148565   2.452   2.594   4.699  0.5846 -1.8448 -0.0776
 9050TIP3    H248566   2.416   2.540   4.836  0.8224  0.3458  0.8918
 9051TIP3   OH248567   1.244   4.338  11.498  0.5828 -0.0215 -0.3800
 9051TIP3    H148568   1.258   4.388  11.418  1.4654  0.3149 -0.0280
 9051TIP3    H248569   1.225   4.249  11.468  0.3832  0.2128 -0.9642
 9052TIP3   OH248570   0.812   6.504  16.603  0.0550 -0.2260 -0.8606
 9052TIP3    H148571   0.842   6.558  16.530  2.0217  0.1057  0.1338
 9052TIP3    H248572   0.828   6.414  16.575  0.8795 -0.0964 -0.8235
 9053TIP3   OH248573   4.233   1.450  15.202 -0.0642  0.5077 -0.3251
 9053TIP3    H148574   4.196   1.527  15.244  0.5808  1.0075 -0.6426
 9053TIP3    H248575   4.309   1.483  15.154  0.2423 -0.3308 -0.4457
 9054TIP3   OH248576   5.293   3.128  14.929 -0.4120  0.9396  0.0396
 9054TIP3    H148577   5.271   3.066  14.859  0.6796  1.7981 -1.1061
 9054TIP3    H248578   5.218   3.186  14.935 -1.4017 -0.3663  1.0444
 9055TIP3   OH248579   4.733   6.723  16.751 -0.3260  0.5610 -0.4837
 9055TIP3    H148580   4.675   6.789  16.789  0.3443 -0.1734  2.0116
 9055TIP3    H248581   4.679   6.644  16.745  0.0744  0.1346  0.9586
 9056TIP3   OH248582   2.384   6.493   6.267  0.0337 -0.1012 -0.4223
 9056TIP3    H148583   2.387   6.405   6.303  0.8635 -0.2855 -0.9085
 9056TIP3    H248584   2.471   6.506   6.228  0.2695  1.2817  0.4869
 9057TIP3   OH248585   5.843   2.276   1.220  0.1523  0.2165  0.5373
 9057TIP3    H148586   5.861   2.244   1.131  0.6739 -1.4804  1.1991
 9057TIP3    H248587   5.815   2.198   1.268 -4.3204  1.7634  0.8897
 9058TIP3   OH248588   2.256   3.020   3.711  0.2259 -0.0008  0.3567
 9058TIP3    H148589   2.175   3.058   3.678 -0.1973 -0.8064  0.4550
 9058TIP3    H248590   2.309   3.004   3.633 -0.0235 -0.1853  0.2232
 9059TIP3   OH248591   0.998   3.155  14.570 -0.3208  0.1011  0.3657
 9059TIP3    H148592   0.955   3.083  14.616  2.0583 -1.9490 -0.3759
 9059TIP3    H248593   1.060   3.191  14.633  1.1152 -1.0262 -0.3305
 9060TIP3   OH248594   5.242   2.642  14.307 -0.3238  0.2768  0.6262
 9060TIP3    H148595   5.253   2.726  14.264 -1.3576 -0.1920 -0.6345
 9060TIP3    H248596   5.237   2.663  14.400 -1.2118  1.6907  0.2849
 9061TIP3   OH248597   6.107   1.365   4.570 -0.1822 -0.1656  0.6870
 9061TIP3    H148598   6.028   1.320   4.599  0.9423 -1.0592  2.5546
 9061TIP3    H248599   6.157   1.298   4.524  1.2535 -0.7923  3.0107
 9062TIP3   OH248600   4.319   4.972  12.376 -0.5604  0.5747 -0.9247
 9062TIP3    H148601   4.377   5.006  12.308  0.5850  1.9818  0.6644
 9062TIP3    H248602   4.355   5.007  12.458 -2.5946 -0.0340  0.3064
 9063TIP3   OH248603   1.982   2.724  14.574 -0.1882 -0.0698  0.0226
 9063TIP3    H148604   2.007   2.730  14.666 -0.5078  0.6219  0.0735
 9063TIP3    H248605   2.005   2.635  14.548  1.1201  0.1265  0.4117
 9064TIP3   OH248606   3.707   3.119  13.587 -0.4747  0.4819 -0.2843
 9064TIP3    H148607   3.775   3.053  13.580  0.1591  1.0149  0.6405
 9064TIP3    H248608   3.744   3.186  13.644 -1.0118  1.7494 -1.3687
 9065TIP3   OH248609   4.563   4.841  17.041  0.6386 -0.0138  0.3694
 9065TIP3    H148610   4.476   4.876  17.023  1.0504  0.3871 -1.0263
 9065TIP3    H248611   4.568   4.760  16.989  0.6373 -0.7653  1.4981
 9066TIP3   OH248612   2.986   5.321  16.154  0.3167  0.3169  0.5019
 9066TIP3    H148613   2.967   5.274  16.235 -1.2413 -0.7430 -0.4329
 9066TIP3    H248614   2.964   5.412  16.173 -0.1725  0.0540  1.2238
 9067TIP3   OH248615   5.884   4.433   5.831 -0.1073  0.3233  0.4386
 9067TIP3    H148616   5.918   4.388   5.909 -1.2006  1.1799  1.4532
 9067TIP3    H248617   5.953   4.422   5.765  0.6991 -0.7247  1.4153
 9068TIP3   OH248618   1.921   4.211  11.945 -0.1841  0.3862 -0.8665
 9068TIP3    H148619   2.014   4.226  11.927 -0.2950  0.2688 -1.5636
 9068TIP3    H248620   1.877   4.235  11.863 -0.7218 -0.0346 -0.7023
 9069TIP3   OH248621   5.801   4.992   1.975  0.4017  0.3283 -0.3809
 9069TIP3    H148622   5.765   5.042   1.902  0.6872  1.0524 -0.0314
 9069TIP3    H248623   5.871   5.047   2.009 -0.6024  0.6247  1.2944
 9070TIP3   OH248624   0.043   5.574  14.454 -0.0474 -0.3403  0.1754
 9070TIP3    H148625   0.060   5.633  14.527 -0.5098 -0.8524  0.6975
 9070TIP3    H248626  -0.009   5.503  14.491 -3.1782  1.0170 -1.2694
 9071TIP3   OH248627   6.633   1.804  12.605  0.2133 -0.3523 -0.2886
 9071TIP3    H148628   6.636   1.853  12.522  1.4949  1.0941  0.5525
 9071TIP3    H248629   6.654   1.870  12.672 -0.9999 -1.4448  1.2217
 9072TIP3   OH248630   1.248   0.047  16.128  0.5693 -0.1224  0.1208
 9072TIP3    H148631   1.326   0.098  16.108  0.0978  1.0284  1.1289
 9072TIP3    H248632   1.268  -0.041  16.097  1.2164  0.7473 -2.1188
 9073TIP3   OH248633   6.016   2.634  16.009 -0.1077 -0.1837  0.0796
 9073TIP3    H148634   6.059   2.548  16.011 -3.7954 -2.3586 -2.4918
 9073TIP3    H248635   6.051   2.676  15.931 -0.2680 -0.5105 -0.1678
 9074TIP3   OH248636   2.647   3.545  16.979 -0.6722  0.2773  0.1591
 9074TIP3    H148637   2.725   3.570  16.930 -0.1543 -0.4925  0.5681
 9074TIP3    H248638   2.622   3.625  17.025  0.0421  0.4664  0.2378
 9075TIP3   OH248639   3.497   3.806  14.081  0.3075 -0.3469 -0.1707
 9075TIP3    H148640   3.445   3.823  14.159 -1.3392  0.8438 -1.4403
 9075TIP3    H248641   3.583   3.781  14.114 -0.0388  1.0799  2.0084
 9076TIP3   OH248642   0.358   4.585  15.494  0.2762  0.0591  0.6614
 9076TIP3    H148643   0.397   4.640  15.426 -1.4972  0.3864 -0.1619
 9076TIP3    H248644   0.323   4.647  15.558 -1.6627 -0.0294 -0.2300
 9077TIP3   OH248645   0.507   4.286   0.304 -0.1354 -0.0314  0.6460
 9077TIP3    H148646   0.497   4.381   0.310  0.5957  0.1133 -0.1022
 9077TIP3    H248647   0.595   4.269   0.339 -0.8690 -0.6235  2.2378
 9078TIP3   OH248648   1.664   6.741  13.450 -0.3652 -0.3514 -0.2807
 9078TIP3    H148649   1.724   6.688  13.397  1.7376  1.6553 -0.0586
 9078TIP3    H248650   1.624   6.802  13.388 -1.0954 -0.7155 -0.1818
 9079TIP3   OH248651   3.469   0.387  15.898 -0.2159 -0.6186  0.7090
 9079TIP3    H148652   3.400   0.428  15.845 -0.4162 -0.6341  0.9598
 9079TIP3    H248653   3.480   0.299  15.860  0.3677 -0.2714  0.0269
 9080TIP3   OH248654   0.598   3.874   2.415  0.1549 -0.0788 -0.7757
 9080TIP3    H148655   0.521   3.854   2.468 -0.5148 -0.6206 -1.9216
 9080TIP3    H248656   0.664   3.811   2.443  0.2556  0.4820  0.3163
 9081TIP3   OH248657   6.445   1.291   5.903  0.5009 -0.1620  0.0433
 9081TIP3    H148658   6.537   1.293   5.931  1.0515 -1.2798 -1.5499
 9081TIP3    H248659   6.435   1.368   5.847  0.0803  0.6731  1.2182
 9082TIP3   OH248660   3.731   6.665   1.793  0.3100  0.2721 -0.4081
 9082TIP3    H148661   3.794   6.648   1.722  0.3199 -0.9616 -0.1195
 9082TIP3    H248662   3.766   6.617   1.868 -0.4664  0.3785  0.0277
 9083TIP3   OH248663   6.537   0.555   0.746 -0.1218 -0.6810  0.3308
 9083TIP3    H148664   6.462   0.571   0.688  0.4700  0.2971 -0.1848
 9083TIP3    H248665   6.504   0.576   0.833 -0.6986 -1.0934  0.2229
 9084TIP3   OH248666   2.745   1.492  12.372 -0.2534 -0.0286 -0.4072
 9084TIP3    H148667   2.717   1.518  12.284  0.0031 -0.2612 -0.5577
 9084TIP3    H248668   2.792   1.410  12.359  1.3268  0.8114 -0.2859
 9085TIP3   OH248669   5.112   3.331   1.681  0.1132 -0.4064 -1.3325
 9085TIP3    H148670   5.041   3.268   1.687 -1.0969  1.0399  1.8979
 9085TIP3    H248671   5.179   3.297   1.741 -0.1798  0.8618 -0.2459
 9086TIP3   OH248672   2.231   5.834  12.776 -0.4846 -0.0530  0.5469
 9086TIP3    H148673   2.163   5.897  12.753  0.0464 -0.1230 -1.3424
 9086TIP3    H248674   2.203   5.751  12.738  0.0151 -0.4022  0.9105
 9087TIP3   OH248675   0.023   3.701   3.138 -0.3493 -0.2577 -0.2106
 9087TIP3    H148676   0.014   3.764   3.209 -0.9797 -3.0458  2.4112
 9087TIP3    H248677   0.106   3.724   3.095  0.6118  0.9305  2.1125
 9088TIP3   OH248678   1.549   5.803   2.555  0.3078  0.9432 -0.3541
 9088TIP3    H148679   1.592   5.724   2.588  0.7549  0.7227 -1.4241
 9088TIP3    H248680   1.597   5.825   2.475 -2.1856  0.0363 -2.2310
 9089TIP3   OH248681   5.847   2.400  12.689 -0.5010  0.6882 -0.3300
 9089TIP3    H148682   5.817   2.382  12.778 -1.1066 -1.7591 -0.9555
 9089TIP3    H248683   5.770   2.433  12.643 -1.4211 -2.1001 -0.9779
 9090TIP3   OH248684   0.379   3.419   4.970  0.2678 -0.2863  0.3949
 9090TIP3    H148685   0.365   3.358   5.043  0.5509  0.0874  0.7647
 9090TIP3    H248686   0.457   3.469   4.996 -0.2501  0.5704  0.3179
 9091TIP3   OH248687   1.935   6.719  11.825 -0.1424  0.0162 -0.1415
 9091TIP3    H148688   1.931   6.626  11.801 -0.0006  0.2165 -0.9806
 9091TIP3    H248689   2.028   6.738  11.830 -0.1346 -0.3765  2.0972
 9092TIP3   OH248690   3.351   0.775  16.867  0.0162 -0.2549 -0.0921
 9092TIP3    H148691   3.423   0.718  16.893 -0.1984 -0.3413  0.3196
 9092TIP3    H248692   3.326   0.821  16.947  0.4203  0.6877 -0.4882
 9093TIP3   OH248693   3.722   1.360   2.114  0.3804 -0.3088  0.2313
 9093TIP3    H148694   3.745   1.315   2.196 -1.0876 -0.9697  0.3118
 9093TIP3    H248695   3.643   1.410   2.135  0.2419 -0.1324 -0.6703
 9094TIP3   OH248696   5.964   3.692   3.043  0.1475  0.2851 -0.0569
 9094TIP3    H148697   5.881   3.695   3.091  0.1512 -1.6686  0.1194
 9094TIP3    H248698   6.029   3.727   3.105 -0.0299 -1.1890  1.0085
 9095TIP3   OH248699   4.776   6.658  14.868  0.0216  0.0033  0.7123
 9095TIP3    H148700   4.826   6.739  14.859 -1.0687  0.7654  1.3550
 9095TIP3    H248701   4.686   6.683  14.850  0.0433 -1.7443 -2.5564
 9096TIP3   OH248702   5.069   4.331  14.712  0.0348 -0.1332 -0.1185
 9096TIP3    H148703   5.108   4.245  14.725 -0.7659 -0.3491  1.0432
 9096TIP3    H248704   5.021   4.323  14.629  1.0951 -0.3530 -0.7318
 9097TIP3   OH248705   5.652   5.951  10.505  0.2437 -0.4796  0.4690
 9097TIP3    H148706   5.619   5.864  10.484 -1.8208  0.4198 -0.2103
 9097TIP3    H248707   5.615   6.008  10.438  2.1349  0.8463  0.4758
 9098TIP3   OH248708   4.478   2.205   0.909  1.2362  0.3411 -0.0412
 9098TIP3    H148709   4.487   2.151   0.830  0.2494  1.1397 -0.7270
 9098TIP3    H248710   4.567   2.210   0.944  1.3559 -1.7475  0.0756
 9099TIP3   OH248711   6.729   3.376  16.795 -0.3442 -0.4432 -0.2425
 9099TIP3    H148712   6.701   3.309  16.733 -3.1125  0.7402 -0.4012
 9099TIP3    H248713   6.670   3.450  16.780  1.6139  1.5084  0.9533
 9100TIP3   OH248714   2.304   4.461   1.986  0.3810  0.3276 -0.2231
 9100TIP3    H148715   2.294   4.366   1.978 -0.0558  0.4128 -0.7257
 9100TIP3    H248716   2.340   4.473   2.074  1.8539 -0.3980 -0.6845
 9101TIP3   OH248717   1.111   2.900  13.430 -0.6810  0.3130  0.2469
 9101TIP3    H148718   1.177   2.936  13.371  0.0347 -0.9030  0.2913
 9101TIP3    H248719   1.034   2.956  13.416  0.7001  2.5476  1.1230
 9102TIP3   OH248720   4.912   3.018   0.919  0.1404 -0.4578 -0.2053
 9102TIP3    H148721   4.916   2.976   1.005 -0.0044 -0.2408 -0.0887
 9102TIP3    H248722   4.999   3.055   0.906 -0.1604  0.5353  0.3867
 9103TIP3   OH248723   2.003   1.076  14.154 -0.3728  0.9900  0.1390
 9103TIP3    H148724   2.052   1.151  14.119  0.2784  1.1910  1.4241
 9103TIP3    H248725   1.949   1.113  14.223 -0.3182  0.3402  0.5361
 9104TIP3   OH248726   0.256   3.636   1.297  0.1632  0.4856  0.2633
 9104TIP3    H148727   0.307   3.563   1.263 -1.4013 -0.7210  0.4094
 9104TIP3    H248728   0.299   3.714   1.261  0.5212 -0.6011 -1.8152
 9105TIP3   OH248729   4.205   3.065  15.721  0.9822  0.3068 -0.5413
 9105TIP3    H148730   4.267   2.992  15.720  0.6959  0.0419  0.1932
 9105TIP3    H248731   4.185   3.078  15.814  0.0198  0.4530 -0.7623
 9106TIP3   OH248732   0.679   5.233   0.758  0.3430  0.0794 -0.2196
 9106TIP3    H148733   0.680   5.209   0.666 -0.1501 -2.3184  0.3396
 9106TIP3    H248734   0.604   5.291   0.767  0.1890  0.0504 -1.2508
 9107TIP3   OH248735   1.429   3.107  11.881  0.1316  0.3218  0.5046
 9107TIP3    H148736   1.344   3.126  11.922  0.1895 -0.3914  0.9774
 9107TIP3    H248737   1.491   3.158  11.933  0.0528  0.4452  0.4793
 9108TIP3   OH248738   4.553   5.026   5.075 -0.1252  0.2733 -0.0139
 9108TIP3    H148739   4.527   5.116   5.096 -1.0109  0.2396 -0.8981
 9108TIP3    H248740   4.564   5.026   4.980  1.8749 -0.0594  0.1723
 9109TIP3   OH248741   2.017   0.780   4.963 -0.2058 -0.6299  0.9407
 9109TIP3    H148742   1.981   0.701   5.004 -2.9690  0.5796  1.1066
 9109TIP3    H248743   2.003   0.767   4.869  0.6049 -0.9087  0.8576
 9110TIP3   OH248744   4.005   2.724   5.260  0.1292 -0.3248 -0.2192
 9110TIP3    H148745   4.067   2.673   5.313  0.3731 -0.1762 -0.3576
 9110TIP3    H248746   4.015   2.814   5.291  2.1031  0.2334 -2.1485
 9111TIP3   OH248747   0.701   4.235  14.813 -0.1870  0.6638  0.5734
 9111TIP3    H148748   0.635   4.262  14.749  0.3284 -1.9217 -1.2300
 9111TIP3    H248749   0.658   4.244  14.897 -3.3116 -1.7104 -0.5513
 9112TIP3   OH248750   6.291   3.507   3.452  0.3445  0.2245 -0.4529
 9112TIP3    H148751   6.224   3.540   3.512  1.3090 -0.5172  1.1085
 9112TIP3    H248752   6.353   3.461   3.508  2.6188  1.5446 -1.6827
 9113TIP3   OH248753   3.800   4.464   3.792 -0.2410 -0.5444 -0.2742
 9113TIP3    H148754   3.831   4.448   3.703  1.0187  0.8332 -0.1215
 9113TIP3    H248755   3.842   4.546   3.818 -1.0214 -0.6279  1.3987
 9114TIP3   OH248756   1.118   6.721  16.772 -0.0458 -0.3563 -0.7129
 9114TIP3    H148757   1.191   6.670  16.806 -0.2278 -0.2892 -0.2185
 9114TIP3    H248758   1.046   6.657  16.764 -0.6729  0.0687  1.1577
 9115TIP3   OH248759   3.737   6.724   1.009  0.1362 -0.6797 -0.0258
 9115TIP3    H148760   3.808   6.700   1.068  0.1668  0.0971  0.2656
 9115TIP3    H248761   3.771   6.798   0.959 -0.5374 -0.1418  0.2860
 9116TIP3   OH248762   3.130   3.283   5.087 -0.6942  0.5045 -0.1368
 9116TIP3    H148763   3.135   3.198   5.130 -1.6449  0.9190  0.8709
 9116TIP3    H248764   3.055   3.276   5.028  0.1916  0.1571 -1.2527
 9117TIP3   OH248765   5.189   3.281   3.445  0.5869  0.4978  0.6513
 9117TIP3    H148766   5.222   3.330   3.370  0.1068 -1.6049 -1.0537
 9117TIP3    H248767   5.257   3.216   3.462 -0.9949 -1.6802 -0.7147
 9118TIP3   OH248768   6.573   3.830  11.322 -0.3354 -0.5204 -0.0235
 9118TIP3    H148769   6.641   3.882  11.365 -1.1805  0.9528 -0.4209
 9118TIP3    H248770   6.514   3.894  11.283 -2.7591 -1.6962  1.4630
 9119TIP3   OH248771   3.257   3.329   6.786 -0.1555 -0.0517  0.0298
 9119TIP3    H148772   3.252   3.421   6.813  0.9815  0.4884 -1.4551
 9119TIP3    H248773   3.222   3.328   6.697  3.1786 -0.3038 -1.4274
 9120TIP3   OH248774   1.366   0.681   3.317  0.1629 -0.4193 -0.6411
 9120TIP3    H148775   1.359   0.734   3.396  2.1989 -2.2850  0.9368
 9120TIP3    H248776   1.328   0.596   3.341  0.0539 -0.7683 -1.9389
 9121TIP3   OH248777   1.635   5.902  11.507  0.0110  0.4266 -0.4073
 9121TIP3    H148778   1.714   5.907  11.560  0.6801 -0.6199 -1.2447
 9121TIP3    H248779   1.644   5.974  11.444  0.1859  0.4479 -0.3583
 9122TIP3   OH248780   6.137   3.528   1.519 -0.2432  0.4215  0.0755
 9122TIP3    H148781   6.114   3.574   1.438 -1.4640  0.7151  0.5713
 9122TIP3    H248782   6.181   3.593   1.573 -1.1942  0.7853  0.4278
 9123TIP3   OH248783   6.325   2.922  10.864 -0.2936  0.1184 -0.0531
 9123TIP3    H148784   6.274   2.965  10.795  1.8334  0.1057 -1.7572
 9123TIP3    H248785   6.313   2.829  10.847  3.0739 -0.0158 -2.9517
 9124TIP3   OH248786   4.478   5.467   1.928 -0.3605  0.3906 -0.2465
 9124TIP3    H148787   4.562   5.508   1.950 -0.8826  0.3522  2.1053
 9124TIP3    H248788   4.470   5.395   1.991 -3.0369  1.6497  0.9969
 9125TIP3   OH248789   3.542   0.663  12.602  0.2013 -0.1270 -0.6937
 9125TIP3    H148790   3.606   0.722  12.560  0.9706 -1.1668 -1.0272
 9125TIP3    H248791   3.586   0.633  12.681 -0.7169  0.7695  0.1788
 9126TIP3   OH248792   4.424   2.932   3.838  0.9223  0.2853 -0.8984
 9126TIP3    H148793   4.352   2.887   3.882 -0.7361  1.0210 -2.6657
 9126TIP3    H248794   4.502   2.881   3.860 -0.2088 -0.8756  0.6426
 9127TIP3   OH248795   6.401   5.322   4.554  0.4972  0.1554  0.0582
 9127TIP3    H148796   6.307   5.334   4.542  0.2267  0.5061  2.2675
 9127TIP3    H248797   6.441   5.392   4.503 -0.4476  0.5388 -0.1765
 9128TIP3   OH248798   2.431   0.042  16.989 -0.3494  0.2108 -0.5541
 9128TIP3    H148799   2.405   0.095  17.064 -0.6187  0.7792 -1.0391
 9128TIP3    H248800   2.500   0.092  16.947  1.8335 -1.3967  0.8621
 9129TIP3   OH248801   5.928   6.757   2.635  0.0465  0.5772  0.3726
 9129TIP3    H148802   6.010   6.708   2.640 -1.1086 -1.5784 -0.2868
 9129TIP3    H248803   5.912   6.787   2.724  1.0880  0.2140  0.6865
 9130TIP3   OH248804   0.389   3.154  12.809  0.4568  0.0567  0.0297
 9130TIP3    H148805   0.458   3.218  12.823 -0.7448  1.1662  1.0723
 9130TIP3    H248806   0.320   3.178  12.871 -0.8913 -0.9934 -0.9895
 9131TIP3   OH248807   0.958   4.020  16.272 -0.1468  0.4300 -0.0115
 9131TIP3    H148808   0.912   4.089  16.319  2.1374  1.6033  0.6834
 9131TIP3    H248809   0.890   3.970  16.228 -2.0854  1.5315  1.5977
 9132TIP3   OH248810   1.904   0.337   5.390  0.3202  0.1940  0.0845
 9132TIP3    H148811   1.836   0.270   5.402  0.2138  0.0851 -1.0539
 9132TIP3    H248812   1.975   0.291   5.345 -1.1006  1.5261 -3.9845
 9133TIP3   OH248813   3.710   4.518   1.545  0.2667 -0.6180 -0.1037
 9133TIP3    H148814   3.749   4.448   1.597 -0.6451 -0.8327  0.3306
 9133TIP3    H248815   3.625   4.482   1.517 -0.5432  0.5667  0.7440
 9134TIP3   OH248816   5.815   6.228  11.483  0.4635 -0.1505  0.1385
 9134TIP3    H148817   5.882   6.272  11.535 -1.0438  2.0991  0.3249
 9134TIP3    H248818   5.813   6.276  11.401 -0.9682 -0.0928  0.1823
 9135TIP3   OH248819   4.007   2.597  14.388 -0.1866  0.4460  0.0735
 9135TIP3    H148820   4.029   2.505  14.379 -0.3127  0.4530 -0.3556
 9135TIP3    H248821   4.070   2.632  14.451 -1.3409 -0.3431  1.7463
 9136TIP3   OH248822   3.873   2.450   2.431 -0.2396  0.0048 -0.4427
 9136TIP3    H148823   3.944   2.487   2.379  0.0221  0.9613  0.5574
 9136TIP3    H248824   3.827   2.526   2.466  1.7657 -0.3844  3.6992
 9137TIP3   OH248825   2.328   2.283  13.534 -0.4575 -0.1424  0.3791
 9137TIP3    H148826   2.244   2.324  13.514 -0.2369 -0.8701 -2.3781
 9137TIP3    H248827   2.307   2.190  13.544  0.1519 -0.5867 -1.9323
 9138TIP3   OH248828   4.489   3.599  10.838  0.4007 -0.1372 -0.3983
 9138TIP3    H148829   4.413   3.602  10.896  1.0209  0.7819  0.3870
 9138TIP3    H248830   4.516   3.507  10.840  0.2234 -0.1820  0.5392
 9139TIP3   OH248831   0.274   4.483   3.124  0.7399  0.1896  0.1767
 9139TIP3    H148832   0.186   4.445   3.132  1.0101 -0.7772 -1.2192
 9139TIP3    H248833   0.284   4.534   3.205 -1.0417  0.2231  0.4360
 9140TIP3   OH248834   4.946   4.599  17.120  0.0120 -0.2505  0.0162
 9140TIP3    H148835   4.894   4.678  17.131 -0.3775 -0.3088 -1.2171
 9140TIP3    H248836   5.031   4.620  17.160  0.3789  1.2940 -1.4453
 9141TIP3   OH248837   1.762   3.540  15.079  0.1384  0.3762 -0.4272
 9141TIP3    H148838   1.670   3.554  15.055 -0.8259 -1.1782  1.9073
 9141TIP3    H248839   1.803   3.507  14.999 -1.6515 -0.0344 -1.2346
 9142TIP3   OH248840   4.933   1.058   2.704  0.4243 -0.3042 -0.6313
 9142TIP3    H148841   4.956   1.092   2.618 -2.2789  1.1239 -0.9061
 9142TIP3    H248842   4.845   1.022   2.692  0.1938 -0.5330  1.4163
 9143TIP3   OH248843   0.084   3.002  12.950  0.7046  0.1938  0.2805
 9143TIP3    H148844   0.092   3.083  12.900  0.4407 -0.1347 -0.2907
 9143TIP3    H248845   0.013   2.955  12.909  1.9321 -1.0937 -0.4591
 9144TIP3   OH248846   4.539   3.565   6.324  0.2743  0.7861 -0.2210
 9144TIP3    H148847   4.461   3.556   6.378  0.6460  0.3223  0.2603
 9144TIP3    H248848   4.506   3.577   6.235 -0.3450 -0.7332 -0.2262
 9145TIP3   OH248849   5.675   0.012   3.142 -0.2565 -0.1732 -0.7236
 9145TIP3    H148850   5.698   0.059   3.222  0.5313 -2.4488  0.4763
 9145TIP3    H248851   5.734   0.049   3.075  1.4017 -0.4610  0.5153
 9146TIP3   OH248852   5.067   6.732   6.525  0.0937  0.5222  0.5478
 9146TIP3    H148853   4.999   6.666   6.516  0.8093 -0.4572  1.8681
 9146TIP3    H248854   5.128   6.714   6.453  0.3114 -0.3158  0.9335
 9147TIP3   OH248855   0.429   6.228  12.053  0.3554  0.2056 -0.3508
 9147TIP3    H148856   0.432   6.216  11.958 -0.3681 -0.2998 -0.3182
 9147TIP3    H248857   0.403   6.320  12.065 -0.3311  0.0603 -0.6576
 9148TIP3   OH248858   4.233   6.492  14.624  0.1218 -0.3864 -0.4992
 9148TIP3    H148859   4.306   6.534  14.580 -0.4815  1.0540 -0.1790
 9148TIP3    H248860   4.166   6.483  14.556  0.0982 -0.4356 -0.4695
 9149TIP3   OH248861   3.970   0.037  11.737  0.6785 -0.0268 -1.0507
 9149TIP3    H148862   4.000   0.127  11.750 -0.5771  0.3641 -0.7959
 9149TIP3    H248863   3.876   0.044  11.719  0.5785 -1.2786 -1.1532
 9150TIP3   OH248864   1.346   2.241   3.205  0.1769 -0.1713  0.2924
 9150TIP3    H148865   1.378   2.202   3.124 -2.0070 -1.7372  0.0901
 9150TIP3    H248866   1.292   2.314   3.177 -0.3842 -0.5650  0.3339
 9151TIP3   OH248867   3.415   1.056  15.465  0.3550  0.5249  0.1688
 9151TIP3    H148868   3.489   1.000  15.442 -0.5259 -0.4255 -0.4055
 9151TIP3    H248869   3.455   1.142  15.481  1.6126 -0.0332  0.1622
 9152TIP3   OH248870   3.495   0.225   1.912 -0.2806 -0.2508  1.1547
 9152TIP3    H148871   3.469   0.149   1.860  1.1099  0.8453 -1.2691
 9152TIP3    H248872   3.458   0.207   1.999 -1.9212 -2.5999  0.0951
 9153TIP3   OH248873   2.851   3.116  11.862  0.3037 -0.0674  0.4401
 9153TIP3    H148874   2.832   3.023  11.878  1.3109 -0.5164 -0.7764
 9153TIP3    H248875   2.805   3.135  11.780  0.2890  0.4489  0.5693
 9154TIP3   OH248876   1.284   3.844   1.978  0.3343 -0.2265 -0.0001
 9154TIP3    H148877   1.331   3.823   1.897 -1.5734  0.2108 -1.2723
 9154TIP3    H248878   1.292   3.939   1.985  1.5400 -0.3712  1.0465
 9155TIP3   OH248879   5.856   3.855  12.798 -0.2098  0.3215 -0.2736
 9155TIP3    H148880   5.915   3.863  12.873  0.6443  1.0446 -0.9805
 9155TIP3    H248881   5.848   3.761  12.783  2.4317  0.1559 -1.3487
 9156TIP3   OH248882   6.011   4.230   1.301  0.3481  0.0390  0.3010
 9156TIP3    H148883   5.925   4.222   1.342 -0.0005  0.2227 -0.3773
 9156TIP3    H248884   6.032   4.323   1.307  0.4246  0.0204  0.3194
 9157TIP3   OH248885   3.536   3.781   2.336  0.5868 -0.1958 -0.4083
 9157TIP3    H148886   3.526   3.820   2.249  1.9628 -1.9525 -1.4193
 9157TIP3    H248887   3.503   3.692   2.325  0.0848 -0.2175  1.1013
 9158TIP3   OH248888   6.426   3.587  10.985  0.1974 -0.0792 -0.0801
 9158TIP3    H148889   6.377   3.515  11.025 -1.5903  2.0113  1.7723
 9158TIP3    H248890   6.369   3.620  10.916  0.7120  0.0093 -0.4721
 9159TIP3   OH248891   0.323   6.557   0.373  0.0818  0.0981 -0.1399
 9159TIP3    H148892   0.414   6.528   0.386 -0.0031  0.3731  1.2592
 9159TIP3    H248893   0.281   6.541   0.458 -0.8487  1.1795 -0.3794
 9160TIP3   OH248894   4.697   4.303  16.868 -0.2939 -0.1909  0.3429
 9160TIP3    H148895   4.769   4.366  16.871 -1.1908  0.8294  1.2797
 9160TIP3    H248896   4.736   4.220  16.895  0.3502  0.5621  1.8382
 9161TIP3   OH248897   4.867   1.657   5.384 -0.4031  0.3832  0.3235
 9161TIP3    H148898   4.865   1.739   5.336  0.7874  0.2552  0.0210
 9161TIP3    H248899   4.898   1.681   5.472  0.7753  0.1554 -0.0193
 9162TIP3   OH248900   0.044   3.194  16.060 -0.1288  0.2276  0.1726
 9162TIP3    H148901   0.035   3.242  15.978  2.6908 -0.9410 -0.9668
 9162TIP3    H248902   0.074   3.259  16.123 -3.5400  1.4136  0.7506
 9163TIP3   OH248903   5.351   6.208  11.457  0.1081 -0.0451 -0.1639
 9163TIP3    H148904   5.303   6.137  11.500  2.3483 -0.8593  1.1855
 9163TIP3    H248905   5.320   6.206  11.366 -1.1449 -1.6067  0.2357
 9164TIP3   OH248906   1.705   5.135  15.348 -0.4945  0.1041  0.5445
 9164TIP3    H148907   1.619   5.126  15.308 -1.0755 -1.2004  1.9817
 9164TIP3    H248908   1.687   5.155  15.440  0.7598  0.5387  0.7163
 9165TIP3   OH248909   2.344   0.145  13.761 -0.6106 -0.0840 -0.3534
 9165TIP3    H148910   2.296   0.062  13.755 -0.3780 -0.2642  0.1963
 9165TIP3    H248911   2.424   0.129  13.711  1.1616 -1.4658  2.6579
 9166TIP3   OH248912   3.964   5.553  13.748 -0.1735  0.6220  0.2227
 9166TIP3    H148913   3.882   5.602  13.739 -0.5514  0.5191  2.5248
 9166TIP3    H248914   4.019   5.586  13.678 -1.9177  1.2342 -0.9258
 9167TIP3   OH248915   2.891   5.153  15.348 -0.1688 -0.4023  0.1805
 9167TIP3    H148916   2.849   5.234  15.377  0.4818 -0.3065  0.9090
 9167TIP3    H248917   2.980   5.159  15.384 -0.3388 -1.7673  0.8931
 9168TIP3   OH248918   2.416   4.508   3.145  0.5030 -0.1232  0.1437
 9168TIP3    H148919   2.425   4.439   3.211 -0.0480  0.0193  0.3715
 9168TIP3    H248920   2.502   4.511   3.103  1.2501  0.5854  1.6351
 9169TIP3   OH248921   6.760   4.338  11.226  0.2834 -0.1664  0.0194
 9169TIP3    H148922   6.741   4.269  11.163 -0.0351  0.0866 -0.1659
 9169TIP3    H248923   6.817   4.398  11.179 -1.9206  1.3344 -0.9183
 9170TIP3   OH248924   0.491   2.251   2.812  0.6263 -0.0995 -0.0183
 9170TIP3    H148925   0.550   2.317   2.850 -1.0464  1.1465  0.5433
 9170TIP3    H248926   0.408   2.296   2.803 -1.4870 -2.8950  3.1701
 9171TIP3   OH248927   0.465   5.021   1.288 -0.2445  0.1278 -0.9692
 9171TIP3    H148928   0.509   4.948   1.331 -0.9615 -2.0547 -3.6509
 9171TIP3    H248929   0.389   5.039   1.344  1.1580  0.4724  0.9473
 9172TIP3   OH248930   5.122   2.670   0.568  0.2866  0.4821 -0.3361
 9172TIP3    H148931   5.047   2.684   0.625  1.0915  1.9541  0.4391
 9172TIP3    H248932   5.098   2.713   0.486 -0.1448 -0.0215 -0.4777
 9173TIP3   OH248933   6.636   5.482   2.375  0.0218  0.0598  0.1947
 9173TIP3    H148934   6.616   5.541   2.448  1.5968 -0.7027  1.2815
 9173TIP3    H248935   6.697   5.532   2.320  1.6177 -0.6101  1.2879
 9174TIP3   OH248936   0.309   5.670   1.585  0.1558 -0.1419  0.2791
 9174TIP3    H148937   0.362   5.750   1.589 -2.6105  2.1066 -2.5148
 9174TIP3    H248938   0.251   5.676   1.661  0.4610  0.1169  0.4940
 9175TIP3   OH248939   6.660   4.148  15.387  0.1144  0.0867 -0.6175
 9175TIP3    H148940   6.608   4.117  15.314 -0.0922  0.9875 -0.8558
 9175TIP3    H248941   6.660   4.243  15.379  0.2350  0.1926  0.4503
 9176TIP3   OH248942   5.129   1.451  17.034  0.1632  0.2798 -0.1495
 9176TIP3    H148943   5.114   1.545  17.044 -1.3876 -0.0206  0.7139
 9176TIP3    H248944   5.061   1.423  16.974  0.1868 -0.3997  0.1338
 9177TIP3   OH248945   2.051   5.872   2.719  0.8866  0.1334 -0.3266
 9177TIP3    H148946   1.984   5.837   2.778 -0.1465 -0.3291 -1.7082
 9177TIP3    H248947   2.038   5.967   2.721  0.6893  0.1001 -0.0161
 9178TIP3   OH248948   6.609   4.723   1.695  0.6035  0.5344 -0.0126
 9178TIP3    H148949   6.659   4.647   1.663 -0.0478  0.7696 -1.6988
 9178TIP3    H248950   6.558   4.689   1.768  0.5339 -0.6093 -0.5660
 9179TIP3   OH248951   0.676   1.338   1.930 -0.1282 -0.0696  0.2458
 9179TIP3    H148952   0.716   1.367   1.848 -0.9735  1.7616  0.4231
 9179TIP3    H248953   0.582   1.336   1.911 -0.3417  0.5149  1.1955
 9180TIP3   OH248954   2.710   6.540  16.203 -0.3348  0.7118 -0.2619
 9180TIP3    H148955   2.714   6.591  16.284  1.7699  0.3988 -0.1067
 9180TIP3    H248956   2.763   6.462  16.221  0.4121  0.7747 -1.9963
 9181TIP3   OH248957   0.887   3.061  11.323  0.0158 -0.3384 -0.2093
 9181TIP3    H148958   0.803   3.056  11.368 -1.2160  0.1371 -2.3502
 9181TIP3    H248959   0.929   3.139  11.360 -0.5800 -0.4145  0.6648
 9182TIP3   OH248960   3.542   1.001  16.881  0.3053  0.8380  0.3358
 9182TIP3    H148961   3.606   0.953  16.934  1.8495  0.4616 -1.7119
 9182TIP3    H248962   3.475   0.937  16.860  0.2589  0.6988  0.8875
 9183TIP3   OH248963   5.913   1.338   5.254  0.7889  0.4558 -0.5072
 9183TIP3    H148964   5.823   1.370   5.247  0.4252 -0.8164 -2.4670
 9183TIP3    H248965   5.961   1.411   5.292 -1.2414  0.7608  1.6865
 9184TIP3   OH248966   5.702   6.592   2.617  0.3882  0.0195  0.0801
 9184TIP3    H148967   5.796   6.611   2.610  0.1130  1.1628 -0.6662
 9184TIP3    H248968   5.674   6.641   2.694  0.5266 -0.8961  0.7314
 9185TIP3   OH248969   5.099   0.769  15.728  0.2813 -0.0255  0.2859
 9185TIP3    H148970   5.088   0.859  15.759 -1.7260 -0.1626  0.0756
 9185TIP3    H248971   5.043   0.763  15.651  1.7950 -0.9687 -0.8106
 9186TIP3   OH248972   5.262   6.166   3.181  0.0823  0.1329  0.0311
 9186TIP3    H148973   5.325   6.145   3.112  0.7919 -0.6175  0.8815
 9186TIP3    H248974   5.238   6.257   3.164  1.4759  0.4716 -0.2781
 9187TIP3   OH248975   3.748   5.444  16.920 -0.1836 -0.2364  0.2823
 9187TIP3    H148976   3.735   5.370  16.862  0.6856 -0.5430  0.4648
 9187TIP3    H248977   3.696   5.423  16.998  0.3994 -0.8633  0.5100
 9188TIP3   OH248978   3.639   1.237   4.692 -0.0228 -0.2338  0.1255
 9188TIP3    H148979   3.707   1.275   4.748  0.7073 -2.0462  0.5634
 9188TIP3    H248980   3.662   1.266   4.604  0.2025  0.7401  0.5005
 9189TIP3   OH248981   6.088   4.379  12.580 -0.5661  0.4854  0.2966
 9189TIP3    H148982   6.029   4.322  12.630  1.1925  0.0097  1.9526
 9189TIP3    H248983   6.046   4.465  12.582 -2.0960 -0.2234 -0.1918
 9190TIP3   OH248984   4.667   0.637   3.520  0.1228  0.1349  0.2919
 9190TIP3    H148985   4.661   0.645   3.615  0.5448  1.5302  0.2209
 9190TIP3    H248986   4.683   0.726   3.489  0.7427 -0.4043 -1.0290
 9191TIP3   OH248987   1.862   3.502   5.659 -0.3356 -0.3436  0.0337
 9191TIP3    H148988   1.819   3.451   5.590 -2.1364  0.2586  0.6562
 9191TIP3    H248989   1.842   3.456   5.740 -0.0244  0.0884  0.3637
 9192TIP3   OH248990   2.924   3.966   1.892  0.0817  0.0670 -0.1667
 9192TIP3    H148991   2.878   4.047   1.915 -1.3208 -0.7277 -0.0530
 9192TIP3    H248992   2.854   3.903   1.874  1.1481 -0.8258 -1.3497
 9193TIP3   OH248993   2.333   0.027  12.903 -0.5493  0.3982 -0.0174
 9193TIP3    H148994   2.251   0.076  12.903 -0.7044  0.1445  0.5603
 9193TIP3    H248995   2.314  -0.053  12.854 -0.9918 -0.2087  1.1041
 9194TIP3   OH248996   4.690   4.192   5.906  0.4231  0.3358  0.4247
 9194TIP3    H148997   4.753   4.242   5.854  0.6362  2.5785  2.6452
 9194TIP3    H248998   4.613   4.185   5.850  1.4989  0.3748 -1.1363
 9195TIP3   OH248999   4.054   6.269   4.084  0.3513  0.1080 -0.4415
 9195TIP3    H149000   4.140   6.277   4.125  1.3664 -3.1373 -1.6061
 9195TIP3    H249001   4.001   6.337   4.126  3.1071  1.4172  1.2189
 9196TIP3   OH249002   5.056   1.781   1.487  0.0464  0.3247  0.3451
 9196TIP3    H149003   5.004   1.700   1.482 -0.4201  0.6534 -0.1588
 9196TIP3    H249004   5.037   1.827   1.406  1.7215  0.1017 -0.2175
 9197TIP3   OH249005   0.233   5.832  11.275  0.4014  0.3105  0.0472
 9197TIP3    H149006   0.163   5.829  11.341  1.2394  1.2850  1.0135
 9197TIP3    H249007   0.239   5.742  11.244  0.8700 -0.5075  2.2897
 9198TIP3   OH249008   2.630   6.244   0.124  0.9043  0.1085 -0.4383
 9198TIP3    H149009   2.718   6.282   0.125  1.8654 -1.9405 -1.1973
 9198TIP3    H249010   2.589   6.275   0.205  2.4944  0.7495  0.1472
 9199TIP3   OH249011   4.044   4.702  12.663 -0.3739  0.2076 -0.3157
 9199TIP3    H149012   4.047   4.796  12.646 -1.2253  0.3286  0.1640
 9199TIP3    H249013   3.983   4.668  12.598 -0.1146 -0.0079 -0.4484
 9200TIP3   OH249014   2.839   6.148  11.042 -0.3378 -0.7072 -0.9366
 9200TIP3    H149015   2.932   6.167  11.031 -0.5314  2.2138  1.2863
 9200TIP3    H249016   2.836   6.057  11.073  2.0122 -0.2440  0.9415
 9201TIP3   OH249017   4.687   5.423  16.858  0.5570  0.3926  0.6649
 9201TIP3    H149018   4.614   5.480  16.883  1.6376  2.7576 -1.1888
 9201TIP3    H249019   4.678   5.413  16.763  1.6516 -0.7411  0.6628
 9202TIP3   OH249020   2.137   0.432  11.825  0.9698  0.5107  0.8174
 9202TIP3    H149021   2.124   0.477  11.742 -2.7408 -0.6978  0.5478
 9202TIP3    H249022   2.174   0.348  11.801  0.4541  0.3916  0.4120
 9203TIP3   OH249023   4.040   0.221   2.869  0.1720 -0.0252  0.2387
 9203TIP3    H149024   4.072   0.286   2.807  0.2540  1.6115  1.9008
 9203TIP3    H249025   4.116   0.199   2.923  0.4446 -2.4306 -0.9598
 9204TIP3   OH249026   2.547   6.008   0.630 -0.3480 -0.2966  0.1602
 9204TIP3    H149027   2.601   5.932   0.653 -0.8332 -0.6993 -0.0197
 9204TIP3    H249028   2.591   6.082   0.673 -0.6549 -0.8724  1.5143
 9205TIP3   OH249029   5.499   5.487  14.719 -0.1909  0.2345 -0.1356
 9205TIP3    H149030   5.471   5.540  14.793  0.6354  0.2592  0.1667
 9205TIP3    H249031   5.586   5.455  14.743 -1.5221 -3.2339  0.7477
 9206TIP3   OH249032   1.894   0.615   0.001 -0.4735 -0.0193  0.7659
 9206TIP3    H149033   1.886   0.534   0.051  1.0463 -0.9042 -0.3326
 9206TIP3    H249034   1.869   0.590  -0.088  0.7924  0.4934  0.2470
 9207TIP3   OH249035   0.760   3.855  11.902 -0.3687 -0.0162  0.0446
 9207TIP3    H149036   0.696   3.920  11.872  1.3530  0.9233 -1.8356
 9207TIP3    H249037   0.707   3.787  11.945 -2.7158  0.3238 -2.0721
 9208TIP3   OH249038   4.910   2.244  16.582 -0.1174  0.1205 -0.2074
 9208TIP3    H149039   4.983   2.230  16.521  0.8079  1.8111  0.4468
 9208TIP3    H249040   4.837   2.196  16.543  1.5636 -2.4835 -0.3780
 9209TIP3   OH249041   6.462   4.756  16.618  0.0582 -0.2823  0.6190
 9209TIP3    H149042   6.514   4.742  16.697  0.4049  0.9751  0.6321
 9209TIP3    H249043   6.522   4.797  16.556 -0.2406 -1.1702 -0.2799
 9210TIP3   OH249044   0.042   3.131   2.411 -0.7090 -0.5603  0.3101
 9210TIP3    H149045   0.052   3.109   2.504 -0.5084  1.1214  0.7091
 9210TIP3    H249046  -0.041   3.178   2.406 -0.8551 -0.8809 -0.4150
 9211TIP3   OH249047   0.073   6.323   4.530  0.0018 -0.3898 -0.6917
 9211TIP3    H149048   0.108   6.392   4.474 -0.2302  0.1339 -0.2059
 9211TIP3    H249049   0.015   6.369   4.591 -1.5264 -1.2275 -1.4579
 9212TIP3   OH249050   4.924   1.780   2.701  1.2408 -0.0109 -0.3278
 9212TIP3    H149051   4.983   1.845   2.662 -0.2325  1.3789 -0.3829
 9212TIP3    H249052   4.898   1.725   2.627  1.1657  0.4386 -0.6459
 9213TIP3   OH249053   5.541   5.832  12.892 -0.4304 -0.1577 -0.1047
 9213TIP3    H149054   5.557   5.747  12.850 -1.2101 -0.2634 -0.1991
 9213TIP3    H249055   5.624   5.852  12.936 -0.4686 -1.3334  0.5621
 9214TIP3   OH249056   4.780   4.381   1.744 -0.3293  0.6661  0.2668
 9214TIP3    H149057   4.705   4.430   1.709 -0.3413 -0.1254 -0.8779
 9214TIP3    H249058   4.813   4.331   1.669  1.4241  1.0837  0.7225
 9215TIP3   OH249059   1.398   1.692   0.919  0.1168 -0.2587 -0.3195
 9215TIP3    H149060   1.324   1.752   0.935 -0.1081 -0.6791  0.2633
 9215TIP3    H249061   1.382   1.657   0.831  0.8127  1.3219 -1.1104
 9216TIP3   OH249062   0.003   5.975  14.628 -0.3545 -0.0375  0.0259
 9216TIP3    H149063   0.051   5.983  14.710  0.3480 -2.2165 -0.1266
 9216TIP3    H249064  -0.087   5.955  14.654 -0.0896 -0.9258  0.2765
 9217TIP3   OH249065   4.186   1.337   1.147 -0.3640 -0.2207  0.4721
 9217TIP3    H149066   4.239   1.305   1.074 -0.4148 -0.6703  0.6325
 9217TIP3    H249067   4.195   1.270   1.214 -1.4417 -0.4847  0.3677
 9218TIP3   OH249068   3.943   5.418   0.983 -0.1036  0.1780  0.3472
 9218TIP3    H149069   3.933   5.504   1.024  0.3024  1.0975 -1.3761
 9218TIP3    H249070   3.857   5.377   0.991 -0.1409  0.4882  1.7090
 9219TIP3   OH249071   2.238   1.975   0.382  0.0654  0.1103  0.3464
 9219TIP3    H149072   2.248   2.069   0.368 -2.3330  0.1855 -1.5890
 9219TIP3    H249073   2.149   1.965   0.417  0.5233 -1.4216  1.1951
 9220TIP3   OH249074   1.976   2.924  12.639  0.1470 -0.2076 -0.1311
 9220TIP3    H149075   1.889   2.886  12.625  0.2939 -0.8412  0.5778
 9220TIP3    H249076   2.028   2.894  12.564  0.3438 -1.7341  0.5721
 9221TIP3   OH249077   2.569   0.130  16.560 -0.2045  0.3393  0.2689
 9221TIP3    H149078   2.609   0.047  16.537 -0.5763  0.3742 -0.5566
 9221TIP3    H249079   2.563   0.129  16.656  1.1228  0.0541  0.3612
 9222TIP3   OH249080   3.363   0.352   2.945  0.3157 -0.7011  0.1254
 9222TIP3    H149081   3.278   0.319   2.974 -0.1310 -1.7377 -2.1674
 9222TIP3    H249082   3.407   0.379   3.026 -1.3591 -2.0868  1.5720
 9223TIP3   OH249083   4.879   5.000   5.450 -0.0584 -0.2489 -0.0587
 9223TIP3    H149084   4.958   4.960   5.414  0.6042  1.2389 -0.3330
 9223TIP3    H249085   4.908   5.050   5.526 -0.4956  1.2216 -0.7960
 9224TIP3   OH249086   4.175   5.439  10.905 -0.2537 -0.0706 -0.3339
 9224TIP3    H149087   4.204   5.504  10.969 -1.0805 -1.2088  1.2687
 9224TIP3    H249088   4.079   5.449  10.903 -0.4125 -1.3259  0.0894
 9225TIP3   OH249089   6.336   5.244  16.918  0.2075 -0.0782  0.5859
 9225TIP3    H149090   6.399   5.181  16.882  1.1456  1.1429 -0.0065
 9225TIP3    H249091   6.295   5.199  16.991 -0.1097 -1.8417 -0.6351
 9226TIP3   OH249092   4.382   2.896  14.670 -0.0376 -0.1342  0.1798
 9226TIP3    H149093   4.365   2.989  14.685 -0.2679 -0.1030 -0.2614
 9226TIP3    H249094   4.304   2.864  14.624 -0.3257 -0.7275  1.0459
 9227TIP3   OH249095   0.470   5.153  12.028 -0.4631  0.2859  0.0272
 9227TIP3    H149096   0.475   5.206  11.949  0.3640 -0.7462 -0.6343
 9227TIP3    H249097   0.479   5.216  12.100 -0.4003  1.1349 -0.7104
 9228TIP3   OH249098   1.064   3.247   2.812 -0.5579 -0.0585  0.4037
 9228TIP3    H149099   1.008   3.286   2.879 -0.1028 -1.7549  1.8541
 9228TIP3    H249100   1.150   3.285   2.829 -0.5132 -0.2366  0.5862
 9229TIP3   OH249101   0.805   2.505   6.154 -0.3132 -0.0794 -0.2662
 9229TIP3    H149102   0.715   2.485   6.127 -1.3094 -0.1712  2.7755
 9229TIP3    H249103   0.846   2.419   6.162 -0.3260 -0.1069 -0.4820
 9230TIP3   OH249104   0.176   1.189  12.192 -0.0661 -0.3191 -0.2577
 9230TIP3    H149105   0.126   1.258  12.149 -0.1776  0.6128  1.3075
 9230TIP3    H249106   0.230   1.152  12.122 -1.4262  0.0260 -1.5403
 9231TIP3   OH249107   2.106   1.856   1.073  0.5726  0.0304 -0.1330
 9231TIP3    H149108   2.033   1.845   1.135  1.6781  1.0482  1.4334
 9231TIP3    H249109   2.076   1.922   1.012  0.0910  0.2775  0.3593
 9232TIP3   OH249110   5.130   3.118   3.800 -0.2101 -0.2230  0.8824
 9232TIP3    H149111   5.166   3.118   3.712 -3.1123 -1.1914 -0.4368
 9232TIP3    H249112   5.126   3.025   3.825 -1.5741 -0.1567  0.9995
 9233TIP3   OH249113   3.704   5.287   4.339  0.4267  0.1699 -0.4128
 9233TIP3    H149114   3.726   5.198   4.367 -0.2615  0.3251  0.6914
 9233TIP3    H249115   3.788   5.330   4.327  0.7592 -0.3698 -0.0667
 9234TIP3   OH249116   5.819   4.811   0.124  0.4797  0.3821  0.3574
 9234TIP3    H149117   5.774   4.896   0.119  0.5097  0.3102 -1.8246
 9234TIP3    H249118   5.751   4.750   0.152  0.0440  0.8451  0.3258
 9235TIP3   OH249119   0.790   1.823  13.095 -0.5893 -0.0739 -0.0805
 9235TIP3    H149120   0.719   1.786  13.148 -0.2735  2.9629  2.8322
 9235TIP3    H249121   0.753   1.902  13.057  0.8445  0.8933  0.4614
 9236TIP3   OH249122   4.367   1.600   0.307  0.6868  0.2567  0.4154
 9236TIP3    H149123   4.376   1.694   0.322 -0.4447  0.2608  1.1771
 9236TIP3    H249124   4.304   1.593   0.235 -1.7901  0.0917  2.4356
 9237TIP3   OH249125   5.772   3.958   2.717  0.0260  0.0713 -0.1331
 9237TIP3    H149126   5.830   3.971   2.642  2.2090  3.3247  1.8591
 9237TIP3    H249127   5.693   4.008   2.697 -0.5228 -1.1439 -1.1924
 9238TIP3   OH249128   5.717   3.895   5.625  0.0038 -0.1533 -0.1948
 9238TIP3    H149129   5.670   3.900   5.708  0.4317  1.4611 -0.0223
 9238TIP3    H249130   5.763   3.979   5.618 -0.8791  0.2197 -2.5800
 9239TIP3   OH249131   0.598   4.219  13.918 -0.0128 -0.0480  0.4252
 9239TIP3    H149132   0.666   4.163  13.956 -0.2472 -1.4455 -1.1057
 9239TIP3    H249133   0.519   4.196  13.966 -0.1188 -1.1258 -0.2202
 9240TIP3   OH249134   3.629   3.107   0.677 -0.7292  0.9295 -0.0436
 9240TIP3    H149135   3.702   3.046   0.690 -0.3978  1.1135 -1.0096
 9240TIP3    H249136   3.666   3.179   0.626 -1.1132  1.9733  1.0736
 9241TIP3   OH249137   2.267   0.191   4.007  0.2019  0.5606  0.6448
 9241TIP3    H149138   2.229   0.123   3.951  2.2468  0.0057 -0.1442
 9241TIP3    H249139   2.289   0.145   4.088  0.6248  0.5230  0.5082
 9242TIP3   OH249140   0.551   5.872  17.004  0.8111 -0.6449  0.1423
 9242TIP3    H149141   0.525   5.780  17.011  1.2247 -0.6404  2.2636
 9242TIP3    H249142   0.529   5.896  16.914  0.7137 -2.8168 -0.4662
 9243TIP3   OH249143   4.297   2.602   3.896 -0.1544 -0.1644 -0.1320
 9243TIP3    H149144   4.318   2.604   3.803 -3.0556 -0.8300 -0.9180
 9243TIP3    H249145   4.202   2.617   3.899 -0.2668 -0.8773  2.6693
 9244TIP3   OH249146   2.159   6.374   0.041 -0.0698  0.2603 -0.1695
 9244TIP3    H149147   2.177   6.424  -0.038 -1.7452  0.2492 -0.5993
 9244TIP3    H249148   2.071   6.401   0.067  0.1389 -0.3140  1.2589
 9245TIP3   OH249149   1.828   3.832  14.959 -0.3823 -0.0808  0.3805
 9245TIP3    H149150   1.750   3.884  14.982 -1.7076 -1.6281 -0.3951
 9245TIP3    H249151   1.877   3.825  15.040 -1.5262  0.1819  1.1190
 9246TIP3   OH249152   5.552   1.374  11.282 -0.6998  0.1784 -0.1407
 9246TIP3    H149153   5.534   1.301  11.222  2.4293 -1.6523  0.8858
 9246TIP3    H249154   5.517   1.345  11.366  1.1815 -0.6145  0.4382
 9247TIP3   OH249155   0.199   1.743  12.470  0.2750 -0.0410  0.1248
 9247TIP3    H149156   0.151   1.759  12.389 -0.8363 -2.9966  0.1044
 9247TIP3    H249157   0.289   1.726  12.441  0.0192 -0.4693 -0.4355
 9248TIP3   OH249158   0.441   4.860   2.246 -0.1537  0.5160 -0.5713
 9248TIP3    H149159   0.460   4.953   2.255 -3.3110  1.1286  1.1513
 9248TIP3    H249160   0.473   4.821   2.328 -1.2772  0.6005 -0.0808
 9249TIP3   OH249161   2.250   3.405   2.335 -0.4217  0.6854 -0.8661
 9249TIP3    H149162   2.243   3.489   2.381  0.8016 -0.2650  1.2207
 9249TIP3    H249163   2.340   3.377   2.350 -0.7822 -0.9785 -1.5773
 9250TIP3   OH249164   3.698   2.253   0.489  0.6488  0.1329  0.4532
 9250TIP3    H149165   3.754   2.316   0.536  1.3253 -1.4503  1.8860
 9250TIP3    H249166   3.756   2.178   0.474 -0.0450 -0.0361 -1.5105
 9251TIP3   OH249167   5.932   0.122  14.112  0.7258 -0.2487 -0.2655
 9251TIP3    H149168   5.936   0.203  14.162  2.7422  1.0021 -2.2567
 9251TIP3    H249169   6.022   0.090  14.109  0.3056 -1.4671 -1.2210
 9252TIP3   OH249170   5.146   0.337   1.152 -0.1745 -0.1053 -0.6953
 9252TIP3    H149171   5.060   0.357   1.116 -0.1734 -0.0991 -0.6950
 9252TIP3    H249172   5.157   0.400   1.224 -0.4274 -0.5141 -0.2945
 9253TIP3   OH249173   6.654   6.318   2.442 -0.0872  0.0552 -0.1063
 9253TIP3    H149174   6.625   6.298   2.353  0.7270  0.7366 -0.5384
 9253TIP3    H249175   6.722   6.385   2.431 -0.4258  0.6193  1.0729
 9254TIP3   OH249176   1.594   2.638   0.856 -0.5131  0.0531  0.0729
 9254TIP3    H149177   1.517   2.646   0.800 -1.4670  1.6109  1.5140
 9254TIP3    H249178   1.558   2.628   0.945  0.9594 -0.6547  0.6246
 9255TIP3   OH249179   1.255   0.885   5.765 -0.4813 -0.3763 -0.0841
 9255TIP3    H149180   1.178   0.850   5.809 -1.4861 -0.8235 -2.0669
 9255TIP3    H249181   1.232   0.884   5.672 -1.1866  6.7193 -0.4988
 9256TIP3   OH249182   3.863   3.227   4.128 -0.0373  0.0500 -0.0305
 9256TIP3    H149183   3.908   3.299   4.083  0.6743 -0.2560  0.1793
 9256TIP3    H249184   3.932   3.185   4.180 -0.4965 -0.6461  0.0194
 9257TIP3   OH249185   4.526   5.332  16.063  0.3753  0.3127 -0.2189
 9257TIP3    H149186   4.558   5.276  15.992  0.2066 -0.1477  0.0622
 9257TIP3    H249187   4.502   5.414  16.021  0.2766  0.0408 -0.6917
 9258TIP3   OH249188   5.151   6.582  11.676  0.6543 -0.5621 -0.4075
 9258TIP3    H149189   5.186   6.566  11.763 -3.2137  1.6720  1.8266
 9258TIP3    H249190   5.221   6.629  11.630  1.8906  0.6051  2.4397
 9259TIP3   OH249191   1.703   1.396  17.204  0.4550  0.2366  0.3288
 9259TIP3    H149192   1.768   1.360  17.143  1.9865  0.2480  1.8939
 9259TIP3    H249193   1.714   1.345  17.284 -0.6961  1.0098  1.0105
 9260TIP3   OH249194   1.324   6.491  14.808 -0.0734 -0.0634  0.1869
 9260TIP3    H149195   1.248   6.439  14.783  1.0228 -1.2573 -0.8111
 9260TIP3    H249196   1.376   6.433  14.864  0.7015  0.2792 -0.1583
 9261TIP3   OH249197   1.713   1.673  12.016 -0.2586  0.5029 -0.1564
 9261TIP3    H149198   1.632   1.657  11.966 -0.6277  0.5301  0.4168
 9261TIP3    H249199   1.692   1.642  12.105  0.9968 -1.3263 -0.4341
 9262TIP3   OH249200   2.537   4.776  14.423  0.0902 -0.1462 -0.2795
 9262TIP3    H149201   2.479   4.723  14.478  1.9677  0.1207  2.1636
 9262TIP3    H249202   2.500   4.864  14.426 -1.7068 -0.7674 -2.3621
 9263TIP3   OH249203   5.188   4.300   5.658  0.1988  0.2908  0.3367
 9263TIP3    H149204   5.191   4.229   5.722 -0.1728  1.0720  1.2473
 9263TIP3    H249205   5.218   4.260   5.576  1.1270 -0.6172  1.0944
 9264TIP3   OH249206   6.114   3.395   6.179 -0.5572  0.2574  0.4171
 9264TIP3    H149207   6.028   3.429   6.201 -0.3925 -0.3388  2.1968
 9264TIP3    H249208   6.175   3.462   6.211 -0.3349 -0.0627  0.6727
 9265TIP3   OH249209   6.758   0.279  10.638 -0.3798 -0.2403  0.0180
 9265TIP3    H149210   6.785   0.219  10.708  1.8879  2.2391  1.4862
 9265TIP3    H249211   6.834   0.284  10.580 -0.4091  1.2392  0.0466
 9266TIP3   OH249212   2.592   6.382  12.352 -0.3594 -0.0652  0.1582
 9266TIP3    H149213   2.602   6.356  12.261  1.7757  2.1152 -0.3490
 9266TIP3    H249214   2.498   6.396  12.363 -0.5560  0.6930 -2.0734
 9267TIP3   OH249215   4.500   5.287   2.122 -0.4364 -0.5843 -0.1548
 9267TIP3    H149216   4.581   5.240   2.105  0.7331  0.6166  1.6874
 9267TIP3    H249217   4.468   5.251   2.205 -0.4190  0.6757  0.4167
 9268TIP3   OH249218   3.604   1.748  12.620 -0.4401  0.7256  0.1149
 9268TIP3    H149219   3.626   1.744  12.527  0.6934 -0.7580  0.4197
 9268TIP3    H249220   3.674   1.700  12.664 -1.8276 -0.0671  1.5711
 9269TIP3   OH249221   0.221   0.517   6.102 -0.6849  0.2251  0.3846
 9269TIP3    H149222   0.159   0.523   6.174 -1.0232 -0.0981  0.1266
 9269TIP3    H249223   0.166   0.507   6.024 -0.3295  0.7482  0.0654
 9270TIP3   OH249224   1.740   6.282   4.814  0.2591 -0.4001  0.4747
 9270TIP3    H149225   1.764   6.255   4.725  0.7059 -0.8491  0.7271
 9270TIP3    H249226   1.817   6.260   4.867  0.9499  1.9924  0.5867
 9271TIP3   OH249227   2.697   5.347   3.544  0.0858 -0.8917 -0.5090
 9271TIP3    H149228   2.605   5.353   3.517 -0.2645 -2.5361  0.1686
 9271TIP3    H249229   2.704   5.260   3.583  2.1778 -1.1846 -1.4389
 9272TIP3   OH249230   0.675   5.570   1.338  0.3335 -0.2240  0.1592
 9272TIP3    H149231   0.615   5.530   1.274 -0.2515  0.2575  0.3992
 9272TIP3    H249232   0.755   5.585   1.289  0.0001 -0.1670 -0.3807
 9273TIP3   OH249233   4.323   3.909   3.112  0.2350 -1.1366  0.2592
 9273TIP3    H149234   4.263   3.846   3.070 -2.3146 -0.1668  2.1816
 9273TIP3    H249235   4.283   3.994   3.095  2.3644 -0.1916 -0.2914
 9274TIP3   OH249236   3.159   3.746  14.005  0.4379 -0.1155  0.8594
 9274TIP3    H149237   3.150   3.790  13.920 -0.6269 -0.2901  0.8658
 9274TIP3    H249238   3.123   3.808  14.068  1.1407 -0.0258  1.1807
 9275TIP3   OH249239   3.245   0.203  16.522 -0.0063  0.0450  0.2261
 9275TIP3    H149240   3.151   0.198  16.505 -0.5154 -0.0732  2.6941
 9275TIP3    H249241   3.286   0.188  16.437 -2.2166  3.7586 -1.7553
 9276TIP3   OH249242   0.906   6.084  14.343 -0.1548  0.5823  0.4249
 9276TIP3    H149243   0.996   6.115  14.335 -0.1475  0.5227  0.2671
 9276TIP3    H249244   0.912   5.989  14.333 -0.1291  0.4844  1.2844
 9277TIP3   OH249245   5.203   5.928   3.347  0.0676  0.8007 -0.3403
 9277TIP3    H149246   5.271   5.968   3.294 -1.0018  3.7628  0.3684
 9277TIP3    H249247   5.132   5.910   3.285  0.4326  0.2455 -0.6061
 9278TIP3   OH249248   6.341   1.636  12.358 -0.0647 -0.4073  0.0200
 9278TIP3    H149249   6.255   1.634  12.400  0.8502 -1.6490  1.9964
 9278TIP3    H249250   6.324   1.620  12.266 -1.9019 -1.0801  0.4414
 9279TIP3   OH249251   2.220   4.112  13.686  0.0837 -0.1088 -0.5704
 9279TIP3    H149252   2.301   4.139  13.730  0.1440  0.5435 -1.0711
 9279TIP3    H249253   2.162   4.188  13.694 -0.6699 -0.7445  0.2127
 9280TIP3   OH249254   6.176   0.934   3.817 -0.0312 -0.1029 -0.2503
 9280TIP3    H149255   6.232   0.920   3.893 -0.1132  1.2370  0.0708
 9280TIP3    H249256   6.156   1.027   3.818 -0.4565 -0.1560 -1.6280
 9281TIP3   OH249257   3.266   5.043  13.959  0.3061 -0.9450 -0.1043
 9281TIP3    H149258   3.194   5.106  13.955 -0.1430 -1.5006 -1.3863
 9281TIP3    H249259   3.225   4.959  13.939  1.3741 -1.1941 -1.3963
 9282TIP3   OH249260   4.120   1.724   1.531  0.3365 -0.4412 -0.0591
 9282TIP3    H149261   4.040   1.740   1.480  0.1463 -0.0519  0.3651
 9282TIP3    H249262   4.111   1.778   1.608  1.4613  0.3477 -0.4611
 9283TIP3   OH249263   3.484   0.702  13.363  0.2867  0.3422 -0.4611
 9283TIP3    H149264   3.515   0.752  13.287 -1.2790  1.6112 -0.3164
 9283TIP3    H249265   3.541   0.730  13.435  0.9896  0.0517 -0.8962
 9284TIP3   OH249266   5.963   4.652  17.247 -0.0520 -0.8611  0.0897
 9284TIP3    H149267   5.908   4.722  17.283 -0.6211 -0.8731 -0.7349
 9284TIP3    H249268   5.968   4.588  17.318 -1.2170 -0.9209  0.1481
 9285TIP3   OH249269   2.178   3.912   4.889  0.2575 -0.7534  0.6090
 9285TIP3    H149270   2.111   3.845   4.893 -1.4323  0.9013  1.8235
 9285TIP3    H249271   2.191   3.929   4.796 -0.6934 -1.4032  0.3558
 9286TIP3   OH249272   4.714   4.313  13.686  0.1195 -0.4661 -0.0121
 9286TIP3    H149273   4.750   4.225  13.684  0.2364 -0.5263  2.0725
 9286TIP3    H249274   4.735   4.350  13.600  2.1318 -1.6628 -0.1008
 9287TIP3   OH249275   6.274   1.660   2.553 -0.4104  0.1288 -0.6439
 9287TIP3    H149276   6.212   1.680   2.623 -0.3759  0.7006 -0.7770
 9287TIP3    H249277   6.219   1.627   2.482 -0.4747 -0.1622 -0.4625
 9288TIP3   OH249278   1.616   6.767   5.034  0.3639  0.0479 -0.0303
 9288TIP3    H149279   1.651   6.825   4.967  0.1141  0.6867  0.3859
 9288TIP3    H249280   1.643   6.680   5.006  2.3009  0.5149  0.2913
 9289TIP3   OH249281   1.730   1.841   2.916 -0.5505 -0.0644 -0.5334
 9289TIP3    H149282   1.749   1.826   2.823  0.4990  0.4226 -0.4148
 9289TIP3    H249283   1.636   1.856   2.919 -0.4108  1.2828 -1.7225
 9290TIP3   OH249284   6.493   2.880  12.983  0.2195  0.2310 -0.0983
 9290TIP3    H149285   6.544   2.904  12.906 -2.0663  0.3454 -1.7002
 9290TIP3    H249286   6.461   2.792  12.963 -0.3527  0.2390  0.7561
 9291TIP3   OH249287   2.452   1.637  12.806 -0.4525  0.2446  0.3409
 9291TIP3    H149288   2.472   1.548  12.835 -2.3750  0.3652  2.2699
 9291TIP3    H249289   2.515   1.654  12.736  0.6375 -2.2363  0.6155
 9292TIP3   OH249290   6.362   1.586  12.089 -0.0661  0.4985  0.0097
 9292TIP3    H149291   6.422   1.512  12.094 -1.3403 -0.5737 -0.1872
 9292TIP3    H249292   6.277   1.550  12.113 -0.9317  1.6436 -1.2161
 9293TIP3   OH249293   3.479   4.335  14.084 -0.1614  0.1690  0.6171
 9293TIP3    H149294   3.471   4.372  13.996 -1.3342 -1.1027  0.1477
 9293TIP3    H249295   3.569   4.353  14.110  0.8818 -1.2654 -1.7076
 9294TIP3   OH249296   6.284   3.895  12.699 -0.6218  0.5730  0.1893
 9294TIP3    H149297   6.305   3.940  12.781  0.2869  1.6625 -0.6187
 9294TIP3    H249298   6.227   3.956  12.653 -2.0162 -0.4879  0.4373
 9295TIP3   OH249299   5.593   6.487  15.207 -0.4565  0.3859  0.7441
 9295TIP3    H149300   5.686   6.465  15.214 -0.6404 -0.2147  1.5025
 9295TIP3    H249301   5.561   6.481  15.297 -0.5593  3.6821  1.0313
 9296TIP3   OH249302   5.035   6.338  10.355  0.0710 -0.0228  0.1620
 9296TIP3    H149303   4.947   6.367  10.330 -0.2539 -1.6030 -0.6922
 9296TIP3    H249304   5.044   6.252  10.313  1.6006 -0.3832  1.1638
 9297TIP3   OH249305   0.177   1.925   1.805  0.2801 -0.6836 -0.1687
 9297TIP3    H149306   0.179   1.854   1.870  1.4827  1.5158  2.3902
 9297TIP3    H249307   0.085   1.952   1.801 -0.0093 -1.6481 -0.3893
 9298TIP3   OH249308   4.216   5.443  16.044 -0.1592  0.2930  0.6326
 9298TIP3    H149309   4.302   5.465  16.080  0.2389  0.1916 -0.2147
 9298TIP3    H249310   4.220   5.348  16.030  0.5628  0.5857 -1.7212
 9299TIP3   OH249311   4.027   5.539  14.351 -0.2212  0.4975  0.2930
 9299TIP3    H149312   4.010   5.509  14.440 -0.2831  0.2524  0.2004
 9299TIP3    H249313   4.059   5.628  14.361 -2.9544  1.5661  0.4079
 9300TIP3   OH249314   4.517   2.231   2.203  0.2778  0.1401 -0.4623
 9300TIP3    H149315   4.538   2.309   2.254  0.9819 -0.1255 -0.3373
 9300TIP3    H249316   4.422   2.224   2.208  0.3693 -0.2437  1.3700
 9301TIP3   OH249317   3.132   2.214   1.011  0.3431 -0.2343 -0.2683
 9301TIP3    H149318   3.116   2.303   0.979 -0.7110  0.4042  1.8933
 9301TIP3    H249319   3.224   2.213   1.034  0.4297  0.1918 -0.5794
 9302TIP3   OH249320   4.465   2.411   0.601 -0.1472 -0.2462  0.1300
 9302TIP3    H149321   4.547   2.461   0.600 -1.0034  1.2303 -0.9270
 9302TIP3    H249322   4.442   2.406   0.694  2.0958 -2.4381  0.6583
 9303TIP3   OH249323   2.357   1.064   1.582  0.2992 -0.3502 -0.1837
 9303TIP3    H149324   2.362   1.105   1.668 -2.8970  0.9512 -0.4848
 9303TIP3    H249325   2.427   1.106   1.531  0.1392  1.2530  0.8597
 9304TIP3   OH249326   2.891   1.224  11.141 -0.3999  0.0898  0.6068
 9304TIP3    H149327   2.836   1.297  11.171 -0.9732  0.0085 -0.1886
 9304TIP3    H249328   2.836   1.146  11.152 -0.5418  0.0316 -0.3845
 9305TIP3   OH249329   3.584   0.131   6.180 -0.0560  0.0112  0.1661
 9305TIP3    H149330   3.677   0.110   6.180 -0.5664 -2.5785  1.5927
 9305TIP3    H249331   3.551   0.094   6.098  0.0633  0.5804 -0.1487
 9306TIP3   OH249332   1.538   6.615  16.771  0.2014 -0.6019 -0.2878
 9306TIP3    H149333   1.476   6.626  16.843  0.0750 -3.0117  0.0695
 9306TIP3    H249334   1.504   6.670  16.701 -1.2909 -0.4251  0.5377
 9307TIP3   OH249335   4.917   0.285   5.216 -0.0977  0.0210 -0.1057
 9307TIP3    H149336   4.905   0.302   5.309  0.6172  0.1206 -0.0313
 9307TIP3    H249337   4.936   0.370   5.178  0.2569 -0.1202 -0.2446
 9308TIP3   OH249338   5.016   0.601   4.072  0.2526 -0.4260  0.0835
 9308TIP3    H149339   4.921   0.600   4.077  0.2793 -2.8405  2.2656
 9308TIP3    H249340   5.045   0.578   4.160  2.8118 -1.3626 -0.8979
 9309TIP3   OH249341   0.644   5.432  14.856 -0.0730  0.4082  0.1638
 9309TIP3    H149342   0.601   5.517  14.856  0.7137  0.8500 -1.0739
 9309TIP3    H249343   0.713   5.440  14.921 -0.9092  0.2005  1.0937
 9310TIP3   OH249344   6.073   1.325  15.045 -0.0769  0.4094  0.2344
 9310TIP3    H149345   6.123   1.296  15.122  0.5933 -0.7845 -0.6184
 9310TIP3    H249346   6.096   1.263  14.976 -2.0782  0.3381 -0.4525
 9311TIP3   OH249347   5.807   3.234   2.897 -0.2606  0.3626  0.1617
 9311TIP3    H149348   5.866   3.306   2.921  0.8803 -0.2210 -0.7671
 9311TIP3    H249349   5.727   3.278   2.867 -0.0112  1.2052  0.6864
 9312TIP3   OH249350   5.577   3.198   5.953 -0.2271  0.1753  0.0489
 9312TIP3    H149351   5.619   3.247   5.882  0.5872  0.7911  0.9344
 9312TIP3    H249352   5.486   3.227   5.952  0.4625  2.6091  1.2808
 9313TIP3   OH249353   2.207   6.725  11.496  0.0966  0.3070 -0.0480
 9313TIP3    H149354   2.197   6.633  11.471  1.3122  0.2870 -0.5493
 9313TIP3    H249355   2.171   6.774  11.423  0.9512  0.2260 -0.5360
 9314TIP3   OH249356   6.705   6.349  14.547  0.5529  0.4853  0.0586
 9314TIP3    H149357   6.754   6.337  14.465 -1.3187 -0.3107 -1.0102
 9314TIP3    H249358   6.615   6.367  14.518 -0.0574  0.6781  1.9596
 9315TIP3   OH249359   1.447   0.556   2.626 -0.1003  0.0367 -0.1233
 9315TIP3    H149360   1.443   0.550   2.530 -0.4922  2.3063 -0.3014
 9315TIP3    H249361   1.456   0.650   2.644  0.1518 -0.3577  2.0743
 9316TIP3   OH249362   0.281   4.068   0.865 -0.0173 -0.1688 -0.2783
 9316TIP3    H149363   0.188   4.085   0.878 -0.1640 -1.2742  0.2100
 9316TIP3    H249364   0.284   3.983   0.821  0.7727 -0.2600 -0.0656
 9317TIP3   OH249365   4.429   4.515  11.217  0.1493 -0.1985  0.3993
 9317TIP3    H149366   4.520   4.487  11.202  0.2488  0.2943  0.0887
 9317TIP3    H249367   4.393   4.525  11.130 -0.6455 -1.7812  0.5034
 9318TIP3   OH249368   1.410   3.116  17.235  0.1425 -0.4933 -0.1037
 9318TIP3    H149369   1.411   3.211  17.250 -0.3120 -0.1108 -2.2539
 9318TIP3    H249370   1.391   3.079  17.322  0.1267  1.3703  0.7411
 9319TIP3   OH249371   3.470   0.134   1.341 -0.2411 -0.5176  0.0897
 9319TIP3    H149372   3.389   0.125   1.290 -0.3343  0.9280 -0.0517
 9319TIP3    H249373   3.442   0.117   1.432 -0.3015 -1.9141 -0.1589
 9320TIP3   OH249374   6.567   1.929   1.104  0.4361 -0.0561  0.4297
 9320TIP3    H149375   6.550   2.019   1.129  1.0757  0.9109 -2.2673
 9320TIP3    H249376   6.645   1.904   1.154  1.0235  1.3532  0.2692
 9321TIP3   OH249377   5.275   6.027  10.916  0.4948 -0.6199 -0.1939
 9321TIP3    H149378   5.314   6.009  11.001 -3.0850 -1.7716  1.3668
 9321TIP3    H249379   5.258   5.941  10.878  1.5266 -0.1253 -1.8986
 9322TIP3   OH249380   1.879   1.016   3.799  0.0335 -0.4651 -0.3756
 9322TIP3    H149381   1.863   0.975   3.884 -0.1988  0.3024 -0.0412
 9322TIP3    H249382   1.794   1.019   3.756 -0.4619  1.8308  0.6000
 9323TIP3   OH249383   2.107   2.370   3.833 -0.1994  0.0992 -0.7789
 9323TIP3    H149384   2.159   2.307   3.882  0.5886  1.5921  0.3962
 9323TIP3    H249385   2.039   2.318   3.790  0.5349 -1.5404 -0.0198
 9324TIP3   OH249386   5.742   4.525  15.732  0.1250 -0.6112  0.2575
 9324TIP3    H149387   5.762   4.538  15.639 -0.8521 -1.3199 -0.0600
 9324TIP3    H249388   5.695   4.605  15.757 -0.5677 -0.8823 -0.1459
 9325TIP3   OH249389   2.748   6.305   5.538 -0.2878  0.1151 -0.0862
 9325TIP3    H149390   2.811   6.349   5.594 -0.7355  0.0711  0.4566
 9325TIP3    H249391   2.784   6.217   5.526 -0.7050 -0.2288  1.0157
 9326TIP3   OH249392   0.291   1.237  14.853  0.5318  0.0409 -0.1937
 9326TIP3    H149393   0.202   1.257  14.883  0.3267  1.8969 -1.7884
 9326TIP3    H249394   0.290   1.143  14.837 -0.9423 -0.0909  0.4720
 9327TIP3   OH249395   2.874   3.700   0.447 -0.0491 -0.4530  0.0246
 9327TIP3    H149396   2.959   3.728   0.479  0.6021 -0.0472 -1.9593
 9327TIP3    H249397   2.831   3.780   0.417 -0.9463 -0.7134  0.5786
 9328TIP3   OH249398   2.684   6.630  13.469  0.7463 -0.0986 -0.2672
 9328TIP3    H149399   2.722   6.583  13.395  2.3921  0.5593  0.1169
 9328TIP3    H249400   2.758   6.647  13.527 -0.5459 -0.8576  1.7067
 9329TIP3   OH249401   6.712   2.155  15.373 -0.1996 -0.2361 -0.5852
 9329TIP3    H149402   6.791   2.108  15.400 -0.0537 -0.5512 -1.5206
 9329TIP3    H249403   6.693   2.214  15.446  0.3421 -0.8473  0.0644
 9330TIP3   OH249404   4.469   0.964   1.431  0.5984  0.6903  0.2349
 9330TIP3    H149405   4.495   0.958   1.523 -1.5412  0.5843  0.8774
 9330TIP3    H249406   4.421   0.883   1.414  2.8265 -0.3448 -1.6690
 9331TIP3   OH249407   2.683   1.580  16.514  0.1448  0.1723  0.4167
 9331TIP3    H149408   2.653   1.667  16.539  0.9606  0.3932  0.6645
 9331TIP3    H249409   2.641   1.522  16.578 -0.9013  0.2965 -0.1294
 9332TIP3   OH249410   4.838   5.758  12.697 -0.0120  0.2297  0.1572
 9332TIP3    H149411   4.916   5.765  12.752  1.2010 -0.2412 -1.4160
 9332TIP3    H249412   4.821   5.848  12.669  1.5238  0.0904 -1.4555
 9333TIP3   OH249413   1.901   6.757   4.541 -0.1607 -0.0373 -0.0284
 9333TIP3    H149414   1.805   6.760   4.550 -0.1107  0.9690  0.3088
 9333TIP3    H249415   1.918   6.799   4.457 -0.0329 -0.6151 -0.2957
 9334TIP3   OH249416   3.175   1.043  12.481 -0.0010 -0.4991  0.3379
 9334TIP3    H149417   3.242   1.075  12.421 -0.3000 -1.1241 -0.3529
 9334TIP3    H249418   3.183   0.947  12.477 -0.5935 -0.5669  0.6277
 9335TIP3   OH249419   4.906   3.139  12.140  0.5146 -0.3287 -0.5037
 9335TIP3    H149420   4.929   3.219  12.092 -0.1815  0.2792  0.1584
 9335TIP3    H249421   4.825   3.110  12.100  0.5899 -0.5171 -0.5190
 9336TIP3   OH249422   6.638   3.744   4.553 -0.3839 -0.0665 -0.0171
 9336TIP3    H149423   6.567   3.720   4.613  0.2284 -0.7034  0.4664
 9336TIP3    H249424   6.676   3.824   4.591  0.2033 -0.6429  0.6310
 9337TIP3   OH249425   4.641   1.428  15.151 -0.0607  0.2923  0.0770
 9337TIP3    H149426   4.731   1.421  15.120 -0.3214  2.1430 -1.2290
 9337TIP3    H249427   4.606   1.339  15.143  1.1571 -0.1221 -0.9471
 9338TIP3   OH249428   5.039   1.826  13.119  0.3847 -0.3838  0.0297
 9338TIP3    H149429   5.004   1.869  13.197  1.3663 -0.6374  0.6302
 9338TIP3    H249430   5.133   1.822  13.134  0.4056 -2.0498 -0.3554
 9339TIP3   OH249431   0.278   4.794  11.583  0.4230 -0.5146  0.0174
 9339TIP3    H149432   0.212   4.779  11.650 -0.6234  1.2665 -0.5532
 9339TIP3    H249433   0.230   4.791  11.500  1.4918 -1.5059 -0.6092
 9340TIP3   OH249434   0.605   2.868  11.918  0.0248  0.5837  0.0722
 9340TIP3    H149435   0.549   2.833  11.850  0.0830  1.2360 -0.3222
 9340TIP3    H249436   0.548   2.877  11.994  0.4183 -2.0079  0.7482
 9341TIP3   OH249437   2.721   1.653  15.869  0.2205 -0.0995 -0.2952
 9341TIP3    H149438   2.762   1.569  15.849  1.2916  0.4772 -0.5408
 9341TIP3    H249439   2.677   1.679  15.788 -2.4236 -1.6564  0.4919
 9342TIP3   OH249440   3.952   5.773  12.114 -0.2553  0.2904  0.4709
 9342TIP3    H149441   3.979   5.815  12.033 -2.4670  1.8825  0.4731
 9342TIP3    H249442   3.857   5.764  12.107 -0.8348  2.2747  3.6049
 9343TIP3   OH249443   6.318   2.894   3.143 -0.1619  0.4741 -0.5506
 9343TIP3    H149444   6.275   2.829   3.199  0.8726  0.0778 -0.1975
 9343TIP3    H249445   6.246   2.933   3.093 -0.8284 -0.8639 -0.6962
 9344TIP3   OH249446   6.486   2.917   5.932  0.3780  0.3912  0.4340
 9344TIP3    H149447   6.551   2.882   5.872  1.0883  1.2909  0.6403
 9344TIP3    H249448   6.511   2.882   6.018 -0.6903 -0.9684  0.2247
 9345TIP3   OH249449   3.108   4.747   1.254  0.1177  0.3011 -0.1612
 9345TIP3    H149450   3.029   4.703   1.284 -0.3545  0.6328 -0.8911
 9345TIP3    H249451   3.100   4.837   1.286 -0.4373  0.6855 -1.3144
 9346TIP3   OH249452   6.763   0.340  15.152 -0.4701 -0.9225  0.7001
 9346TIP3    H149453   6.851   0.377  15.150 -1.4183  1.5930  1.1553
 9346TIP3    H249454   6.745   0.325  15.245 -0.9875 -0.1483  0.7326
 9347TIP3   OH249455   5.603   3.538   1.005  0.2000 -0.4462  0.0174
 9347TIP3    H149456   5.523   3.495   1.034 -0.1442 -1.3586 -2.0705
 9347TIP3    H249457   5.573   3.613   0.954  0.6740 -0.6739 -0.6101
 9348TIP3   OH249458   0.704   0.423  15.214 -0.0542 -0.5921  0.3081
 9348TIP3    H149459   0.770   0.406  15.282  0.1788  0.4845  0.3743
 9348TIP3    H249460   0.631   0.463  15.261 -0.3598 -0.9000  0.0918
 9349TIP3   OH249461   1.275   5.422   2.107 -0.3744  1.0435  0.0349
 9349TIP3    H149462   1.359   5.379   2.122 -0.7331 -0.1337 -1.1572
 9349TIP3    H249463   1.265   5.424   2.012 -0.7812  3.0316  0.0670
 9350TIP3   OH249464   3.501   4.020   3.361 -0.4437 -0.1576  0.0859
 9350TIP3    H149465   3.568   3.985   3.419 -0.4857  1.0475  0.9048
 9350TIP3    H249466   3.540   4.100   3.324 -0.6385 -0.5884 -1.1100
 9351TIP3   OH249467   3.550   0.480   1.419 -0.1807  0.2849  0.2511
 9351TIP3    H149468   3.578   0.563   1.380 -0.0788  0.1976  0.1366
 9351TIP3    H249469   3.606   0.469   1.496 -0.5375  0.5712  0.5569
 9352TIP3   OH249470   2.767   0.326   1.394 -0.3541  0.4264 -0.9027
 9352TIP3    H149471   2.741   0.342   1.485 -0.8662  0.3400 -1.0258
 9352TIP3    H249472   2.837   0.262   1.399  0.2062  1.0547 -0.5230
 9353TIP3   OH249473   6.648   2.442  11.596  0.0930 -0.5628 -0.8943
 9353TIP3    H149474   6.710   2.372  11.614  1.8281  0.7045 -1.6824
 9353TIP3    H249475   6.701   2.512  11.558 -1.5119  1.3217  0.1551
 9354TIP3   OH249476   6.671   3.813  13.261 -1.1001  0.0810  0.4884
 9354TIP3    H149477   6.667   3.737  13.203 -0.0167  0.5420 -0.2229
 9354TIP3    H249478   6.646   3.779  13.347 -2.5378 -0.6582 -0.1856
 9355TIP3   OH249479   2.318   2.410   3.053  0.0912  0.2877 -0.1764
 9355TIP3    H149480   2.262   2.340   3.021  0.0769  0.1186  0.2091
 9355TIP3    H249481   2.344   2.381   3.141 -1.9589  1.9150  1.0544
 9356TIP3   OH249482   4.623   0.598  15.386  0.5055  0.4330  0.1422
 9356TIP3    H149483   4.690   0.530  15.395  1.5685  1.3705 -0.5259
 9356TIP3    H249484   4.579   0.599  15.471  0.8713 -0.6764  0.3621
 9357TIP3   OH249485   4.538   1.784   4.061 -0.1321 -0.5889  0.4868
 9357TIP3    H149486   4.511   1.756   4.149  0.3294 -0.2640  0.7337
 9357TIP3    H249487   4.611   1.843   4.076 -1.1128  0.8129 -0.0185
 9358TIP3   OH249488   2.252   2.299   1.698 -0.8835 -0.5276  0.0665
 9358TIP3    H149489   2.304   2.372   1.665 -1.3138 -0.8829 -1.4869
 9358TIP3    H249490   2.307   2.222   1.682 -1.0195 -0.6923  0.3848
 9359TIP3   OH249491   0.046   2.103  13.410  0.4109 -0.1570  0.1506
 9359TIP3    H149492   0.059   2.198  13.412 -5.0183  0.9325  0.4789
 9359TIP3    H249493   0.013   2.082  13.497  1.2728 -2.3766  0.0032
 9360TIP3   OH249494   3.606   2.221   0.898  0.3256  0.3302  0.2105
 9360TIP3    H149495   3.679   2.163   0.876  0.5841  0.7749 -0.1258
 9360TIP3    H249496   3.647   2.297   0.939  0.1063  0.8632 -0.5501
 9361TIP3   OH249497   4.226   1.575   0.869 -0.1153 -0.0649 -0.4121
 9361TIP3    H149498   4.273   1.602   0.949 -0.1612  0.7306 -0.6409
 9361TIP3    H249499   4.295   1.544   0.811 -0.0436 -0.3443 -0.1775
 9362TIP3   OH249500   0.929   3.302   2.547 -0.7513  0.0622  0.1559
 9362TIP3    H149501   0.871   3.372   2.576  1.4065  1.3108  1.8137
 9362TIP3    H249502   0.971   3.271   2.628  0.4015 -1.2200 -0.8797
 9363TIP3   OH249503   2.396   6.228  17.235  0.3896  0.5425  0.0720
 9363TIP3    H149504   2.334   6.273  17.292 -0.7781 -3.4563  2.4050
 9363TIP3    H249505   2.482   6.258  17.263 -0.3060  0.9819  1.8478
 9364TIP3   OH249506   6.033   3.905   5.685 -0.6609  0.1654 -0.2288
 9364TIP3    H149507   6.063   3.816   5.664  0.4621  0.4468  0.1097
 9364TIP3    H249508   5.963   3.892   5.749 -0.6209 -0.4777 -0.3051
 9365TIP3   OH249509   6.333   6.147  13.791  0.3717 -0.0304 -0.4943
 9365TIP3    H149510   6.372   6.070  13.832  1.1353  1.2172  1.2410
 9365TIP3    H249511   6.397   6.217  13.806 -1.5078  1.5762  0.4874
 9366TIP3   OH249512   3.457   2.005   1.301 -0.2242 -0.6569 -0.4989
 9366TIP3    H149513   3.544   1.973   1.281  0.4992  0.8093  0.1086
 9366TIP3    H249514   3.439   2.069   1.232 -1.0771 -1.3809 -0.9596
 9367TIP3   OH249515   2.210   2.678   2.947  0.2669 -0.3744 -0.2699
 9367TIP3    H149516   2.145   2.607   2.942  1.1506 -1.1937 -0.4147
 9367TIP3    H249517   2.251   2.667   3.032 -0.7819  1.0667  0.4562
 9368TIP3   OH249518   6.579   0.788   1.502 -0.9178  0.4560 -0.6062
 9368TIP3    H149519   6.593   0.831   1.587  1.3856 -1.5925  0.1760
 9368TIP3    H249520   6.666   0.781   1.464 -1.8894  1.1927 -3.1521
 9369TIP3   OH249521   0.179   6.564   5.822  0.5107  0.1001  0.5152
 9369TIP3    H149522   0.254   6.583   5.766 -0.1735  0.7077 -0.2111
 9369TIP3    H249523   0.130   6.646   5.827 -0.9532 -0.6734 -0.3209
 9370TIP3   OH249524   0.040   4.498  13.577  0.4755 -0.3662  0.1100
 9370TIP3    H149525   0.053   4.445  13.498  0.5383 -1.0181  0.5500
 9370TIP3    H249526   0.066   4.440  13.649  0.7740  0.3469  0.5861
 9371TIP3   OH249527   2.011   5.284  16.725  0.1226 -0.0506  0.1973
 9371TIP3    H149528   2.071   5.223  16.680  0.0161  1.3214 -1.9607
 9371TIP3    H249529   2.058   5.368  16.725 -1.8061  1.1443 -1.8266
 9372TIP3   OH249530   2.252   6.042   1.696 -0.1673 -0.0095  0.2703
 9372TIP3    H149531   2.329   6.094   1.673 -0.3909  0.1588 -0.1000
 9372TIP3    H249532   2.268   6.014   1.786  0.1869  0.2783  0.2980
 9373TIP3   OH249533   2.832   3.092  10.656  0.7345  0.2543  0.2729
 9373TIP3    H149534   2.748   3.126  10.626  0.3087 -0.6343  0.4158
 9373TIP3    H249535   2.888   3.169  10.663  0.1953  0.7493 -0.6739
 9374TIP3   OH249536   4.146   0.478  15.154 -0.3157 -0.0721 -0.4265
 9374TIP3    H149537   4.152   0.387  15.183 -1.9477  0.0113  0.2295
 9374TIP3    H249538   4.229   0.517  15.182 -0.5845 -0.7593  1.4646
 9375TIP3   OH249539   1.446   5.295  13.406 -0.1313  0.1370 -0.5487
 9375TIP3    H149540   1.533   5.295  13.445  0.7925 -0.5814 -2.4710
 9375TIP3    H249541   1.401   5.370  13.447  0.6047 -0.7189  2.0000
 9376TIP3   OH249542   5.680   4.527  13.733  0.3154  1.0470  0.3401
 9376TIP3    H149543   5.693   4.596  13.669 -0.3925  1.2823  0.4426
 9376TIP3    H249544   5.585   4.517  13.740  0.3853 -0.9669 -0.7650
 9377TIP3   OH249545   3.000   1.010  17.011 -0.3401  0.0399 -0.4518
 9377TIP3    H149546   3.010   1.105  17.011  1.8675 -0.1371 -1.9940
 9377TIP3    H249547   3.089   0.976  17.024 -1.2808 -1.8602  1.7434
 9378TIP3   OH249548   5.314   5.283   0.375  0.6179  0.1053  0.3264
 9378TIP3    H149549   5.244   5.343   0.352 -1.5831 -1.8460  1.5173
 9378TIP3    H249550   5.367   5.276   0.295 -1.3165  0.6374 -1.0572
 9379TIP3   OH249551   2.632   4.879   3.446  0.1054 -0.2525  0.2376
 9379TIP3    H149552   2.649   4.799   3.396  1.5572 -0.7435  1.4639
 9379TIP3    H249553   2.719   4.910   3.472 -0.6118 -0.4230  3.0812
 9380TIP3   OH249554   1.414   6.411  17.101  0.0790  0.3154  0.5378
 9380TIP3    H149555   1.498   6.414  17.056 -0.1717  0.2627  0.0618
 9380TIP3    H249556   1.434   6.373  17.187  0.9612  2.5285  1.3825
 9381TIP3   OH249557   4.370   4.562   3.416 -0.5852  0.2521  0.1914
 9381TIP3    H149558   4.317   4.623   3.466  0.4722  1.6204 -0.2925
 9381TIP3    H249559   4.384   4.605   3.331 -0.9372 -1.2690 -0.6779
 9382TIP3   OH249560   2.528   4.175   2.974  0.3305 -0.0126 -0.0593
 9382TIP3    H149561   2.573   4.168   3.058  1.9678  1.0307 -0.8085
 9382TIP3    H249562   2.539   4.088   2.934 -0.0628 -0.3712  0.6010
 9383TIP3   OH249563   0.645   2.935   5.633 -0.1284 -0.3520  0.2749
 9383TIP3    H149564   0.617   2.888   5.555 -1.0226 -0.9574  0.9412
 9383TIP3    H249565   0.739   2.949   5.621 -0.4725  0.7114 -1.4917
 9384TIP3   OH249566   6.578   2.378  15.510 -0.1144  0.5720 -0.2017
 9384TIP3    H149567   6.559   2.402  15.419  0.7757 -0.0775 -0.5670
 9384TIP3    H249568   6.504   2.323  15.536 -0.2426  0.5400 -0.6161
 9385TIP3   OH249569   1.459   6.085   0.303  0.0911 -0.4805 -0.3757
 9385TIP3    H149570   1.485   6.066   0.393  0.0758 -1.9764 -0.6601
 9385TIP3    H249571   1.513   6.027   0.249  0.3392  0.6317 -1.3693
 9386TIP3   OH249572   3.661   2.289   3.218 -0.3899 -0.0477 -0.5963
 9386TIP3    H149573   3.624   2.355   3.158 -0.3276  1.8123  1.2883
 9386TIP3    H249574   3.742   2.261   3.175  0.1438  1.9372 -1.0100
 9387TIP3   OH249575   1.647   2.563   1.388 -0.4570  0.1874 -0.2528
 9387TIP3    H149576   1.645   2.639   1.447 -1.7738  1.6280 -2.0265
 9387TIP3    H249577   1.732   2.569   1.345 -0.3257  0.3191  0.0195
 9388TIP3   OH249578   5.669   6.700   2.294  0.7300 -0.3478 -0.0710
 9388TIP3    H149579   5.752   6.699   2.342  1.6377 -2.9144 -1.5034
 9388TIP3    H249580   5.693   6.679   2.204 -1.4629 -1.0643 -0.5440
 9389TIP3   OH249581   5.452   1.959  12.587 -0.0509 -0.2608  0.5620
 9389TIP3    H149582   5.357   1.957  12.598 -0.2300  0.3079 -0.6307
 9389TIP3    H249583   5.486   1.971  12.675 -1.2282  2.4837  0.7500
 9390TIP3   OH249584   6.186   2.302   4.004 -0.6106 -0.3050 -0.5103
 9390TIP3    H149585   6.168   2.307   4.098  0.5593  1.3665 -0.3441
 9390TIP3    H249586   6.145   2.380   3.967  1.9140  0.9570 -0.8169
 9391TIP3   OH249587   0.546   2.945  15.745 -0.6378  0.4506 -0.4309
 9391TIP3    H149588   0.479   3.012  15.734 -0.2537  0.6326 -1.8268
 9391TIP3    H249589   0.628   2.994  15.750 -0.1866  0.1061 -2.9099
 9392TIP3   OH249590   2.633   3.431   5.533 -0.0965 -0.3157 -0.2646
 9392TIP3    H149591   2.679   3.364   5.584 -0.4522 -0.2974  0.0811
 9392TIP3    H249592   2.576   3.474   5.596 -0.7298 -0.4625 -0.7319
 9393TIP3   OH249593   3.348   3.854   1.349 -0.3237 -0.2078  0.0175
 9393TIP3    H149594   3.419   3.872   1.287 -0.5680  1.1939  0.1205
 9393TIP3    H249595   3.269   3.883   1.303 -0.5744  0.2913  0.7478
 9394TIP3   OH249596   0.039   6.709  12.799 -0.0138  0.1959  0.0754
 9394TIP3    H149597   0.128   6.701  12.766 -0.5050  0.9472 -1.6155
 9394TIP3    H249598   0.020   6.803  12.793 -0.9923  0.0150  0.1131
 9395TIP3   OH249599   2.934   1.087  16.393 -0.3711 -0.6110 -0.0554
 9395TIP3    H149600   2.932   1.152  16.323 -0.5804  1.0959  1.4578
 9395TIP3    H249601   3.019   1.100  16.435  0.7364 -3.1538 -1.3062
 9396TIP3   OH249602   0.372   6.453  15.275  1.2570 -0.1260 -0.3047
 9396TIP3    H149603   0.280   6.476  15.262 -0.1000 -2.4434  3.4832
 9396TIP3    H249604   0.413   6.534  15.305  0.0173  0.5739 -0.4439
 9397TIP3   OH249605   3.228   6.347  12.874 -0.9274  0.5560  0.4609
 9397TIP3    H149606   3.157   6.340  12.810 -1.2567 -1.8734  0.9790
 9397TIP3    H249607   3.187   6.319  12.957  0.2314  0.7173  1.1018
 9398TIP3   OH249608   0.531   3.969   6.381 -0.1846  0.4368  0.1547
 9398TIP3    H149609   0.590   3.894   6.383  1.2650  1.5476  0.9135
 9398TIP3    H249610   0.572   4.034   6.439 -1.5514  1.6938 -0.2126
 9399TIP3   OH249611   0.392   5.782  14.221  0.3731  0.1000  0.9237
 9399TIP3    H149612   0.301   5.769  14.194  0.9383 -0.2410 -0.9496
 9399TIP3    H249613   0.410   5.874  14.201  0.6677 -0.0442  0.5046
 9400TIP3   OH249614   1.965   6.156  13.925  0.4339  0.2841 -0.0921
 9400TIP3    H149615   1.999   6.096  13.859  0.7212  0.0399  0.2780
 9400TIP3    H249616   1.928   6.099  13.993  0.5585  0.5264  0.1806
 9401TIP3   OH249617   2.199   6.736  11.877 -0.5264 -0.0966  0.6756
 9401TIP3    H149618   2.176   6.668  11.941  0.5346 -0.7945  0.3557
 9401TIP3    H249619   2.293   6.722  11.861 -0.7098  0.2416 -0.8061
 9402TIP3   OH249620   1.335   0.493  11.952 -0.2561  0.4307  0.3349
 9402TIP3    H149621   1.247   0.508  11.987  0.0179 -1.1000  1.8045
 9402TIP3    H249622   1.358   0.405  11.980  1.3619  0.3991 -0.9064
 9403TIP3   OH249623   4.387   1.610  15.529 -0.1170  0.0290  0.1329
 9403TIP3    H149624   4.474   1.571  15.515 -0.7247 -1.5237  0.4809
 9403TIP3    H249625   4.381   1.678  15.462  1.9269  1.2003  1.0210
 9404TIP3   OH249626   2.236   0.941   3.919  0.7339  0.5689  0.4596
 9404TIP3    H149627   2.311   0.928   3.861  1.1486 -0.2850  1.1605
 9404TIP3    H249628   2.205   1.030   3.900  3.1013  1.6907  1.4749
 9405TIP3   OH249629   4.726   4.642   5.283 -0.3347  0.1710 -0.4083
 9405TIP3    H149630   4.797   4.677   5.229  0.6531 -0.3534  0.4908
 9405TIP3    H249631   4.716   4.706   5.354 -0.1974 -0.1512 -0.0927
 9406TIP3   OH249632   3.367   2.091  11.194 -0.1918 -0.0044 -0.1521
 9406TIP3    H149633   3.447   2.143  11.194 -0.4948  0.4798  0.3560
 9406TIP3    H249634   3.311   2.133  11.129 -1.5446  2.1353  2.1842
 9407TIP3   OH249635   0.703   5.090  15.913 -0.6207  0.4541 -0.1779
 9407TIP3    H149636   0.694   5.089  15.818  0.7863 -0.1413 -0.3201
 9407TIP3    H249637   0.617   5.118  15.945 -1.2613  0.1770 -1.5988
 9408TIP3   OH249638   2.023   0.780  13.546  0.0045  0.3084  0.4319
 9408TIP3    H149639   2.014   0.858  13.491 -0.5408 -0.2802 -0.3379
 9408TIP3    H249640   2.062   0.715  13.488 -2.0074 -0.8107  0.2177
 9409TIP3   OH249641   5.579   1.312   4.478  0.3403 -0.0488  0.2190
 9409TIP3    H149642   5.507   1.333   4.418  0.8164  0.1197 -0.3050
 9409TIP3    H249643   5.542   1.321   4.565 -0.8929 -2.0650 -0.0310
 9410TIP3   OH249644   1.302   5.128   3.432 -0.1658 -0.7137  0.7667
 9410TIP3    H149645   1.232   5.063   3.439 -0.2363 -0.6658  0.5121
 9410TIP3    H249646   1.378   5.087   3.474  0.7718 -2.3179 -2.2586
 9411TIP3   OH249647   1.176   2.657  14.927  0.2826  0.4367  0.1044
 9411TIP3    H149648   1.090   2.652  14.886  0.1122  2.7017  0.0502
 9411TIP3    H249649   1.172   2.735  14.982  1.8128 -0.2876  1.3451
 9412TIP3   OH249650   3.959   4.738   2.437  0.0701 -0.3414  0.0137
 9412TIP3    H149651   3.971   4.690   2.519  0.3224  3.2140  2.2431
 9412TIP3    H249652   3.866   4.758   2.435  0.0542 -0.4658 -0.6393
 9413TIP3   OH249653   5.076   1.265  14.706  0.4617  0.3619 -0.2577
 9413TIP3    H149654   5.013   1.335  14.723 -0.9869 -0.5859 -1.4293
 9413TIP3    H249655   5.024   1.185  14.710  2.2080 -0.7540  1.7443
 9414TIP3   OH249656   5.313   2.106   3.167 -0.2274 -0.3289 -0.8249
 9414TIP3    H149657   5.332   2.185   3.218  1.0275 -0.6899 -0.7129
 9414TIP3    H249658   5.332   2.034   3.226 -1.0564 -0.7406 -1.0353
 9415TIP3   OH249659   0.431   0.556  15.930  0.2023  0.1170 -0.1213
 9415TIP3    H149660   0.441   0.591  16.019  0.3015  0.0244 -0.0953
 9415TIP3    H249661   0.420   0.461  15.943  2.0619 -0.1563 -0.3177
 9416TIP3   OH249662   4.655   6.090  14.587  0.2083  0.0685 -0.0609
 9416TIP3    H149663   4.619   6.001  14.588  0.5876 -0.0813  0.3876
 9416TIP3    H249664   4.636   6.122  14.499 -1.0290 -0.0067  0.1556
 9417TIP3   OH249665   3.432   3.019   2.021 -0.4273 -0.6775 -0.7097
 9417TIP3    H149666   3.451   2.934   2.060 -0.4846 -0.8797 -1.1230
 9417TIP3    H249667   3.389   2.999   1.938  0.0901 -0.2635 -1.0906
 9418TIP3   OH249668   4.597   3.163   5.714  0.0512  0.4824  0.2981
 9418TIP3    H149669   4.604   3.186   5.806 -0.6708  0.5250  0.3439
 9418TIP3    H249670   4.576   3.070   5.712  1.2704  0.1946  0.1436
 9419TIP3   OH249671   3.840   2.697  12.251 -0.0555  0.5084 -0.8389
 9419TIP3    H149672   3.756   2.679  12.292 -0.4827 -0.8753 -2.1861
 9419TIP3    H249673   3.876   2.610  12.231  1.8214  1.0514 -0.1004
 9420TIP3   OH249674   5.997   5.310   0.481  0.7947  0.2960  0.0390
 9420TIP3    H149675   6.005   5.405   0.478  2.3395  0.3258  2.5763
 9420TIP3    H249676   6.076   5.279   0.435  1.5311  0.3068  1.2545
 9421TIP3   OH249677   1.844   1.734   6.177  0.2199  0.2814 -0.1746
 9421TIP3    H149678   1.827   1.728   6.271  0.6697  2.5734  0.1175
 9421TIP3    H249679   1.788   1.666   6.138  0.3882 -1.0421  1.7514
 9422TIP3   OH249680   2.186   4.074  16.263  0.0125  0.0565 -0.2984
 9422TIP3    H149681   2.093   4.085  16.242 -0.3733 -0.8165  0.8500
 9422TIP3    H249682   2.228   4.062  16.178 -0.7658  1.4044 -0.9068
 9423TIP3   OH249683   6.333   0.201   1.819  0.2276  0.1008 -0.4986
 9423TIP3    H149684   6.275   0.128   1.840 -0.5572  0.6635 -0.6695
 9423TIP3    H249685   6.370   0.227   1.904  1.3383 -1.1509 -0.5642
 9424TIP3   OH249686   0.754   4.027  11.371 -0.2563  0.0089  0.0285
 9424TIP3    H149687   0.808   3.970  11.425  0.2144 -2.9277 -3.2311
 9424TIP3    H249688   0.664   3.997  11.388 -0.0593 -1.3768 -1.1863
 9425TIP3   OH249689   5.605   0.976  12.591  0.8321 -0.4869 -0.5943
 9425TIP3    H149690   5.700   0.982  12.601  0.9118 -0.1693 -1.4802
 9425TIP3    H249691   5.577   0.920  12.663  1.4950  0.7242  0.6398
 9426TIP3   OH249692   5.827   4.406   4.872  0.0057 -0.0661  0.2110
 9426TIP3    H149693   5.856   4.496   4.857  1.2519 -0.7301 -1.6609
 9426TIP3    H249694   5.731   4.413   4.878  0.0071  1.2670 -0.8663
 9427TIP3   OH249695   4.930   0.034   0.046  0.0655 -0.3757  0.2301
 9427TIP3    H149696   4.937   0.029  -0.049  0.9946  0.4246  0.2448
 9427TIP3    H249697   5.012   0.075   0.074 -0.9502  1.1018  1.2073
 9428TIP3   OH249698   5.709   0.668   4.215 -0.2241  0.2608 -0.3952
 9428TIP3    H149699   5.798   0.672   4.182 -0.1612 -1.4692 -0.5198
 9428TIP3    H249700   5.654   0.689   4.139  0.0023 -1.2885 -1.0083
 9429TIP3   OH249701   0.612   3.224   2.707  0.4489 -0.2841  0.4520
 9429TIP3    H149702   0.652   3.220   2.794  0.3408  0.3631  0.5420
 9429TIP3    H249703   0.520   3.206   2.722  0.0704  1.6647  0.7686
 9430TIP3   OH249704   1.329   1.322   5.220 -0.1026 -0.0422  0.4364
 9430TIP3    H149705   1.267   1.391   5.198 -0.6419 -0.3561  0.9668
 9430TIP3    H249706   1.413   1.368   5.231 -0.4737  0.5423  0.8801
 9431TIP3   OH249707   5.244   1.267   5.218  0.3973 -0.0450  0.4520
 9431TIP3    H149708   5.198   1.346   5.188 -1.4705 -1.3527 -0.3234
 9431TIP3    H249709   5.331   1.273   5.178 -0.6766  0.2621 -2.0046
 9432TIP3   OH249710   0.564   2.426  16.121  0.4255  0.0894  0.1618
 9432TIP3    H149711   0.636   2.373  16.086  0.5314 -0.7252  1.5123
 9432TIP3    H249712   0.515   2.365  16.176 -1.0304  0.7600 -0.3555
 9433TIP3   OH249713   5.776   3.686  11.276 -0.3529  0.1353  0.5217
 9433TIP3    H149714   5.827   3.651  11.202 -2.0527 -1.0948 -0.1266
 9433TIP3    H249715   5.735   3.765  11.243 -2.6047 -1.3840 -0.5518
 9434TIP3   OH249716   5.518   5.733  14.586 -0.0360  0.0662 -0.2535
 9434TIP3    H149717   5.426   5.734  14.559  0.3605 -1.7554 -1.9468
 9434TIP3    H249718   5.564   5.775  14.514  0.7522 -2.1911 -1.1707
 9435TIP3   OH249719   2.507   2.632  14.552  0.1246 -0.0275 -0.5466
 9435TIP3    H149720   2.476   2.703  14.496  0.4901  0.7929  0.2815
 9435TIP3    H249721   2.579   2.592  14.502  0.1704  0.4235 -0.8486
 9436TIP3   OH249722   5.082   0.498   4.338  0.4145  0.3386 -0.5468
 9436TIP3    H149723   4.993   0.523   4.364 -0.2594 -2.6915  0.4838
 9436TIP3    H249724   5.138   0.536   4.405 -0.7900 -2.6090  2.4044
 9437TIP3   OH249725   6.470   5.894   0.676 -0.1593 -0.8592  0.7489
 9437TIP3    H149726   6.390   5.935   0.645  0.5596  2.1668  2.5575
 9437TIP3    H249727   6.496   5.836   0.604 -2.7421 -0.2718 -0.7892
 9438TIP3   OH249728   5.742   6.752   3.887  0.4616  0.3880 -0.3945
 9438TIP3    H149729   5.744   6.698   3.809  1.4367 -0.0656 -0.0783
 9438TIP3    H249730   5.660   6.730   3.931 -1.6509  2.8686 -2.7738
 9439TIP3   OH249731   4.511   5.159   3.542  0.7040 -0.1024  0.0419
 9439TIP3    H149732   4.439   5.222   3.546 -2.1044 -3.0362 -0.3137
 9439TIP3    H249733   4.554   5.177   3.459 -0.2099  1.1366 -0.1951
 9440TIP3   OH249734   4.092   2.275   4.327 -0.7043  0.3437 -0.2770
 9440TIP3    H149735   4.159   2.311   4.384  0.5039  0.6845 -1.8515
 9440TIP3    H249736   4.114   2.183   4.318 -0.9173  0.2808 -0.1641
 9441TIP3   OH249737   1.394   0.505  10.414 -0.2666  0.4245 -0.3461
 9441TIP3    H149738   1.334   0.502  10.487 -0.1795  0.4965 -0.2707
 9441TIP3    H249739   1.426   0.416  10.404  0.9389  0.7124  0.7234
 9442TIP3   OH249740   0.577   2.933   1.591 -0.2716  0.3429  0.4152
 9442TIP3    H149741   0.609   2.936   1.681  0.6462 -0.7182  0.1495
 9442TIP3    H249742   0.580   3.024   1.561  2.2095  0.3677  0.5278
 9443TIP3   OH249743   3.864   3.176  15.718 -0.0587  0.2869  0.0218
 9443TIP3    H149744   3.892   3.085  15.714  0.2418  0.4027 -0.6431
 9443TIP3    H249745   3.819   3.191  15.635 -0.4407  0.6363  0.2875
 9444TIP3   OH249746   6.274   5.315   1.563  0.4711  0.0029 -0.2503
 9444TIP3    H149747   6.256   5.242   1.503 -2.4953 -0.2445  0.8235
 9444TIP3    H249748   6.190   5.334   1.604  1.4205  3.2462  0.4426
 9445TIP3   OH249749   5.562   4.840  17.058 -0.1223  0.2975  0.5431
 9445TIP3    H149750   5.645   4.834  17.012 -0.6218  0.7478 -0.4462
 9445TIP3    H249751   5.567   4.923  17.106  0.3801 -0.1528  1.2955
 9446TIP3   OH249752   1.576   1.815   1.114 -0.0710 -0.3260  0.2770
 9446TIP3    H149753   1.555   1.773   1.030  1.3816  0.4326 -0.5076
 9446TIP3    H249754   1.496   1.862   1.137 -0.4418 -0.3868 -0.7909
 9447TIP3   OH249755   3.630   2.017   4.954  0.0565 -0.7760 -0.3672
 9447TIP3    H149756   3.602   2.055   4.871  0.8691 -0.1695 -0.3754
 9447TIP3    H249757   3.721   1.993   4.940 -0.3212 -2.4292 -0.2414
 9448TIP3   OH249758   1.831   5.484   2.269 -0.4224 -0.0976 -0.2487
 9448TIP3    H149759   1.884   5.552   2.227 -1.0176  1.1815  0.9633
 9448TIP3    H249760   1.885   5.454   2.343 -0.2606 -0.7845 -0.6407
 9449TIP3   OH249761   6.351   4.267   3.654 -0.2284  0.0648 -0.3189
 9449TIP3    H149762   6.405   4.284   3.731  0.0252 -0.0794 -0.4629
 9449TIP3    H249763   6.344   4.171   3.650 -1.3043  0.1109  0.2547
 9450TIP3   OH249764   0.306   1.349   4.740  0.1374 -0.0457 -0.4968
 9450TIP3    H149765   0.325   1.320   4.650  2.3158 -0.1930 -0.0322
 9450TIP3    H249766   0.359   1.292   4.795  0.0819  1.1096  0.7931
 9451TIP3   OH249767   3.605   1.325   3.789 -0.0303  0.4015  0.0541
 9451TIP3    H149768   3.619   1.273   3.868  1.5463 -2.6146 -1.9799
 9451TIP3    H249769   3.666   1.398   3.797 -0.6625  0.7766  2.0212
 9452TIP3   OH249770   2.342   0.590   1.401 -0.0983 -0.3586 -0.6080
 9452TIP3    H149771   2.404   0.656   1.432 -0.0574 -0.6244 -0.1111
 9452TIP3    H249772   2.256   0.628   1.417 -0.0766  0.1817 -1.6694
 9453TIP3   OH249773   1.319   5.951  15.106  0.0579  0.4778  0.1098
 9453TIP3    H149774   1.409   5.963  15.075  0.6441 -1.8823  0.7196
 9453TIP3    H249775   1.269   5.934  15.026  0.8036 -1.4622  0.0000
 9454TIP3   OH249776   0.563   4.075  11.813 -0.2100  0.3629  0.1401
 9454TIP3    H149777   0.541   4.132  11.739  0.3871  0.4040 -0.0115
 9454TIP3    H249778   0.579   4.135  11.885 -0.3438  0.3451  0.1851
 9455TIP3   OH249779   4.280   3.169   3.802 -0.3499  0.2704 -0.0028
 9455TIP3    H149780   4.336   3.101   3.839  0.4556  1.3874  0.9054
 9455TIP3    H249781   4.337   3.219   3.744  0.4742  3.0810  2.9289
 9456TIP3   OH249782   1.894   3.580   6.047 -0.1616 -0.2520 -0.1099
 9456TIP3    H149783   1.835   3.646   6.085  1.9559  2.2818 -0.8943
 9456TIP3    H249784   1.910   3.518   6.118 -0.5191  1.3344  1.4248
 9457TIP3   OH249785   3.194   2.702  14.261 -0.0678  0.0632 -0.0670
 9457TIP3    H149786   3.154   2.620  14.232  0.3936 -0.4089  0.6068
 9457TIP3    H249787   3.181   2.762  14.187 -2.1601 -0.0052  0.2027
 9458TIP3   OH249788   6.087   6.512   1.341 -0.1605 -0.9867 -0.3966
 9458TIP3    H149789   6.092   6.420   1.367  0.9267 -0.5212  1.2215
 9458TIP3    H249790   6.166   6.551   1.377 -0.6834  0.6207 -0.9076
 9459TIP3   OH249791   5.697   6.146  14.140 -0.6108 -0.5357 -0.3643
 9459TIP3    H149792   5.781   6.100  14.136 -0.4215 -0.1964 -0.3806
 9459TIP3    H249793   5.632   6.077  14.149 -0.3407 -0.8110 -0.5061
 9460TIP3   OH249794   2.156   0.537  15.132 -0.7323  0.7903  0.2430
 9460TIP3    H149795   2.207   0.597  15.078  2.0799 -0.9849  0.7445
 9460TIP3    H249796   2.145   0.583  15.215 -1.3905  1.8170 -0.3818
 9461TIP3   OH249797   3.522   2.401   2.419 -0.4564 -0.1596  0.0525
 9461TIP3    H149798   3.571   2.467   2.468 -1.1591  0.4289 -0.0199
 9461TIP3    H249799   3.431   2.413   2.447 -0.5887 -1.1555  0.0963
 9462TIP3   OH249800   5.030   6.091  12.208  0.0948 -0.5489 -0.8212
 9462TIP3    H149801   4.992   6.025  12.266  0.1064 -0.1616 -0.3688
 9462TIP3    H249802   4.959   6.115  12.148 -0.4548  0.2989  0.1267
 9463TIP3   OH249803   5.842   0.429  11.840 -0.6009  0.0194  0.0270
 9463TIP3    H149804   5.849   0.498  11.775 -2.6719  1.1536  0.8938
 9463TIP3    H249805   5.917   0.443  11.898 -2.0517  2.9898  1.4149
 9464TIP3   OH249806   3.615   4.007   2.597 -0.0977 -0.5441  0.0790
 9464TIP3    H149807   3.561   4.080   2.627 -0.1674 -0.5753  0.0326
 9464TIP3    H249808   3.590   3.934   2.653  1.7019  0.0496  1.7381
 9465TIP3   OH249809   0.312   3.148   0.236  0.3385  0.0009  0.7703
 9465TIP3    H149810   0.295   3.098   0.316 -1.4078  1.8830  1.6715
 9465TIP3    H249811   0.243   3.121   0.175  0.0722  0.4598  0.8606
 9466TIP3   OH249812   2.206   0.417   1.696  0.3259 -0.2513  0.2196
 9466TIP3    H149813   2.159   0.334   1.698 -1.1396  0.5518  1.8906
 9466TIP3    H249814   2.159   0.470   1.631  1.1445 -0.6275 -0.7072
 9467TIP3   OH249815   4.799   3.710   0.215 -0.7340  0.1483  0.3708
 9467TIP3    H149816   4.857   3.702   0.140 -1.0875  2.6327 -0.2279
 9467TIP3    H249817   4.747   3.788   0.198 -1.8903 -0.0778  2.4979
 9468TIP3   OH249818   0.727   0.369  11.269 -0.9200  0.3301 -0.1350
 9468TIP3    H149819   0.718   0.462  11.288  0.7738  0.6061 -0.4877
 9468TIP3    H249820   0.774   0.366  11.186  0.3382 -0.8175  0.5812
 9469TIP3   OH249821   1.548   1.577   4.669  0.2972 -0.2961  0.0329
 9469TIP3    H149822   1.512   1.652   4.716 -0.2941 -0.4065 -0.2342
 9469TIP3    H249823   1.500   1.575   4.586  2.2164  0.7037 -1.2018
 9470TIP3   OH249824   0.627   1.879   5.455 -0.2798 -0.5090  0.1222
 9470TIP3    H149825   0.646   1.962   5.498 -1.0224 -0.6879  0.8112
 9470TIP3    H249826   0.675   1.814   5.506 -0.3073 -0.5991  0.0333
 9471TIP3   OH249827   2.803   3.720  12.034 -0.2367 -0.3161 -0.0153
 9471TIP3    H149828   2.876   3.733  11.973  0.9279 -1.6561  1.0403
 9471TIP3    H249829   2.765   3.808  12.043 -1.1067 -0.1889 -3.3645
 9472TIP3   OH249830   1.517   0.207   2.415  0.3902 -0.1894  0.0707
 9472TIP3    H149831   1.541   0.230   2.505  1.2346  1.0869 -0.4497
 9472TIP3    H249832   1.599   0.210   2.367 -0.0608 -0.8140 -0.7650
 9473TIP3   OH249833   4.885   1.705  17.183  0.0349 -0.1252  0.2691
 9473TIP3    H149834   4.879   1.744  17.270 -3.7184  1.2198 -0.3773
 9473TIP3    H249835   4.806   1.651  17.175 -0.2510  0.5280 -2.5782
 9474TIP3   OH249836   4.294   6.427   3.081  0.5071 -0.4148 -0.1004
 9474TIP3    H149837   4.363   6.462   3.136  0.4333 -0.4883  0.0387
 9474TIP3    H249838   4.337   6.361   3.028  0.8765  0.5889 -1.1006
 9475TIP3   OH249839   4.015   4.993  17.167  0.0882 -0.0349 -0.0253
 9475TIP3    H149840   3.972   5.012  17.251  0.7407  1.9539 -0.0848
 9475TIP3    H249841   4.098   5.041  17.172  0.3247 -0.2384 -1.6496
 9476TIP3   OH249842   1.594   3.456   3.315  0.5014  0.6442 -0.4650
 9476TIP3    H149843   1.564   3.368   3.293 -0.8468  1.1470 -0.7036
 9476TIP3    H249844   1.645   3.445   3.395  1.6860 -0.5656 -1.3515
 9477TIP3   OH249845   5.033   6.076  13.761  0.3427 -0.0201 -0.0593
 9477TIP3    H149846   5.074   5.995  13.731  2.4808  1.0141 -0.1616
 9477TIP3    H249847   5.069   6.090  13.849 -0.2441  0.6449  0.0809
 9478TIP3   OH249848   4.924   4.903  12.222  0.1249 -0.0986 -0.4589
 9478TIP3    H149849   5.001   4.951  12.192 -0.9739  0.8483 -1.9372
 9478TIP3    H249850   4.870   4.970  12.265 -1.5081  0.1721 -2.6909
 9479TIP3   OH249851   2.510   4.711  12.818 -0.3867 -0.1729 -0.4101
 9479TIP3    H149852   2.419   4.728  12.843 -0.4753  0.2120 -0.9805
 9479TIP3    H249853   2.529   4.776  12.751  1.2535  1.7828  1.7580
 9480TIP3   OH249854   4.583   0.279   5.380  0.2932  0.2765 -0.0933
 9480TIP3    H149855   4.624   0.354   5.423 -0.2594  0.4451  0.1417
 9480TIP3    H249856   4.633   0.203   5.410 -1.1136  0.1704  2.2228
 9481TIP3   OH249857   2.505   5.080   2.739 -0.0008 -0.5652 -0.1516
 9481TIP3    H149858   2.530   5.030   2.661  1.8914  1.5359 -1.0097
 9481TIP3    H249859   2.585   5.088   2.790 -0.4081  0.9346  0.3132
 9482TIP3   OH249860   5.844   2.743  14.221 -0.8542  0.2811 -0.5251
 9482TIP3    H149861   5.779   2.693  14.270 -0.5226  1.9850  1.8287
 9482TIP3    H249862   5.811   2.833  14.221  0.8818  0.9628 -0.3553
 9483TIP3   OH249863   1.584   3.309   3.046 -0.2379  0.7621  0.0728
 9483TIP3    H149864   1.552   3.249   3.115  0.3107  0.6260  0.2173
 9483TIP3    H249865   1.636   3.374   3.094  2.9371 -1.1641 -0.4413
 9484TIP3   OH249866   3.898   6.221  16.423  0.5402  0.0721 -0.0668
 9484TIP3    H149867   3.912   6.241  16.516  1.1310 -0.3559 -0.0560
 9484TIP3    H249868   3.876   6.128  16.422 -2.5436  0.6907 -0.0721
 9485TIP3   OH249869   0.763   2.389   3.454 -0.2184 -0.6675  0.6613
 9485TIP3    H149870   0.818   2.407   3.529  0.3484 -1.0801  0.3540
 9485TIP3    H249871   0.701   2.322   3.484 -1.9039  1.2176  1.6087
 9486TIP3   OH249872   5.451   3.941  14.793  0.6463 -0.1718 -0.4427
 9486TIP3    H149873   5.417   3.855  14.816 -0.2748  0.3044  0.0431
 9486TIP3    H249874   5.506   3.966  14.867 -0.3853  0.3360  0.1670
 9487TIP3   OH249875   2.433   2.788  14.268 -0.3670  0.1119  0.1202
 9487TIP3    H149876   2.401   2.866  14.224  0.1924  0.5640  0.5087
 9487TIP3    H249877   2.499   2.751  14.209 -0.5912 -0.0394 -0.0372
 9488TIP3   OH249878   6.649   3.808  12.760  0.5748 -0.1534  0.0178
 9488TIP3    H149879   6.642   3.838  12.670  0.1450 -1.7053 -0.4907
 9488TIP3    H249880   6.671   3.715  12.754  1.1914 -0.1431  1.5169
 9489TIP3   OH249881   1.457   3.518  13.702  0.3271 -0.3493  0.6533
 9489TIP3    H149882   1.445   3.609  13.674 -1.4137 -0.4869  0.8230
 9489TIP3    H249883   1.524   3.522  13.770  0.7127  0.7174  0.2255
 9490TIP3   OH249884   4.020   3.898   5.285 -0.5172  0.4579  0.1687
 9490TIP3    H149885   4.046   3.875   5.196  1.0120  0.7649  0.4963
 9490TIP3    H249886   4.047   3.989   5.295 -1.3037  0.6388  0.7279
 9491TIP3   OH249887   1.336   2.023  15.634 -0.1389  0.0107  0.5387
 9491TIP3    H149888   1.248   2.060  15.641 -0.4107 -0.6226  0.4904
 9491TIP3    H249889   1.336   1.976  15.550  0.4919  0.6539  0.1639
 9492TIP3   OH249890   5.830   2.296  16.976  0.5336 -0.4992  0.2998
 9492TIP3    H149891   5.916   2.261  16.952  1.3215  1.3172  0.3143
 9492TIP3    H249892   5.846   2.388  16.996 -1.4677 -0.0355  0.0290
 9493TIP3   OH249893   3.155   4.574  10.972 -0.2279  0.8585 -0.4041
 9493TIP3    H149894   3.160   4.483  10.942 -0.5101  0.4320  0.7768
 9493TIP3    H249895   3.132   4.624  10.894  1.5654  0.1489 -1.4440
 9494TIP3   OH249896   3.886   4.323   5.837 -0.0317  0.1683 -0.0219
 9494TIP3    H149897   3.851   4.289   5.754 -0.3523 -0.3793  0.3315
 9494TIP3    H249898   3.916   4.245   5.884  0.8646  0.5509  0.0564
 9495TIP3   OH249899   0.718   1.025   2.663 -0.1240  0.3420  0.1665
 9495TIP3    H149900   0.695   1.024   2.756 -2.0620 -0.6421 -0.2646
 9495TIP3    H249901   0.640   0.992   2.619  0.3990  1.6859 -1.9095
 9496TIP3   OH249902   5.257   6.708   1.728  0.1070 -0.5818 -0.0968
 9496TIP3    H149903   5.186   6.755   1.683  1.1684 -0.4963 -1.8014
 9496TIP3    H249904   5.275   6.633   1.671 -0.5517 -2.2842  1.8333
 9497TIP3   OH249905   3.054   6.692   1.726 -0.1595 -0.5890  0.2923
 9497TIP3    H149906   3.073   6.712   1.634  0.1613 -0.5682  0.3609
 9497TIP3    H249907   3.017   6.773   1.761  0.2024 -0.4310  0.3127
 9498TIP3   OH249908   4.235   0.394  17.066  0.4368  0.2426 -0.5378
 9498TIP3    H149909   4.287   0.456  17.116  1.9300  0.1767 -1.9515
 9498TIP3    H249910   4.292   0.365  16.995 -0.0080 -3.1206  0.2921
 9499TIP3   OH249911   1.240   2.326  14.297 -0.0849 -0.0353 -0.3231
 9499TIP3    H149912   1.250   2.392  14.229 -0.3697  0.1405 -0.1972
 9499TIP3    H249913   1.210   2.248  14.251  2.8593 -0.9701 -0.9185
 9500TIP3   OH249914   4.827   0.019  15.882 -0.4616 -0.1663  0.2437
 9500TIP3    H149915   4.791   0.060  15.960 -0.4124  1.6713 -0.6442
 9500TIP3    H249916   4.905  -0.028  15.913  1.5142  3.2405  0.9095
 9501TIP3   OH249917   6.705   2.200  12.690 -0.2353  0.3374 -0.0717
 9501TIP3    H149918   6.771   2.259  12.725 -1.5515  3.1647 -1.9874
 9501TIP3    H249919   6.707   2.216  12.595 -1.3651 -2.0157 -0.5639
 9502TIP3   OH249920   4.339   1.515   2.820  0.3857 -1.0625  0.0227
 9502TIP3    H149921   4.355   1.440   2.877 -1.9338 -0.2015  1.9687
 9502TIP3    H249922   4.417   1.521   2.766  2.2785 -2.5865  2.3947
 9503TIP3   OH249923   6.329   2.001  15.503 -0.2089  0.3643  0.1119
 9503TIP3    H149924   6.354   2.069  15.566 -0.5698 -1.1284  1.9494
 9503TIP3    H249925   6.381   1.925  15.529 -0.4062 -0.3038 -1.3985
 9504TIP3   OH249926   4.203   5.340  11.367  0.4093  0.3723  0.3625
 9504TIP3    H149927   4.115   5.306  11.348  0.2690  1.3349 -0.8636
 9504TIP3    H249928   4.223   5.308  11.454 -1.4707  0.7247  0.9746
 9505TIP3   OH249929   5.888   5.016  13.180 -0.4455  0.0447 -0.3213
 9505TIP3    H149930   5.899   5.019  13.275 -1.7365 -1.0904 -0.0993
 9505TIP3    H249931   5.977   5.022  13.145  0.0431  0.5061  0.9534
 9506TIP3   OH249932   1.234   2.473  13.794  0.0276 -0.0139  0.1708
 9506TIP3    H149933   1.174   2.542  13.767  0.4929  0.7109  0.9382
 9506TIP3    H249934   1.303   2.474  13.728  0.9760  1.5042  1.1432
 9507TIP3   OH249935   6.633   3.151  16.678 -0.1067  0.5738  0.2265
 9507TIP3    H149936   6.585   3.130  16.757 -0.6699 -1.1111 -0.5242
 9507TIP3    H249937   6.581   3.113  16.607  1.3741  0.3225 -0.7706
 9508TIP3   OH249938   4.624   4.951  11.526  0.0252  0.4365  0.6359
 9508TIP3    H149939   4.552   5.006  11.496  0.6249  1.5009  1.0675
 9508TIP3    H249940   4.589   4.903  11.601 -0.5388  0.1300  0.1848
 9509TIP3   OH249941   1.578   2.204   4.484 -0.5436 -0.1040  0.2349
 9509TIP3    H149942   1.578   2.151   4.404 -0.3671  0.2189  0.0140
 9509TIP3    H249943   1.490   2.195   4.520 -0.2114 -1.3716  0.7645
 9510TIP3   OH249944   3.219   2.451   1.194  0.0776 -0.2663 -0.3685
 9510TIP3    H149945   3.273   2.518   1.234  0.4850 -0.4388 -0.6173
 9510TIP3    H249946   3.140   2.497   1.166 -0.5455 -0.2744  1.2644
 9511TIP3   OH249947   6.288   2.412   5.645  0.3014  0.6159  0.6938
 9511TIP3    H149948   6.290   2.493   5.695 -0.1592  1.1152 -0.0798
 9511TIP3    H249949   6.277   2.343   5.710  1.3959  1.1050  1.4214
 9512TIP3   OH249950   4.024   2.160   3.336 -0.1054  0.4963  0.1339
 9512TIP3    H149951   4.020   2.171   3.431 -2.8679 -0.8943  0.2755
 9512TIP3    H249952   3.992   2.243   3.301  1.5104  1.2436  0.3505
 9513TIP3   OH249953   2.410   0.555  14.353  0.6293 -0.3219  0.0781
 9513TIP3    H149954   2.413   0.508  14.436 -1.4901 -2.6383 -1.0502
 9513TIP3    H249955   2.398   0.647  14.377 -0.5701 -1.0136  2.3370
 9514TIP3   OH249956   3.500   5.173  16.282  0.3992  0.5942 -0.0994
 9514TIP3    H149957   3.515   5.157  16.189 -0.1302 -0.6036 -0.0028
 9514TIP3    H249958   3.585   5.158  16.323  0.3552 -0.1107 -0.2503
 9515TIP3   OH249959   2.306   0.561  13.913  0.1192  0.4795  0.6336
 9515TIP3    H149960   2.263   0.476  13.921  0.3117  0.4543  1.4702
 9515TIP3    H249961   2.235   0.625  13.920  0.0665  0.4100  0.7220
 9516TIP3   OH249962   0.146   6.722  11.194  0.1250  0.2995 -0.2678
 9516TIP3    H149963   0.165   6.717  11.100 -0.2576 -0.2683 -0.3208
 9516TIP3    H249964   0.065   6.772  11.200  1.2401  2.1731 -0.0856
 9517TIP3   OH249965   0.357   0.253  12.548 -0.1300  0.2255 -0.5447
 9517TIP3    H149966   0.387   0.217  12.465  3.4723 -1.4585  1.2834
 9517TIP3    H249967   0.291   0.190  12.579  1.1580 -1.1542 -0.5147
 9518TIP3   OH249968   3.134   3.205  13.569  0.1704 -0.5919  0.5797
 9518TIP3    H149969   3.191   3.246  13.635 -0.9555  1.0152  0.6146
 9518TIP3    H249970   3.148   3.257  13.490 -0.0780 -1.1899  0.1341
 9519TIP3   OH249971   1.221   0.415  16.049  0.7826  0.0563 -0.0671
 9519TIP3    H149972   1.191   0.424  15.958  0.0177 -0.4332  0.1256
 9519TIP3    H249973   1.310   0.451  16.048  1.1061 -0.6940 -1.1974
 9520TIP3   OH249974   6.574   5.021  13.560  0.4899 -0.0108  0.2377
 9520TIP3    H149975   6.484   5.005  13.533 -0.1202  0.1028  2.1090
 9520TIP3    H249976   6.625   4.953  13.515 -0.1307  1.3518 -2.7442
 9521TIP3   OH249977   3.737   6.393   0.820  0.1702 -0.3633 -0.5114
 9521TIP3    H149978   3.810   6.332   0.830  1.9958  1.7462 -0.0492
 9521TIP3    H249979   3.678   6.371   0.892  0.9814 -1.2861 -0.0955
 9522TIP3   OH249980   1.783   2.201  14.157  0.3538  0.1594 -0.6638
 9522TIP3    H149981   1.844   2.197  14.231  2.5212  3.6271 -2.0236
 9522TIP3    H249982   1.722   2.271  14.180  0.9675  1.1852 -2.0134
 9523TIP3   OH249983   4.766   0.703   2.641 -0.4120 -0.5992 -0.0980
 9523TIP3    H149984   4.827   0.717   2.569  0.7714 -1.7088  0.6525
 9523TIP3    H249985   4.814   0.650   2.704 -1.9191 -0.9261  0.8407
 9524TIP3   OH249986   2.100   4.464  14.937 -0.4161 -0.4945 -0.5548
 9524TIP3    H149987   2.014   4.435  14.905 -0.0591 -1.0006 -1.0644
 9524TIP3    H249988   2.132   4.392  14.991  0.6615 -1.2821 -2.1801
 9525TIP3   OH249989   3.206   1.441  16.188  0.1010 -0.4994  0.0762
 9525TIP3    H149990   3.155   1.522  16.194  1.4447  0.3701  0.2851
 9525TIP3    H249991   3.209   1.407  16.277  0.5482 -0.1179  0.2101
 9526TIP3   OH249992   3.176   3.666   0.468  0.2718  0.0603 -0.3844
 9526TIP3    H149993   3.168   3.695   0.377 -1.2776  1.9299  0.2871
 9526TIP3    H249994   3.251   3.715   0.502 -0.3107  0.8103 -0.1582
 9527TIP3   OH249995   4.496   1.726  13.433 -0.1922 -0.3767 -0.1415
 9527TIP3    H149996   4.584   1.747  13.467 -0.6373 -1.7944  2.0757
 9527TIP3    H249997   4.461   1.811  13.406  1.5519  0.3339 -0.3637
 9528TIP3   OH249998   1.331   6.587  13.236 -0.1803 -0.6749 -0.4071
 9528TIP3    H149999   1.282   6.624  13.163 -0.0993 -1.6638 -0.9661
 9528TIP3    H250000   1.325   6.654  13.305  0.4289  0.6313 -1.5684
 9529TIP3   OH250001   2.355   6.549   5.319 -0.5703 -0.0353 -0.4043
 9529TIP3    H150002   2.443   6.520   5.297 -1.5394 -2.4371 -1.4491
 9529TIP3    H250003   2.300   6.516   5.248 -2.4396  0.6877  0.6315
 9530TIP3   OH250004   5.451   4.114   5.115  0.1683  0.0434 -0.2814
 9530TIP3    H150005   5.462   4.025   5.083 -1.0632 -0.9400  1.8221
 9530TIP3    H250006   5.375   4.147   5.067 -0.1955 -0.5348 -0.1103
 9531TIP3   OH250007   2.175   0.900  14.629 -0.0464 -0.6231  0.5825
 9531TIP3    H150008   2.130   0.985  14.633  1.0172 -0.0605  0.9791
 9531TIP3    H250009   2.134   0.847  14.697 -0.8062 -0.4740  0.2461
 9532TIP3   OH250010   6.728   2.704  14.886  0.5056 -0.1643  0.0795
 9532TIP3    H150011   6.674   2.662  14.953  1.3086  0.8230  1.3932
 9532TIP3    H250012   6.783   2.633  14.852 -0.9179 -0.9693 -0.5890
 9533TIP3   OH250013   2.881   0.832   0.513  0.4427 -0.3411 -0.4512
 9533TIP3    H150014   2.883   0.928   0.503 -1.0321 -0.1528  0.7094
 9533TIP3    H250015   2.847   0.801   0.429 -0.0461  0.2439 -0.4785
 9534TIP3   OH250016   5.423   5.686  11.325 -0.1205  0.2548  0.0887
 9534TIP3    H150017   5.358   5.708  11.391 -0.4318  0.9225 -0.4258
 9534TIP3    H250018   5.506   5.681  11.373 -0.8999 -3.8277  1.3770
 9535TIP3   OH250019   5.464   0.333  16.370 -0.4906  0.8879 -0.1610
 9535TIP3    H150020   5.381   0.341  16.419 -1.0036 -0.4335 -0.7600
 9535TIP3    H250021   5.469   0.413  16.319 -1.1513  1.2071  0.2550
 9536TIP3   OH250022   5.449   2.282   0.267 -1.1670 -0.0565  0.4787
 9536TIP3    H150023   5.354   2.274   0.281 -1.0451  0.8185  1.9835
 9536TIP3    H250024   5.485   2.293   0.355  0.0561  2.2894 -0.2550
 9537TIP3   OH250025   3.867   3.362   2.385  0.4056 -0.2784 -0.3613
 9537TIP3    H150026   3.823   3.292   2.337 -3.6639  1.3959  0.5017
 9537TIP3    H250027   3.870   3.331   2.476  0.2355 -0.0667 -0.2823
 9538TIP3   OH250028   5.111   0.324  14.346 -0.3741 -0.3082  0.1788
 9538TIP3    H150029   5.031   0.311  14.295 -1.1183 -1.0136  1.4729
 9538TIP3    H250030   5.131   0.237  14.382 -0.5726  0.3754  2.0486
 9539TIP3   OH250031   5.498   5.418  12.961 -0.1795  0.0264  0.2479
 9539TIP3    H150032   5.489   5.326  12.986 -0.6279  0.4258  1.6329
 9539TIP3    H250033   5.584   5.423  12.919  0.0249 -0.9448  0.5271
 9540TIP3   OH250034   1.060   1.619   5.460  0.3121 -0.4440 -0.0946
 9540TIP3    H150035   1.138   1.563   5.456 -0.1952 -1.1248 -0.5585
 9540TIP3    H250036   0.988   1.558   5.479 -0.2151  0.0815 -0.4002
 9541TIP3   OH250037   0.083   2.521   4.133  0.0845 -0.7808  0.3262
 9541TIP3    H150038   0.102   2.530   4.226 -1.8822  0.3946  0.6531
 9541TIP3    H250039   0.158   2.472   4.098  0.8709 -1.2114  2.4922
 9542TIP3   OH250040   0.373   4.613   3.420  0.7577 -0.6457  0.6330
 9542TIP3    H150041   0.309   4.569   3.475  0.3570 -0.3578  0.3968
 9542TIP3    H250042   0.366   4.706   3.444  1.0466 -0.6047  0.5676
 9543TIP3   OH250043   2.953   3.523  11.822  0.1929  0.0259  0.0174
 9543TIP3    H150044   3.049   3.518  11.824  0.2021  0.3009  1.5863
 9543TIP3    H250045   2.927   3.462  11.753  1.6326  2.7999 -3.2439
 9544TIP3   OH250046   5.434   3.203  12.378  0.2574  0.7422  0.3340
 9544TIP3    H150047   5.382   3.251  12.442 -0.0672  0.0193  0.6162
 9544TIP3    H250048   5.450   3.118  12.419  1.7880  0.9829  0.3271
 9545TIP3   OH250049   1.192   4.416  13.016 -0.2114 -0.4885  0.0579
 9545TIP3    H150050   1.245   4.340  12.991  0.9934  0.0509  0.8744
 9545TIP3    H250051   1.201   4.477  12.943  1.4824  0.1701  0.7584
 9546TIP3   OH250052   2.989   4.057  15.575  0.0952 -0.3394  0.1660
 9546TIP3    H150053   2.971   4.114  15.501 -0.9715 -0.9180 -0.0346
 9546TIP3    H250054   2.903   4.026  15.603  0.5678 -0.9361  0.9961
 9547TIP3   OH250055   2.627   4.438   2.958 -0.3368  0.7160  0.1036
 9547TIP3    H150056   2.627   4.514   2.899 -0.6310  0.1572 -0.6334
 9547TIP3    H250057   2.575   4.372   2.912  0.6851 -0.2589  0.2936
 9548TIP3   OH250058   0.788   1.040   5.238  1.3986  0.4863 -0.8138
 9548TIP3    H150059   0.758   0.951   5.220  1.8232 -0.0135  0.8411
 9548TIP3    H250060   0.747   1.093   5.169  2.2483 -1.1566 -2.7033
 9549TIP3   OH250061   0.643   1.535   5.898 -0.6462  0.2506 -0.2161
 9549TIP3    H150062   0.613   1.462   5.952 -2.0396 -0.0752 -1.3934
 9549TIP3    H250063   0.581   1.605   5.916 -0.7780  0.3292 -0.9484
 9550TIP3   OH250064   6.517   2.962  13.964  0.7981 -0.0377 -0.2975
 9550TIP3    H150065   6.578   3.027  13.999  1.7538 -1.2039  0.2847
 9550TIP3    H250066   6.495   2.907  14.039  1.2814 -1.3564 -1.0906
 9551TIP3   OH250067   1.307   3.935   5.173 -0.5356 -0.7566  0.3717
 9551TIP3    H150068   1.262   4.002   5.121  0.0684  2.0646  3.2146
 9551TIP3    H250069   1.239   3.901   5.231 -0.3898 -1.1825  0.2959
 9552TIP3   OH250070   6.740   0.446   0.584 -0.1205 -0.3072  0.6660
 9552TIP3    H150071   6.831   0.451   0.611  0.2897 -1.7237 -0.3666
 9552TIP3    H250072   6.690   0.468   0.663  1.0943  0.0556  1.3488
 9553TIP3   OH250073   4.403   6.393  11.840 -0.0048  0.0458 -0.3305
 9553TIP3    H150074   4.419   6.410  11.932 -0.6197  2.5771 -0.6283
 9553TIP3    H250075   4.359   6.308  11.839 -0.6107  0.2806  1.7666
 9554TIP3   OH250076   6.332   1.968  15.820 -0.0436 -0.3599 -0.2312
 9554TIP3    H150077   6.240   1.970  15.795  0.1376  0.2586 -0.8848
 9554TIP3    H250078   6.360   1.878  15.801  0.2444  0.2145 -2.9241
 9555TIP3   OH250079   0.606   4.532  16.130 -0.0002 -0.2096  0.2227
 9555TIP3    H150080   0.606   4.575  16.216  1.1087  1.9699 -0.7981
 9555TIP3    H250081   0.515   4.541  16.100 -0.2223 -0.3176  0.8248
 9556TIP3   OH250082   1.441   0.226  10.389  0.0395  0.0980  0.3059
 9556TIP3    H150083   1.522   0.225  10.439  0.0519 -0.8065  0.2759
 9556TIP3    H250084   1.407   0.137  10.396 -0.9815  0.4764  0.3683
 9557TIP3   OH250085   0.808   1.710  14.646 -0.0437  0.4075  0.1491
 9557TIP3    H150086   0.862   1.708  14.567 -0.8127  1.1544 -0.4135
 9557TIP3    H250087   0.718   1.708  14.613 -0.4034  2.1732  0.9191
 9558TIP3   OH250088   1.047   5.838  11.766 -0.3651  1.0048 -0.1785
 9558TIP3    H150089   1.059   5.933  11.771 -2.9489  1.3747  3.5091
 9558TIP3    H250090   1.082   5.805  11.849 -0.5666 -1.1513 -0.8812
 9559TIP3   OH250091   6.024   5.693  13.278  0.0041 -0.6013  0.1889
 9559TIP3    H150092   5.999   5.604  13.253 -0.0120 -0.1828 -1.3735
 9559TIP3    H250093   6.007   5.745  13.200  2.0301  0.4040  0.3591
 9560TIP3   OH250094   5.609   0.666   0.329 -0.2978  0.2715 -0.0237
 9560TIP3    H150095   5.627   0.709   0.245 -1.3293  0.1967 -0.2931
 9560TIP3    H250096   5.650   0.723   0.394 -0.1970  0.7695 -0.5147
 9561TIP3   OH250097   5.898   4.210   0.337  0.4017 -0.3714 -0.3466
 9561TIP3    H150098   5.824   4.237   0.284  0.0310 -1.3939 -0.3806
 9561TIP3    H250099   5.962   4.177   0.273  0.7354  0.1389 -0.2869
 9562TIP3   OH250100   2.211   6.176  13.327  0.1191 -0.4641  0.4545
 9562TIP3    H150101   2.260   6.196  13.406 -1.3296 -0.0114  1.2833
 9562TIP3    H250102   2.194   6.261  13.287  0.6715 -0.6765 -0.2409
 9563TIP3   OH250103   0.461   5.162  12.826  0.5923 -0.3717 -0.1520
 9563TIP3    H150104   0.518   5.160  12.749 -0.1967 -0.3610 -0.7486
 9563TIP3    H250105   0.398   5.232  12.807  1.6431  1.0544  1.4270
 9564TIP3   OH250106   2.787   4.835  12.740 -0.0975 -0.0880 -0.4894
 9564TIP3    H150107   2.862   4.891  12.722  2.2287 -2.8279 -0.0218
 9564TIP3    H250108   2.769   4.792  12.656 -0.7300  0.0796 -0.4433
 9565TIP3   OH250109   6.061   1.476   1.846  0.0712  0.2685  0.0966
 9565TIP3    H150110   6.100   1.454   1.761  1.2792  1.0586  0.4295
 9565TIP3    H250111   6.000   1.404   1.864  0.8269 -0.6100 -0.7830
 9566TIP3   OH250112   5.770   1.264  14.844 -0.3263  0.4409 -0.1205
 9566TIP3    H150113   5.693   1.315  14.871 -1.7127 -2.2815  1.4767
 9566TIP3    H250114   5.787   1.205  14.917  2.6733  0.1860 -0.8914
 9567TIP3   OH250115   1.544   0.387  10.705  0.0876  0.1021 -0.0886
 9567TIP3    H150116   1.465   0.436  10.685  0.0517  0.9513  1.9449
 9567TIP3    H250117   1.513   0.307  10.747  0.2658  0.9131  1.6962
 9568TIP3   OH250118   2.879   3.389   6.054  0.1132 -0.0996  0.2522
 9568TIP3    H150119   2.873   3.392   6.149 -1.4465 -0.1367  0.1858
 9568TIP3    H250120   2.810   3.329   6.027 -0.6198  1.2133 -0.9815
 9569TIP3   OH250121   4.055   0.118   2.075 -0.1638 -0.7179 -0.0076
 9569TIP3    H150122   3.989   0.061   2.115 -1.7909  0.9628 -0.1946
 9569TIP3    H250123   4.052   0.198   2.128  2.0223 -0.7186  0.2055
 9570TIP3   OH250124   1.332   0.543   5.748  0.8513  0.2396 -0.0875
 9570TIP3    H150125   1.398   0.612   5.736 -1.0778  2.3326  0.5814
 9570TIP3    H250126   1.256   0.573   5.698  0.0596 -1.6283 -0.0895
 9571TIP3   OH250127   2.745   1.810   0.887 -0.4956  0.3602  0.2385
 9571TIP3    H150128   2.804   1.782   0.817 -1.7324  0.6678 -0.9769
 9571TIP3    H250129   2.782   1.893   0.916  0.6416 -0.2973  0.7231
 9572TIP3   OH250130   3.763   1.023   6.166 -0.1205  0.8044  0.4942
 9572TIP3    H150131   3.701   0.974   6.219 -0.3620  1.2091  0.5913
 9572TIP3    H250132   3.753   1.114   6.195 -0.1376  1.0032 -0.1276
 9573TIP3   OH250133   2.513   2.069   4.429  0.3615 -0.6105  0.4923
 9573TIP3    H150134   2.507   1.990   4.375  0.3327 -0.8904  0.9016
 9573TIP3    H250135   2.538   2.138   4.368 -0.2842 -0.7990  0.0059
 9574TIP3   OH250136   0.528   1.532  13.663  0.4087  0.4403 -0.6305
 9574TIP3    H150137   0.536   1.577  13.747  0.1637 -1.9665  0.8070
 9574TIP3    H250138   0.434   1.535  13.643  0.3360  0.2545 -0.3302
 9575TIP3   OH250139   3.014   0.886   4.376 -0.2838  0.0240  0.4528
 9575TIP3    H150140   3.018   0.863   4.469  1.1396 -1.4071  0.0805
 9575TIP3    H250141   2.942   0.949   4.371  0.2184  0.8849  2.6536
 9576TIP3   OH250142   4.891   4.204   1.104  0.1586  0.5170 -0.0463
 9576TIP3    H150143   4.857   4.291   1.080 -0.7873 -0.0724 -0.9177
 9576TIP3    H250144   4.813   4.153   1.125  0.6143 -0.4217 -0.5599
 9577TIP3   OH250145   2.070   2.761   4.519  0.2141 -0.0205  0.0608
 9577TIP3    H150146   1.989   2.812   4.511  0.8480  0.7981 -1.7149
 9577TIP3    H250147   2.131   2.821   4.562 -0.2473 -0.8646  2.0181
 9578TIP3   OH250148   1.651   3.382  10.487 -0.0866  0.2844  0.1291
 9578TIP3    H150149   1.652   3.286  10.481  1.5469  0.2814  0.0132
 9578TIP3    H250150   1.561   3.403  10.515 -0.0603 -1.3800  1.7007
 9579TIP3   OH250151   6.170   6.009  12.406 -0.1731 -0.0127 -0.0869
 9579TIP3    H150152   6.144   5.979  12.319 -0.3501  0.1651 -0.0961
 9579TIP3    H250153   6.209   6.096  12.391  0.1654 -0.1519 -0.0361
 9580TIP3   OH250154   4.707   5.763   2.563  0.0643 -0.5271 -0.1316
 9580TIP3    H150155   4.645   5.821   2.519 -2.9474 -1.2162  2.8371
 9580TIP3    H250156   4.769   5.822   2.605  0.6164  0.2373 -1.9193
 9581TIP3   OH250157   1.514   1.654  12.924 -0.1468 -0.3709 -0.4695
 9581TIP3    H150158   1.528   1.646  12.830 -1.6139 -1.7249 -0.6291
 9581TIP3    H250159   1.539   1.568  12.959  0.1889  0.0511  0.3658
 9582TIP3   OH250160   1.354   5.666   6.128 -0.1993 -0.2715 -0.3774
 9582TIP3    H150161   1.378   5.594   6.187  0.1192 -1.5256 -1.9875
 9582TIP3    H250162   1.270   5.640   6.092  0.1890 -0.1262 -1.4077
 9583TIP3   OH250163   2.728   6.694  16.437 -0.4155  0.1034  0.3444
 9583TIP3    H150164   2.722   6.635  16.513  0.1861 -0.9386 -0.3852
 9583TIP3    H250165   2.821   6.715  16.431  0.1027 -2.2368 -1.8079
 9584TIP3   OH250166   0.933   3.378   3.370 -0.3315 -0.1783 -0.2831
 9584TIP3    H150167   0.966   3.454   3.323  1.3181 -0.1475  0.8620
 9584TIP3    H250168   0.866   3.413   3.429  2.1533  0.9025  2.0902
 9585TIP3   OH250169   3.504   2.731  15.674 -0.4340  0.3021 -0.1249
 9585TIP3    H150170   3.582   2.784  15.695  1.3292 -1.3740 -2.0339
 9585TIP3    H250171   3.539   2.648  15.643 -3.0176 -0.4670 -1.2356
 9586TIP3   OH250172   0.801   1.853   2.059  0.2793 -0.4270  0.0560
 9586TIP3    H150173   0.733   1.818   2.116  0.2099 -0.2366  0.0897
 9586TIP3    H250174   0.775   1.824   1.971  0.7940 -1.3789  0.1974
 9587TIP3   OH250175   1.081   0.543   5.122  0.2723 -0.2451  0.5708
 9587TIP3    H150176   0.996   0.575   5.151  0.7851 -0.0285  1.8770
 9587TIP3    H250177   1.121   0.505   5.200  1.0656 -1.0324 -0.1992
 9588TIP3   OH250178   1.706   0.642  16.075 -0.7759 -0.2318 -0.0616
 9588TIP3    H150179   1.723   0.710  16.141 -0.2559  0.2064 -0.6365
 9588TIP3    H250180   1.753   0.565  16.107  0.5737  0.3515 -0.5598
 9589TIP3   OH250181   2.171   3.840  15.479 -0.6139 -0.5173  0.2368
 9589TIP3    H150182   2.085   3.809  15.506 -1.1897  0.1763 -0.7326
 9589TIP3    H250183   2.156   3.931  15.451 -0.0141 -1.0584 -2.0149
 9590TIP3   OH250184   3.918   3.987  16.766  0.1933 -0.6063 -0.1207
 9590TIP3    H150185   3.829   4.016  16.752  0.5605  0.7102  0.1830
 9590TIP3    H250186   3.964   4.064  16.799  1.0155 -1.7207  1.4604
 9591TIP3   OH250187   3.805   6.511  14.537  0.1427  1.0508 -0.0465
 9591TIP3    H150188   3.880   6.462  14.572 -1.6059 -0.8008  1.3119
 9591TIP3    H250189   3.769   6.455  14.469  0.0569  2.0155 -0.8202
 9592TIP3   OH250190   1.550   1.470  15.187  0.2689 -0.3453 -0.1325
 9592TIP3    H150191   1.598   1.392  15.160 -0.3939 -0.7345 -0.2225
 9592TIP3    H250192   1.607   1.512  15.252  2.3772  1.1602 -2.7513
 9593TIP3   OH250193   6.767   0.914  11.604  0.4199  0.1570 -0.7487
 9593TIP3    H150194   6.825   0.838  11.607  2.3763  1.4307 -2.5585
 9593TIP3    H250195   6.765   0.946  11.694  0.0606 -1.6416 -0.0798
 9594TIP3   OH250196   0.109   0.256   0.834  0.5691 -0.5236 -0.1285
 9594TIP3    H150197   0.049   0.327   0.859  0.5700 -1.0555  1.5344
 9594TIP3    H250198   0.159   0.238   0.913  0.2327 -2.6938 -0.3310
 9595TIP3   OH250199   0.023   3.726  11.624  0.5574 -0.2063 -0.6980
 9595TIP3    H150200   0.031   3.665  11.697  0.4965 -0.1541 -0.6474
 9595TIP3    H250201   0.015   3.812  11.665 -0.7532 -0.2988 -0.7351
 9596TIP3   OH250202   0.686   2.486  14.296 -0.2703 -0.3774  0.7745
 9596TIP3    H150203   0.675   2.395  14.325  1.2560 -1.2586 -1.1468
 9596TIP3    H250204   0.677   2.538  14.375 -2.2084 -2.0927  1.7835
 9597TIP3   OH250205   0.450   4.251   5.794  0.0245  0.0296  0.4239
 9597TIP3    H150206   0.385   4.182   5.781  0.4247 -0.3611  0.4177
 9597TIP3    H250207   0.534   4.203   5.796  0.4305  0.6472 -0.8735
 9598TIP3   OH250208   0.798   0.953  15.780  0.4681  0.4462 -0.9683
 9598TIP3    H150209   0.822   0.881  15.838 -1.7712 -0.0713 -0.5850
 9598TIP3    H250210   0.847   0.936  15.699  0.6489 -1.0309 -0.5717
 9599TIP3   OH250211   1.441   3.927  17.168 -0.0037  0.2681 -0.2073
 9599TIP3    H150212   1.376   3.969  17.224 -0.8406  0.3165 -1.1920
 9599TIP3    H250213   1.424   3.833  17.179 -0.3639  0.2850 -0.5982
 9600TIP3   OH250214   5.489   0.947   5.220 -0.2973 -0.4059 -0.2869
 9600TIP3    H150215   5.549   0.937   5.294 -0.5464  1.3152  0.1968
 9600TIP3    H250216   5.402   0.952   5.260 -0.5796 -0.8822 -0.8203
 9601TIP3   OH250217   5.243   4.906  15.643 -0.3410 -0.0064  0.5833
 9601TIP3    H150218   5.246   4.907  15.547  0.4055  2.1365  0.5763
 9601TIP3    H250219   5.162   4.954  15.664 -0.6898 -0.7792  1.0483
 9602TIP3   OH250220   6.113   3.708  14.061  0.0764 -0.1733 -0.2073
 9602TIP3    H150221   6.069   3.685  14.143  2.1363 -0.5435  0.8775
 9602TIP3    H250222   6.201   3.735  14.088  0.4536  0.8274 -2.2226
 9603TIP3   OH250223   0.178   3.567  12.205 -0.1063 -0.0413 -0.0414
 9603TIP3    H150224   0.202   3.483  12.166  1.5520  0.8165 -0.9733
 9603TIP3    H250225   0.106   3.546  12.264 -1.1275 -1.7691 -1.7875
 9604TIP3   OH250226   4.236   1.333  12.179 -0.2370  0.2139 -0.3122
 9604TIP3    H150227   4.329   1.309  12.182 -0.3696 -0.2050  1.2483
 9604TIP3    H250228   4.194   1.261  12.132  0.2021  0.3563 -0.9374
 9605TIP3   OH250229   5.802   6.086  16.133 -0.1181 -0.3270  0.3628
 9605TIP3    H150230   5.853   6.154  16.177  1.6845 -0.4008 -1.4598
 9605TIP3    H250231   5.868   6.031  16.090 -1.7203 -0.6617 -1.8053
 9606TIP3   OH250232   5.056   0.095   1.679 -0.2027 -0.7835  0.3922
 9606TIP3    H150233   5.069   0.183   1.643  0.5381 -0.3556  1.6315
 9606TIP3    H250234   4.992   0.107   1.749 -1.7187 -1.6191 -0.7907
 9607TIP3   OH250235   2.101   0.446  17.130 -0.2592 -0.3998 -0.4035
 9607TIP3    H150236   2.030   0.382  17.132  0.4217 -1.1870 -0.8202
 9607TIP3    H250237   2.145   0.431  17.047  0.3270  0.1527 -0.2060
 9608TIP3   OH250238   6.662   1.724  14.832  0.0179 -0.0671  0.0777
 9608TIP3    H150239   6.745   1.730  14.784  0.2703 -1.7159  0.2606
 9608TIP3    H250240   6.685   1.741  14.923 -0.2557  1.7782 -0.1550
 9609TIP3   OH250241   6.413   6.051   4.887  0.2443  0.0198  0.0228
 9609TIP3    H150242   6.470   6.094   4.823 -0.7025  0.5817 -0.4645
 9609TIP3    H250243   6.329   6.097   4.879  0.2375  0.4205  2.0065
 9610TIP3   OH250244   0.761   1.266   1.329 -0.0448  0.6777 -0.5812
 9610TIP3    H150245   0.795   1.176   1.334  0.5521  0.8818 -0.9001
 9610TIP3    H250246   0.820   1.310   1.269  0.5760  1.7090  0.7417
 9611TIP3   OH250247   5.465   5.481  14.421 -0.0574 -0.5314  0.0906
 9611TIP3    H150248   5.487   5.569  14.390 -0.5629  0.0823  1.4077
 9611TIP3    H250249   5.461   5.489  14.516 -1.6508 -1.6122  0.1507
 9612TIP3   OH250250   6.710   5.849  12.868  0.2652 -0.2763  0.2351
 9612TIP3    H150251   6.668   5.763  12.868 -1.5867  0.4902 -2.4846
 9612TIP3    H250252   6.731   5.866  12.776  1.5756  1.7673  0.8242
 9613TIP3   OH250253   3.628   2.954  11.685 -0.5425  0.8042  0.0264
 9613TIP3    H150254   3.682   2.941  11.763 -1.2770 -0.7830  0.3100
 9613TIP3    H250255   3.684   2.924  11.613 -0.3090  1.0992  0.0838
 9614TIP3   OH250256   6.135   4.802  16.305  0.1387 -0.5925 -0.3546
 9614TIP3    H150257   6.208   4.762  16.352  0.2136 -0.0544 -0.0183
 9614TIP3    H250258   6.116   4.882  16.353 -0.9191 -0.9091 -0.2192
 9615TIP3   OH250259   2.726   2.870  15.788  0.4670 -0.0694 -0.5739
 9615TIP3    H150260   2.661   2.940  15.784 -0.3572 -0.5557  2.1528
 9615TIP3    H250261   2.676   2.792  15.814  2.1135 -0.2235  2.7414
 9616TIP3   OH250262   0.665   2.499   4.657 -0.0483  0.0621 -0.1821
 9616TIP3    H150263   0.592   2.437   4.660 -0.8092  0.7687 -2.1188
 9616TIP3    H250264   0.739   2.447   4.625 -0.5706  0.0071 -1.3709
 9617TIP3   OH250265   6.657   6.178   1.722  0.8245 -0.7606  0.3231
 9617TIP3    H150266   6.666   6.254   1.665 -1.0371 -0.9022 -0.2076
 9617TIP3    H250267   6.585   6.127   1.684 -0.3651 -0.9633  2.6739
 9618TIP3   OH250268   3.562   1.156   0.873  0.3548 -0.0038 -0.7261
 9618TIP3    H150269   3.621   1.085   0.847 -0.6438 -0.0681 -3.0677
 9618TIP3    H250270   3.589   1.178   0.962  2.4574 -1.4860 -0.9191
 9619TIP3   OH250271   4.129   5.860   1.239  0.0810 -0.4196 -0.5184
 9619TIP3    H150272   4.065   5.877   1.308  1.5707 -1.2991  1.1769
 9619TIP3    H250273   4.182   5.940   1.237  0.0906 -0.4281 -0.5752
 9620TIP3   OH250274   6.352   1.368  13.235 -0.2366  0.0036 -0.3544
 9620TIP3    H150275   6.264   1.339  13.215  0.1411 -2.4740  1.1357
 9620TIP3    H250276   6.406   1.331  13.165 -0.3663  2.1518 -1.6993
 9621TIP3   OH250277   6.156   0.693   1.109 -0.3495  0.0164 -0.1216
 9621TIP3    H150278   6.201   0.745   1.175 -0.2236 -0.7142  0.3729
 9621TIP3    H250279   6.068   0.731   1.105 -1.7366 -2.3050  3.3479
 9622TIP3   OH250280   1.405   2.501  14.936  0.8469  0.3105  0.0927
 9622TIP3    H150281   1.403   2.444  14.859  1.5741  0.9194 -0.3967
 9622TIP3    H250282   1.328   2.556  14.926  0.6247  0.0020  0.1006
 9623TIP3   OH250283   6.673   1.008   3.921 -0.3281 -0.1141 -0.3510
 9623TIP3    H150284   6.659   1.037   4.011  0.1363 -1.6246  0.2339
 9623TIP3    H250285   6.666   1.089   3.869  0.0578  0.8921  1.0897
 9624TIP3   OH250286   0.788   4.503   1.303  0.1333 -0.5830  0.2308
 9624TIP3    H150287   0.794   4.449   1.224 -1.7464 -0.8832  0.2622
 9624TIP3    H250288   0.786   4.441   1.375  0.2364 -0.3675  0.4213
 9625TIP3   OH250289   2.856   1.111  15.012 -0.0739 -0.5718 -0.1959
 9625TIP3    H150290   2.907   1.190  15.029  0.5018 -0.7283 -1.1517
 9625TIP3    H250291   2.842   1.073  15.098 -0.3114  0.5340  0.2783
 9626TIP3   OH250292   3.435   5.852  12.648 -0.2246 -0.1548 -0.3096
 9626TIP3    H150293   3.364   5.865  12.585 -0.0316 -1.5344 -0.8444
 9626TIP3    H250294   3.503   5.914  12.621 -0.0498 -0.8843 -1.6171
 9627TIP3   OH250295   2.028   5.175   3.432 -0.5204  0.1567 -0.4815
 9627TIP3    H150296   2.051   5.219   3.350  2.2477  0.0411  0.1380
 9627TIP3    H250297   2.012   5.084   3.406  1.4938 -0.1541 -0.8315
 9628TIP3   OH250298   0.851   0.431  15.826  0.2279  0.0343  0.1390
 9628TIP3    H150299   0.927   0.387  15.786 -1.6136 -0.3246 -3.3614
 9628TIP3    H250300   0.789   0.361  15.843 -0.4412  0.6352  0.2144
 9629TIP3   OH250301   5.551   4.976   5.179  0.2008  0.5422 -0.0573
 9629TIP3    H150302   5.548   5.061   5.222  0.4299  1.3234 -1.5364
 9629TIP3    H250303   5.635   4.975   5.133 -0.5771  0.2830 -1.5282
 9630TIP3   OH250304   0.630   1.245   0.740  0.6288 -0.0909  0.4360
 9630TIP3    H150305   0.611   1.334   0.712 -0.8679 -1.1012 -2.1112
 9630TIP3    H250306   0.710   1.222   0.693  0.5600 -0.3305  0.4335
 9631TIP3   OH250307   3.964   2.770   2.547  0.1314  0.2246 -0.3076
 9631TIP3    H150308   4.051   2.730   2.546  0.2881  0.3218  2.1295
 9631TIP3    H250309   3.980   2.859   2.578 -0.9076 -0.0542  1.1126
 9632TIP3   OH250310   1.670   1.083   5.775  0.0830 -0.2506 -0.0325
 9632TIP3    H150311   1.665   0.994   5.740 -0.0884 -0.9631  1.6965
 9632TIP3    H250312   1.583   1.120   5.758  0.7152  0.3346 -2.4649
 9633TIP3   OH250313   5.816   2.196   2.210 -0.0172  0.0420 -0.5554
 9633TIP3    H150314   5.753   2.129   2.183 -1.1643  0.2129  1.5110
 9633TIP3    H250315   5.858   2.160   2.287  1.2968  0.6160 -0.9743
 9634TIP3   OH250316   5.836   2.737   0.136 -0.0949 -0.5586 -0.2714
 9634TIP3    H150317   5.770   2.671   0.155 -1.3776  0.8309  0.2651
 9634TIP3    H250318   5.826   2.756   0.042 -1.6263  0.8066  0.1212
 9635TIP3   OH250319   6.783   1.212   2.886  0.0739 -0.3173  0.4233
 9635TIP3    H150320   6.789   1.123   2.851 -0.9484 -0.6437  1.0198
 9635TIP3    H250321   6.721   1.204   2.959 -0.3333  0.9563  0.2379
 9636TIP3   OH250322   1.862   6.486   4.417 -0.0671 -0.5228  0.5776
 9636TIP3    H150323   1.843   6.496   4.323  0.6792  0.2830  0.5017
 9636TIP3    H250324   1.888   6.573   4.446  1.9349 -1.2032  1.0080
 9637TIP3   OH250325   3.794   1.447  10.908 -0.5776  0.4969  0.3052
 9637TIP3    H150326   3.765   1.366  10.950 -0.2273  0.0483 -0.3008
 9637TIP3    H250327   3.715   1.499  10.897 -0.6365  0.7834  1.8398
 9638TIP3   OH250328   6.221   6.248   5.560  0.6493  0.5488 -0.5587
 9638TIP3    H150329   6.281   6.236   5.633  1.5149  1.7306 -1.0449
 9638TIP3    H250330   6.276   6.280   5.489 -0.0175 -1.3069 -2.0044
 9639TIP3   OH250331   0.270   1.870   4.730 -0.6480  0.0753 -0.1182
 9639TIP3    H150332   0.212   1.820   4.786 -0.9769 -0.0679 -0.5877
 9639TIP3    H250333   0.320   1.804   4.681 -0.7336  0.2035 -0.3777
 9640TIP3   OH250334   4.056   1.343  10.821 -0.4965 -0.1530  0.0993
 9640TIP3    H150335   3.962   1.362  10.827 -0.1265  1.7627  0.6537
 9640TIP3    H250336   4.092   1.419  10.773  0.4119 -2.2112 -2.7629
 9641TIP3   OH250337   5.071   5.246   1.705  0.2415  0.6006  0.8946
 9641TIP3    H150338   5.045   5.159   1.737 -0.4827  0.4285 -0.0929
 9641TIP3    H250339   5.163   5.236   1.680 -0.0322 -0.1159  0.0917
 9642TIP3   OH250340   5.392   4.863   4.938  0.3250 -0.0033  0.5834
 9642TIP3    H150341   5.322   4.805   4.906  0.4948  0.1901 -0.1450
 9642TIP3    H250342   5.375   4.870   5.032 -0.3967 -0.2894  0.4843
 9643TIP3   OH250343   4.878   2.523  14.145  0.3573  0.3285 -0.1276
 9643TIP3    H150344   4.870   2.619  14.149 -1.5807  0.1813  0.3006
 9643TIP3    H250345   4.789   2.491  14.159  0.9126 -1.5436 -0.6405
 9644TIP3   OH250346   6.269   1.474  11.500 -0.4123 -0.7618  0.0272
 9644TIP3    H150347   6.287   1.562  11.533 -2.3786 -0.2816 -0.0751
 9644TIP3    H250348   6.343   1.422  11.530  0.6195  0.8418  0.3936
 9645TIP3   OH250349   1.373   2.047   3.424  0.6472  0.3317  0.1585
 9645TIP3    H150350   1.460   2.022   3.455  0.6005  0.5196  0.4501
 9645TIP3    H250351   1.387   2.079   3.335  0.9321  0.7096  0.3363
 9646TIP3   OH250352   3.921   0.674  13.536  0.1802 -0.2510  0.0605
 9646TIP3    H150353   3.969   0.674  13.618 -0.6998  0.1539  0.5948
 9646TIP3    H250354   3.989   0.669  13.468  0.9792  0.4558  0.7791
 9647TIP3   OH250355   3.144   1.002  10.241  0.2204 -0.0613  0.1335
 9647TIP3    H150356   3.143   0.933  10.174  2.8744  0.6113 -0.7032
 9647TIP3    H250357   3.223   0.985  10.292  2.2944  3.5528 -1.5374
 9648TIP3   OH250358   1.011   5.250  16.658  0.2412  0.0291 -0.2603
 9648TIP3    H150359   1.044   5.162  16.675  1.7870  0.3991 -1.1455
 9648TIP3    H250360   1.063   5.307  16.716  0.0779  0.4760 -0.5454
 9649TIP3   OH250361   4.918   6.038  15.531 -0.5355  0.0333  0.2043
 9649TIP3    H150362   4.950   5.983  15.602 -1.1183  0.9139  1.1838
 9649TIP3    H250363   4.968   6.119  15.539 -0.0325 -0.1523 -0.9090
 9650TIP3   OH250364   4.566   0.905   1.072  0.7808 -0.1464 -0.5442
 9650TIP3    H150365   4.597   0.976   1.128  3.9025 -1.2480 -0.6545
 9650TIP3    H250366   4.473   0.896   1.092  0.6380  2.9019  0.5766
 9651TIP3   OH250367   6.232   1.413  11.125  0.5071 -0.1253 -0.1587
 9651TIP3    H150368   6.184   1.474  11.181  0.2462  1.0756 -1.6286
 9651TIP3    H250369   6.303   1.380  11.181 -0.1296  0.5154  1.0691
 9652TIP3   OH250370   3.979   4.292   4.699 -0.0597  0.0510  0.8637
 9652TIP3    H150371   4.016   4.235   4.631 -0.7071  0.6459 -0.0102
 9652TIP3    H250372   4.054   4.337   4.737  0.5863 -2.0129  2.2049
 9653TIP3   OH250373   5.433   1.360  11.957  0.0458 -0.2336 -0.4974
 9653TIP3    H150374   5.454   1.435  11.901 -0.7334  1.0933  0.9100
 9653TIP3    H250375   5.514   1.311  11.963  0.5856  0.5160 -1.4200
 9654TIP3   OH250376   4.290   3.045  15.363  0.1611 -0.0157  0.1183
 9654TIP3    H150377   4.232   2.992  15.417 -0.4001 -0.1029 -0.5544
 9654TIP3    H250378   4.232   3.108  15.321  0.6758  0.4383  0.0886
 9655TIP3   OH250379   1.645   5.805  13.652 -0.1744 -0.0291 -0.5543
 9655TIP3    H150380   1.582   5.872  13.625  0.5452  0.8515 -0.1175
 9655TIP3    H250381   1.693   5.783  13.572  0.9739  1.5186 -0.3558
 9656TIP3   OH250382   1.610   0.992  14.356 -0.1603  0.2356  0.2159
 9656TIP3    H150383   1.541   0.968  14.294  0.9222 -2.5583 -0.0147
 9656TIP3    H250384   1.565   1.049  14.419 -2.1062  0.3777 -1.1867
 9657TIP3   OH250385   1.191   5.964   0.825 -0.0353 -0.0284 -0.2980
 9657TIP3    H150386   1.197   5.895   0.891 -0.3411  0.3569  0.1393
 9657TIP3    H250387   1.177   5.918   0.743 -1.9182 -0.4493  0.2026
 9658TIP3   OH250388   2.090   0.724   1.403  0.1498 -0.2597  0.0925
 9658TIP3    H150389   2.094   0.702   1.310  1.4201 -0.4002  0.1712
 9658TIP3    H250390   2.115   0.817   1.406  0.0750 -0.2465  0.2930
 9659TIP3   OH250391   1.928   5.726   0.319 -0.0553 -0.1570  0.1321
 9659TIP3    H150392   1.981   5.796   0.356  0.5518 -0.8336  0.5635
 9659TIP3    H250393   1.937   5.737   0.224  0.5592 -0.0343  0.1989
 9660TIP3   OH250394   6.615   6.435  15.815 -0.4151  0.5883  0.5047
 9660TIP3    H150395   6.644   6.519  15.851 -1.6617  1.2226  0.0677
 9660TIP3    H250396   6.609   6.377  15.892 -2.1311  1.6599  1.2284
 9661TIP3   OH250397   5.014   4.512   2.780 -0.3988  0.0579  0.4567
 9661TIP3    H150398   5.060   4.584   2.824 -1.7112  0.0583  1.8941
 9661TIP3    H250399   4.936   4.498   2.833 -0.5270 -1.9665 -0.2073
 9662TIP3   OH250400   2.311   1.727   1.864  0.3300 -0.1197 -0.0273
 9662TIP3    H150401   2.341   1.637   1.862  0.6053 -0.0387  0.3210
 9662TIP3    H250402   2.392   1.779   1.867  0.1616  0.1021  0.9385
 9663TIP3   OH250403   0.688   4.285  11.548 -0.5813  0.0448  0.2586
 9663TIP3    H150404   0.712   4.230  11.473  1.5731  2.7470 -1.2464
 9663TIP3    H250405   0.648   4.363  11.508 -0.2763  1.1430  2.0087
 9664TIP3   OH250406   3.237   1.204  15.316 -0.7737  0.3271  0.1427
 9664TIP3    H150407   3.181   1.243  15.383 -0.1579 -0.5946  1.2192
 9664TIP3    H250408   3.269   1.123  15.355 -1.0432 -0.6741 -1.5695
 9665TIP3   OH250409   1.872   3.043  10.831  0.1979 -0.2690 -0.9135
 9665TIP3    H150410   1.835   3.126  10.802  0.3826  0.2349  0.2757
 9665TIP3    H250411   1.837   2.979  10.769 -1.7817  0.3431 -0.5004
 9666TIP3   OH250412   0.849   2.126   2.347 -0.5050 -0.4963 -0.0489
 9666TIP3    H150413   0.934   2.165   2.329 -0.1136 -1.4596 -0.3708
 9666TIP3    H250414   0.785   2.193   2.323  0.1279 -0.2204 -0.9835
 9667TIP3   OH250415   1.442   3.377  11.455 -0.5671  0.0432  0.2423
 9667TIP3    H150416   1.364   3.428  11.435  0.6899  0.4897 -5.3576
 9667TIP3    H250417   1.491   3.430  11.517 -2.8316  1.7223  0.7051
 9668TIP3   OH250418   2.142   2.477   2.106 -0.5205 -0.2580 -0.1710
 9668TIP3    H150419   2.130   2.411   2.174  0.3841 -1.4659 -1.1369
 9668TIP3    H250420   2.223   2.523   2.130 -1.1789  0.5791  0.5307
 9669TIP3   OH250421   3.039   5.453   4.749 -0.2551  0.3577 -0.0579
 9669TIP3    H150422   3.014   5.424   4.661 -0.6843 -0.1636  0.2258
 9669TIP3    H250423   3.022   5.377   4.805  0.7902  0.4136  0.3538
 9670TIP3   OH250424   4.863   6.260  14.038  0.0484  0.6368 -0.3202
 9670TIP3    H150425   4.791   6.243  13.978  1.2229 -1.2965 -1.2801
 9670TIP3    H250426   4.921   6.319  13.989  0.0588  0.6394 -0.3050
 9671TIP3   OH250427   4.807   6.339  10.814  0.0831 -0.1755 -0.2863
 9671TIP3    H150428   4.840   6.403  10.751  1.1878 -0.2349  0.2209
 9671TIP3    H250429   4.829   6.254  10.775  0.0886 -0.2241 -0.1755
 9672TIP3   OH250430   5.324   2.978  14.698  0.0660  0.2823 -0.3666
 9672TIP3    H150431   5.263   3.019  14.636 -1.0329  4.3302  2.9454
 9672TIP3    H250432   5.411   2.994  14.661 -0.6010  1.4049 -1.5152
 9673TIP3   OH250433   1.290   4.598  16.505  0.0658 -0.2668  0.2334
 9673TIP3    H150434   1.210   4.546  16.512 -1.1416  1.6640  1.5223
 9673TIP3    H250435   1.300   4.639  16.590  1.3189  1.1232 -0.5329
 9674TIP3   OH250436   3.600   1.629   5.470 -0.4810 -0.4239 -0.0318
 9674TIP3    H150437   3.622   1.580   5.549 -1.3881 -1.7562 -0.5614
 9674TIP3    H250438   3.534   1.575   5.426 -2.1269  1.6649 -0.2647
 9675TIP3   OH250439   3.953   5.760  12.997  0.0992 -0.5141  0.0109
 9675TIP3    H150440   3.950   5.765  12.901  0.6536 -0.6863 -0.0222
 9675TIP3    H250441   3.954   5.666  13.015 -2.1742 -0.5406  0.2823
 9676TIP3   OH250442   0.090   4.764  15.934  0.2766 -0.1060 -0.3735
 9676TIP3    H150443   0.062   4.856  15.928 -0.6575 -0.4036 -0.7207
 9676TIP3    H250444   0.086   4.744  16.027  1.4601  0.4818 -0.1671
 9677TIP3   OH250445   0.413   1.825   3.039 -0.0879  0.1891 -0.4496
 9677TIP3    H150446   0.366   1.908   3.039  0.7284  0.7053  1.6488
 9677TIP3    H250447   0.505   1.848   3.050  0.1636 -0.9783  0.0540
 9678TIP3   OH250448   2.595   4.746  12.537  0.4335 -0.6579 -0.2942
 9678TIP3    H150449   2.587   4.799  12.457 -0.6709 -1.6371 -0.8665
 9678TIP3    H250450   2.636   4.665  12.508  1.5485 -0.3799  0.4622
 9679TIP3   OH250451   5.296   6.151   0.516  0.0280  0.2393  0.1878
 9679TIP3    H150452   5.214   6.199   0.503 -0.0032 -0.4700 -3.2754
 9679TIP3    H250453   5.274   6.060   0.499  1.2509 -0.1943  0.7619
 9680TIP3   OH250454   1.366   4.985   5.978  0.0504  0.5405 -0.5576
 9680TIP3    H150455   1.408   5.067   5.952  0.0342  0.7619  0.1120
 9680TIP3    H250456   1.319   5.006   6.059 -1.2213  0.2573 -1.1916
 9681TIP3   OH250457   0.531   4.543  12.103  0.5961 -0.5614  0.0084
 9681TIP3    H150458   0.511   4.461  12.058  0.9888 -1.0379  0.6816
 9681TIP3    H250459   0.561   4.602  12.034 -0.5263 -0.6980 -0.6112
 9682TIP3   OH250460   6.507   6.622   2.122  0.4902 -0.0581 -0.7199
 9682TIP3    H150461   6.556   6.545   2.094  0.1569 -0.4927 -0.1335
 9682TIP3    H250462   6.416   6.592   2.129  0.1804  0.6558 -1.4850
 9683TIP3   OH250463   5.709   5.071   2.976 -0.2286 -0.2942 -0.2304
 9683TIP3    H150464   5.676   5.147   2.927  0.4737  1.3959  1.7643
 9683TIP3    H250465   5.635   5.042   3.028  0.0491  0.3339  0.5254
 9684TIP3   OH250466   0.379   0.357   2.911  0.1036  0.2015 -0.4156
 9684TIP3    H150467   0.321   0.289   2.946  0.6836 -0.4816 -0.7292
 9684TIP3    H250468   0.448   0.365   2.976 -0.0207  0.5733 -0.3295
 9685TIP3   OH250469   0.655   5.786   1.006 -0.5494 -0.4968  0.0267
 9685TIP3    H150470   0.742   5.794   0.968 -0.9512 -1.0865 -1.0509
 9685TIP3    H250471   0.637   5.873   1.042  0.5619 -0.4339  0.4425
 9686TIP3   OH250472   1.461   0.457   0.738 -0.7919 -0.9821 -0.4340
 9686TIP3    H150473   1.404   0.533   0.728 -0.7656 -1.1048 -1.6607
 9686TIP3    H250474   1.410   0.383   0.706 -0.4325 -1.3212 -0.2411
 9687TIP3   OH250475   2.592   4.287   2.615  0.4422  0.2390 -0.4719
 9687TIP3    H150476   2.655   4.220   2.590  1.1433  0.3748  0.8294
 9687TIP3    H250477   2.517   4.237   2.648 -0.2246  0.0754 -2.1458
 9688TIP3   OH250478   0.205   6.373   4.941  0.2115 -0.3095 -0.2548
 9688TIP3    H150479   0.284   6.398   4.988  0.6051 -2.0240  0.0689
 9688TIP3    H250480   0.156   6.454   4.931  1.7865  0.7074 -0.0490
 9689TIP3   OH250481   3.995   0.493   4.943 -0.2281  0.1244  0.0677
 9689TIP3    H150482   3.909   0.460   4.916 -0.3942  1.3101 -0.9576
 9689TIP3    H250483   3.981   0.528   5.031 -0.9163  0.7027 -0.2627
 9690TIP3   OH250484   1.765   1.650   0.327 -0.2576 -0.0584 -0.1392
 9690TIP3    H150485   1.724   1.733   0.347  2.7217  1.7189 -0.8400
 9690TIP3    H250486   1.747   1.636   0.234 -0.8155 -0.2658 -0.0046
 9691TIP3   OH250487   0.059   4.571  15.309  0.0345  0.2144 -0.3400
 9691TIP3    H150488   0.138   4.613  15.278  0.8630 -0.5556  0.6625
 9691TIP3    H250489   0.082   4.535  15.395 -0.7403 -1.8876 -0.9465
 9692TIP3   OH250490   1.358   1.626  17.105 -0.4737  0.5300  0.1875
 9692TIP3    H150491   1.387   1.539  17.078 -1.3921  0.4226 -0.5090
 9692TIP3    H250492   1.426   1.656  17.166 -0.7144 -1.1625  1.3808
 9693TIP3   OH250493   4.625   2.370  14.666 -0.2018 -0.7803 -0.1844
 9693TIP3    H150494   4.714   2.389  14.694 -0.8322  1.3722  0.5491
 9693TIP3    H250495   4.634   2.296  14.606  2.0544 -0.6471 -0.0865
 9694TIP3   OH250496   4.668   0.611  15.038 -0.1449  0.1554  0.1435
 9694TIP3    H150497   4.688   0.533  15.090 -1.3485  0.1995  0.7248
 9694TIP3    H250498   4.699   0.591  14.950  0.0297 -0.7684  0.4071
 9695TIP3   OH250499   0.953   1.466   0.802 -0.2856  0.0252  0.3413
 9695TIP3    H150500   0.867   1.483   0.765 -0.3318 -0.8989  0.0050
 9695TIP3    H250501   1.013   1.471   0.727  0.1282  1.7454  0.7345
 9696TIP3   OH250502   2.344   5.001   0.120 -0.0426  0.2600 -0.2072
 9696TIP3    H150503   2.425   4.975   0.077  0.1030  0.2121  0.0931
 9696TIP3    H250504   2.300   4.918   0.139 -0.1581  0.2857 -0.3579
 9697TIP3   OH250505   0.116   4.546  11.112  0.1655  0.2187 -0.2774
 9697TIP3    H150506   0.186   4.607  11.136 -0.6823  1.2746 -0.4215
 9697TIP3    H250507   0.045   4.602  11.080 -0.2536 -0.9205 -1.3957
 9698TIP3   OH250508   2.761   0.060   0.205  0.0652 -0.2385  0.4194
 9698TIP3    H150509   2.754   0.111   0.285 -2.2512 -1.3921  1.0266
 9698TIP3    H250510   2.674   0.065   0.165  0.3531 -2.0041 -0.5479
 9699TIP3   OH250511   2.434   5.170  15.419  0.0385 -0.1410  0.2826
 9699TIP3    H150512   2.495   5.229  15.464  1.6082 -1.1109 -0.4678
 9699TIP3    H250513   2.351   5.218  15.417  0.9008  1.4627  0.8827
 9700TIP3   OH250514   1.707   0.375  10.490 -0.4458 -0.4269  0.0360
 9700TIP3    H150515   1.752   0.460  10.491  0.0958 -0.7092  0.3649
 9700TIP3    H250516   1.639   0.384  10.557 -1.1778  0.1556 -0.7729
 9701TIP3   OH250517   5.106   4.037  11.451  0.1847  0.1775 -0.1343
 9701TIP3    H150518   5.144   4.090  11.521 -0.5352  0.6013 -0.0562
 9701TIP3    H250519   5.032   3.992  11.492  0.9131 -1.0840 -0.1381
 9702TIP3   OH250520   3.626   6.209  16.338  0.4069  0.3477 -0.3766
 9702TIP3    H150521   3.589   6.273  16.399 -0.2449  0.8444 -1.2685
 9702TIP3    H250522   3.719   6.232  16.333 -0.2001  2.8034 -2.4709
 9703TIP3   OH250523   6.632   6.682   0.059 -0.6061 -0.1082 -0.1333
 9703TIP3    H150524   6.670   6.677  -0.028 -1.3826 -0.0852 -0.4848
 9703TIP3    H250525   6.667   6.763   0.097  1.6166 -1.3071  0.5148
 9704TIP3   OH250526   3.659   3.306   5.515  0.1289  0.4079  0.8998
 9704TIP3    H150527   3.675   3.257   5.435 -1.9198 -0.1539  0.7811
 9704TIP3    H250528   3.676   3.397   5.491 -0.8690  0.2923 -0.2952
 9705TIP3   OH250529   4.949   6.736  12.482  0.3119  0.3697  0.1850
 9705TIP3    H150530   4.995   6.678  12.421  0.0144  1.6599 -1.3227
 9705TIP3    H250531   5.002   6.816  12.484  0.2560  0.3956  1.5741
 9706TIP3   OH250532   2.939   4.364   5.710  0.4358  0.3814 -0.3212
 9706TIP3    H150533   2.930   4.459   5.711 -0.5348  0.3897  3.1634
 9706TIP3    H250534   3.023   4.347   5.754  1.0224 -0.3873 -1.6834
 9707TIP3   OH250535   4.404   6.393  13.535  0.0881  0.5495  0.4582
 9707TIP3    H150536   4.309   6.394  13.522  0.2390  2.8753 -1.0332
 9707TIP3    H250537   4.428   6.485  13.546  2.3946  0.2539 -1.2798
 9708TIP3   OH250538   6.105   0.683   4.799 -0.4921  0.1278 -0.4719
 9708TIP3    H150539   6.023   0.648   4.765 -0.3635  0.6315 -1.3325
 9708TIP3    H250540   6.157   0.703   4.722  0.0893  0.6608  0.0409
 9709TIP3   OH250541   4.498   3.487   3.653 -0.2806 -0.2007 -0.3248
 9709TIP3    H150542   4.555   3.422   3.611 -0.8986 -0.8814 -0.1419
 9709TIP3    H250543   4.490   3.456   3.743  0.6934  1.0143  0.2024
 9710TIP3   OH250544   2.511   1.122  13.665 -0.2557 -0.2154  0.5257
 9710TIP3    H150545   2.595   1.129  13.620  0.2792 -0.7872  1.4159
 9710TIP3    H250546   2.446   1.127  13.595  0.5761 -1.9794 -0.4344
 9711TIP3   OH250547   2.672   3.085  16.305 -0.2304  0.2239 -0.1513
 9711TIP3    H150548   2.589   3.129  16.326  0.4030  2.0174 -1.2125
 9711TIP3    H250549   2.678   3.015  16.370 -3.9071 -1.8176 -1.7522
 9712TIP3   OH250550   5.341   2.794   2.783 -0.0100 -0.3297 -0.3480
 9712TIP3    H150551   5.314   2.804   2.691 -0.0534  0.7440 -0.2344
 9712TIP3    H250552   5.417   2.851   2.791  0.1674 -0.6502  0.2134
 9713TIP3   OH250553   6.128   1.544   5.935  0.1884  0.2215 -0.5199
 9713TIP3    H150554   6.123   1.579   5.846 -0.1660  0.4035 -0.4281
 9713TIP3    H250555   6.048   1.493   5.945  0.2155  0.2236 -0.2962
 9714TIP3   OH250556   3.327   2.168  14.697 -0.1108 -0.2072  0.2243
 9714TIP3    H150557   3.257   2.124  14.747 -0.7823  0.7336  0.1294
 9714TIP3    H250558   3.320   2.260  14.723  1.4150 -0.1737  0.5789
 9715TIP3   OH250559   2.213   1.713   6.235  0.2443 -0.0948 -0.3832
 9715TIP3    H150560   2.151   1.641   6.233 -0.9122  0.8716 -1.6782
 9715TIP3    H250561   2.175   1.777   6.295  1.9516 -1.0712  1.8710
 9716TIP3   OH250562   6.047   0.571  15.621 -0.0743  0.2840  0.2585
 9716TIP3    H150563   6.014   0.511  15.554 -0.5946 -0.4686  1.1611
 9716TIP3    H250564   5.997   0.652  15.607 -0.8490 -0.1789  0.3374
 9717TIP3   OH250565   0.774   5.051   1.520  0.3424  0.1759 -0.1782
 9717TIP3    H150566   0.806   4.971   1.479  2.6914  2.7010 -3.9119
 9717TIP3    H250567   0.852   5.094   1.554 -0.7064  1.4101  0.7993
 9718TIP3   OH250568   1.508   2.306  15.335  0.9028 -0.0599 -0.4010
 9718TIP3    H150569   1.592   2.304  15.381  0.6516 -2.1052  0.0592
 9718TIP3    H250570   1.532   2.309  15.243  1.4817 -0.3672 -0.2705
 9719TIP3   OH250571   5.853   5.349   0.043 -0.3215 -0.1290  0.2680
 9719TIP3    H150572   5.797   5.271   0.039  0.4749 -0.6802 -0.8335
 9719TIP3    H250573   5.794   5.419   0.071 -0.8259 -1.3038  2.4002
 9720TIP3   OH250574   2.247   3.708  10.633 -0.3096 -1.0414  0.5529
 9720TIP3    H150575   2.192   3.786  10.626 -0.1793 -0.8121  1.8444
 9720TIP3    H250576   2.189   3.635  10.613 -0.6461 -0.6810  0.2068
 9721TIP3   OH250577   3.145   1.903  12.686 -0.3207 -0.0916 -0.0233
 9721TIP3    H150578   3.228   1.894  12.733  1.3799  0.5260 -2.6609
 9721TIP3    H250579   3.123   1.814  12.659 -0.4179 -0.2326  0.5153
 9722TIP3   OH250580   3.437   1.879  14.643  0.6710  0.3270  0.1972
 9722TIP3    H150581   3.388   1.799  14.626 -0.4277  1.4068 -2.1442
 9722TIP3    H250582   3.464   1.872  14.734 -0.2298 -2.2386  0.3330
 9723TIP3   OH250583   3.391   3.193  15.660  0.1180 -0.6254 -0.0822
 9723TIP3    H150584   3.362   3.103  15.673  1.0840 -0.8691  0.4952
 9723TIP3    H250585   3.425   3.220  15.745 -0.2275  0.3170 -0.2293
 9724TIP3   OH250586   5.770   5.265  16.915 -0.5638  0.4986  0.2704
 9724TIP3    H150587   5.786   5.220  16.998 -2.2384 -1.1524 -0.2323
 9724TIP3    H250588   5.840   5.235  16.857 -0.8625 -0.3878  0.3573
 9725TIP3   OH250589   0.816   4.986  11.894  0.4413  0.3044  0.5167
 9725TIP3    H150590   0.765   4.906  11.887 -0.0125  0.6155  0.2497
 9725TIP3    H250591   0.800   5.017  11.984  0.3831  0.2569  0.5224
 9726TIP3   OH250592   6.669   1.330   1.520  0.3016  0.3793  0.7453
 9726TIP3    H150593   6.632   1.243   1.536 -1.5865  1.0863  0.5447
 9726TIP3    H250594   6.712   1.324   1.435 -1.3412  0.0628 -0.0935
 9727TIP3   OH250595   2.435   6.704  13.367 -0.0187  0.5678  0.2289
 9727TIP3    H150596   2.521   6.679  13.403  0.1172 -2.3993 -1.7875
 9727TIP3    H250597   2.455   6.741  13.282 -0.6970  1.0013  0.2556
 9728TIP3   OH250598   1.350   0.891   3.964 -0.3777 -0.6896  0.1945
 9728TIP3    H150599   1.339   0.840   4.044  0.4461  0.6571  1.2096
 9728TIP3    H250600   1.442   0.880   3.941 -0.1985  0.2620  0.3987
 9729TIP3   OH250601   2.037   4.507   4.458  0.9099 -0.4030  0.0806
 9729TIP3    H150602   2.002   4.564   4.527 -0.5884 -1.6801  0.4256
 9729TIP3    H250603   2.132   4.519   4.464  0.6932  1.3203  0.7603
 9730TIP3   OH250604   3.416   0.790   2.255  0.4499  0.7546  0.1082
 9730TIP3    H150605   3.415   0.710   2.204  0.0158  1.5829 -1.2260
 9730TIP3    H250606   3.463   0.767   2.335  3.8927  0.1507 -1.9064
 9731TIP3   OH250607   3.006   4.401  14.067  0.7013 -0.2860 -0.3332
 9731TIP3    H150608   3.061   4.479  14.058  1.1516 -0.3858  1.1810
 9731TIP3    H250609   3.068   4.328  14.067  0.3357 -0.6075 -1.1004
 9732TIP3   OH250610   5.013   4.349  15.119  0.2002  0.2031 -0.3146
 9732TIP3    H150611   5.013   4.396  15.036  0.6575  0.1319 -0.3539
 9732TIP3    H250612   5.003   4.257  15.093 -1.2387  0.3016 -0.2163
 9733TIP3   OH250613   5.129   4.543   6.287 -0.6078  0.1337  0.4256
 9733TIP3    H150614   5.054   4.483   6.282  0.6250 -1.5682  1.3722
 9733TIP3    H250615   5.201   4.489   6.319  1.2454  1.5365 -1.1652
 9734TIP3   OH250616   3.348   1.534  10.773 -0.2300  0.2029 -0.5272
 9734TIP3    H150617   3.300   1.563  10.696  0.5257  0.3245 -0.9702
 9734TIP3    H250618   3.324   1.442  10.784  1.5034 -0.5657 -2.4081
 9735TIP3   OH250619   4.196   4.135   2.335 -0.2731 -0.4111 -0.5783
 9735TIP3    H150620   4.154   4.049   2.341 -1.6496  0.1831 -1.3764
 9735TIP3    H250621   4.181   4.163   2.245  1.6183 -0.0317 -0.8089
 9736TIP3   OH250622   2.114   4.345   3.530  0.8538  0.0438  0.1904
 9736TIP3    H150623   2.193   4.392   3.503  1.4778  0.4109  2.4303
 9736TIP3    H250624   2.142   4.254   3.536  0.4736 -0.1823 -1.1609
 9737TIP3   OH250625   0.747   5.434   2.808  0.5460 -0.0937 -0.2087
 9737TIP3    H150626   0.715   5.489   2.880  0.0022  1.0541 -1.2918
 9737TIP3    H250627   0.795   5.494   2.751  0.1593 -0.7740 -1.2893
 9738TIP3   OH250628   0.993   1.633  12.523 -0.5684  0.7136  0.5725
 9738TIP3    H150629   0.947   1.689  12.460 -1.3357 -0.3357  0.1634
 9738TIP3    H250630   0.925   1.610  12.588 -0.2102  0.4251  0.8487
 9739TIP3   OH250631   4.441   6.207   5.975  0.4325  0.4564  0.8064
 9739TIP3    H150632   4.518   6.209   5.919  0.3846  0.3302  0.7327
 9739TIP3    H250633   4.476   6.195   6.063  0.4542 -0.8299  0.6430
 9740TIP3   OH250634   0.394   4.295   4.251 -0.8570 -0.1173 -0.8649
 9740TIP3    H150635   0.365   4.285   4.161 -1.1302 -0.0112 -0.7899
 9740TIP3    H250636   0.485   4.264   4.251 -1.4512 -1.9906 -0.7874
 9741TIP3   OH250637   5.183   1.762   4.189 -0.3824  0.0801 -0.0682
 9741TIP3    H150638   5.110   1.822   4.178 -1.2853 -0.8354  0.7343
 9741TIP3    H250639   5.145   1.675   4.176  0.2581 -0.5051  1.6953
 9742TIP3   OH250640   6.103   1.881   4.578 -0.2244  0.0705 -0.0221
 9742TIP3    H150641   6.121   1.791   4.606  2.4333  0.6197  0.3232
 9742TIP3    H250642   6.051   1.918   4.649  2.2222 -0.0459  2.0049
 9743TIP3   OH250643   2.913   1.661   5.345  0.1858  0.0154 -0.4840
 9743TIP3    H150644   2.969   1.726   5.301  1.1688 -1.4819 -1.5590
 9743TIP3    H250645   2.863   1.712   5.408 -0.5321  2.1411 -2.6006
 9744TIP3   OH250646   2.590   5.764  10.629  0.2779  0.2558 -0.1250
 9744TIP3    H150647   2.662   5.807  10.677 -0.7629  0.3758  1.3914
 9744TIP3    H250648   2.519   5.828  10.631 -0.2634 -0.3249 -0.5845
 9745TIP3   OH250649   0.374   5.764   3.226  0.3396  0.5380  0.5866
 9745TIP3    H150650   0.291   5.717   3.217  0.5351 -0.0421  1.7159
 9745TIP3    H250651   0.353   5.841   3.279  0.4858  0.4836  0.7247
 9746TIP3   OH250652   5.453   3.711  16.728 -0.7043  0.0290 -0.0036
 9746TIP3    H150653   5.410   3.686  16.647 -1.0402 -2.0461  0.7593
 9746TIP3    H250654   5.474   3.628  16.771  0.9190  1.0361  1.2896
 9747TIP3   OH250655   3.856   0.656  12.775  0.0060 -0.1342  0.0084
 9747TIP3    H150656   3.923   0.685  12.836  0.9242 -3.9581  1.0698
 9747TIP3    H250657   3.774   0.669  12.822 -0.0857  3.2987 -0.7816
 9748TIP3   OH250658   6.539   0.323  16.063 -0.0612 -0.6199  0.4798
 9748TIP3    H150659   6.630   0.297  16.047  0.3297  1.7337 -1.6283
 9748TIP3    H250660   6.542   0.372  16.145  1.2130  1.9648 -1.0027
 9749TIP3   OH250661   1.322   3.315  14.966  0.1629 -0.2515  0.7145
 9749TIP3    H150662   1.282   3.249  14.910  0.4878 -0.3284  0.5703
 9749TIP3    H250663   1.404   3.337  14.922  0.8863 -1.0003  1.6311
 9750TIP3   OH250664   4.414   4.784  11.241 -0.1553  0.1385  0.9646
 9750TIP3    H150665   4.399   4.690  11.253 -0.9601  0.3777  1.9914
 9750TIP3    H250666   4.428   4.795  11.147 -4.2222 -0.4800  0.1164
 9751TIP3   OH250667   3.962   6.203  11.009 -0.2429 -0.0134  0.0779
 9751TIP3    H150668   3.996   6.277  11.059 -1.4845  0.4591  0.2626
 9751TIP3    H250669   3.931   6.141  11.075 -0.2198 -0.2008 -0.0863
 9752TIP3   OH250670   6.441   2.083  16.066 -0.5937  0.2264  0.0667
 9752TIP3    H150671   6.400   2.063  15.982 -0.8436  2.2682 -0.3544
 9752TIP3    H250672   6.431   2.003  16.117  0.2209 -1.3672 -2.0684
 9753TIP3   OH250673   4.977   3.946   5.604 -0.2716 -0.1006 -0.0273
 9753TIP3    H150674   5.064   3.969   5.638  0.2849 -0.2702 -1.3047
 9753TIP3    H250675   4.934   4.030   5.589  0.1566  0.0197 -0.6082
 9754TIP3   OH250676   2.642   0.550   3.441 -0.8559  0.2881 -0.1948
 9754TIP3    H150677   2.619   0.502   3.520 -0.8947 -0.0174 -0.3906
 9754TIP3    H250678   2.577   0.522   3.376  0.0442 -0.5675 -0.7457
 9755TIP3   OH250679   4.544   6.786  12.076 -0.0214  0.1569 -0.3077
 9755TIP3    H150680   4.573   6.697  12.055 -0.9557 -0.3153  0.3210
 9755TIP3    H250681   4.624   6.830  12.107  0.2149 -0.8682  0.6319
 9756TIP3   OH250682   2.582   0.388   3.651  0.4225  0.6846  0.3460
 9756TIP3    H150683   2.512   0.333   3.616 -1.0688  1.9528  1.2034
 9756TIP3    H250684   2.648   0.326   3.683 -0.2281 -0.5420 -0.5828
 9757TIP3   OH250685   5.880   5.860   1.839 -0.5891 -0.5483  0.5159
 9757TIP3    H150686   5.850   5.902   1.920 -0.0264 -0.3370  0.6254
 9757TIP3    H250687   5.815   5.793   1.820 -0.3443 -1.0946  1.5450
 9758TIP3   OH250688   2.394   1.296   5.668  0.6862  0.4945 -0.1762
 9758TIP3    H150689   2.344   1.215   5.657  1.4045 -0.1387  1.0092
 9758TIP3    H250690   2.481   1.275   5.636  0.9633  0.6906  0.4369
 9759TIP3   OH250691   4.775   4.451  15.712  0.1089 -0.4165 -0.2483
 9759TIP3    H150692   4.756   4.530  15.662  1.0682 -0.9079 -1.4180
 9759TIP3    H250693   4.867   4.459  15.736 -0.4268  0.0500  1.9360
 9760TIP3   OH250694   3.967   6.260   1.185  0.5970 -0.0528  0.0346
 9760TIP3    H150695   3.892   6.296   1.138  1.8492  2.3990 -0.2152
 9760TIP3    H250696   3.931   6.232   1.269 -1.0147 -1.2670 -1.0012
 9761TIP3   OH250697   4.552   3.586  16.626 -0.4291  0.0950 -0.3177
 9761TIP3    H150698   4.546   3.672  16.668  0.9714  0.4119 -0.7295
 9761TIP3    H250699   4.473   3.540  16.655 -0.9421  1.3324  0.3195
 9762TIP3   OH250700   6.077   0.258   3.461 -0.2448  0.0886 -0.2769
 9762TIP3    H150701   6.061   0.334   3.518  2.4548 -0.9782  2.1660
 9762TIP3    H250702   6.032   0.186   3.505 -0.0384 -0.3309 -0.7524
 9763TIP3   OH250703   1.370   1.835  11.585  0.2474  0.0610 -0.1754
 9763TIP3    H150704   1.445   1.847  11.527  0.7457  0.5931  0.5684
 9763TIP3    H250705   1.356   1.921  11.625  0.9215 -0.6430  1.6967
 9764TIP3   OH250706   4.988   5.962  15.785 -0.0137  0.2142  0.1776
 9764TIP3    H150707   4.965   5.915  15.865  0.5408 -1.6906 -0.7214
 9764TIP3    H250708   5.078   5.991  15.800 -0.5282  1.5075  0.9357
 9765TIP3   OH250709   2.777   3.491  10.550  0.4098 -0.7393  0.1264
 9765TIP3    H150710   2.827   3.517  10.627  0.0145 -1.1602  0.5312
 9765TIP3    H250711   2.685   3.502  10.577  0.2764  0.3838 -0.7210
 9766TIP3   OH250712   1.192   0.301  15.148 -0.0747  0.8502  0.7406
 9766TIP3    H150713   1.111   0.257  15.173 -0.6274  0.4524 -1.5638
 9766TIP3    H250714   1.248   0.231  15.114  0.8289  1.2846  1.2994
 9767TIP3   OH250715   3.936   5.645   2.352 -0.2431 -0.0969  0.4109
 9767TIP3    H150716   3.966   5.733   2.375  0.2762  0.4157 -1.9699
 9767TIP3    H250717   3.905   5.653   2.261 -2.3601 -1.8698  0.8910
 9768TIP3   OH250718   1.062   1.589  15.235 -0.0265  0.2153  0.8105
 9768TIP3    H150719   1.156   1.572  15.239  0.2793  1.8948  1.5735
 9768TIP3    H250720   1.055   1.668  15.181 -0.9634  0.3392  1.1090
 9769TIP3   OH250721   0.241   0.987  15.635  0.2570  0.1619 -0.1955
 9769TIP3    H150722   0.317   0.946  15.594 -0.2126  0.7785 -1.7274
 9769TIP3    H250723   0.275   1.021  15.718  0.9260 -2.2353  0.5968
 9770TIP3   OH250724   5.834   6.070   2.883  0.1961  0.1675 -0.7585
 9770TIP3    H150725   5.877   6.001   2.934  0.5661  1.1672  0.3219
 9770TIP3    H250726   5.744   6.039   2.872  0.4510 -0.6537 -0.6306
 9771TIP3   OH250727   1.720   0.203   3.265  0.2216 -0.0298 -0.2273
 9771TIP3    H150728   1.716   0.275   3.202  1.3350 -0.1627 -0.4742
 9771TIP3    H250729   1.732   0.125   3.211 -1.4438 -0.4848  0.0091
 9772TIP3   OH250730   1.677   3.940   4.447 -0.3373  0.0517 -0.1669
 9772TIP3    H150731   1.661   3.993   4.525  0.5085 -1.3400  0.9915
 9772TIP3    H250732   1.714   4.002   4.384 -2.0340  1.4267  0.1180
 9773TIP3   OH250733   4.037   4.288   0.870  0.4764  0.0504  0.0812
 9773TIP3    H150734   3.971   4.357   0.865  0.3038 -0.0817  0.5200
 9773TIP3    H250735   4.119   4.334   0.889  0.6729  0.3012 -1.2442
 9774TIP3   OH250736   5.903   5.110   3.264 -0.5917  0.2413  0.1409
 9774TIP3    H150737   5.988   5.138   3.229  0.0789 -1.1628  0.5972
 9774TIP3    H250738   5.880   5.033   3.213 -0.6528 -0.5339  1.3089
 9775TIP3   OH250739   5.687   0.806   5.697  0.3998 -0.4978 -0.5597
 9775TIP3    H150740   5.756   0.801   5.764 -0.7125  1.2659  0.8101
 9775TIP3    H250741   5.607   0.782   5.743 -0.3901  0.6787 -1.2675
 9776TIP3   OH250742   4.704   4.369   4.691 -0.9844  0.2556 -0.1122
 9776TIP3    H150743   4.617   4.352   4.728 -1.1273 -0.5631 -0.7808
 9776TIP3    H250744   4.686   4.409   4.606 -0.6582  2.6443  0.8673
 9777TIP3   OH250745   4.182   1.768  11.114 -0.1394 -0.5805  0.0743
 9777TIP3    H150746   4.189   1.721  11.197  0.6580 -4.4206 -1.9440
 9777TIP3    H250747   4.101   1.818  11.121 -0.7597 -1.7809  2.6598
 9778TIP3   OH250748   6.719   0.937   4.259  0.3149 -0.1744  0.6635
 9778TIP3    H150749   6.625   0.947   4.272  0.3448 -0.7525  1.3854
 9778TIP3    H250750   6.757   0.952   4.346  0.9367  0.5425  0.2851
 9779TIP3   OH250751   5.628   6.170   1.006  0.1945 -0.2059  0.4495
 9779TIP3    H150752   5.715   6.204   1.026  1.1444 -1.1663 -1.7312
 9779TIP3    H250753   5.627   6.160   0.911 -1.6007 -2.0377  0.5783
 9780TIP3   OH250754   2.405   2.431  15.940  0.0034 -0.3186 -0.3822
 9780TIP3    H150755   2.355   2.396  15.866  0.1066 -0.7224 -0.2602
 9780TIP3    H250756   2.342   2.486  15.987  0.0960  0.4366 -1.1073
 9781TIP3   OH250757   6.320   5.239  11.811 -0.0198  0.0440 -0.1846
 9781TIP3    H150758   6.310   5.169  11.746 -0.8267  2.2759 -2.6688
 9781TIP3    H250759   6.390   5.294  11.776  0.2612  0.7584  1.4334
 9782TIP3   OH250760   0.950   2.142   3.274 -0.1649 -0.2004  0.1391
 9782TIP3    H150761   0.897   2.121   3.351  0.3319  0.0734  0.5590
 9782TIP3    H250762   0.988   2.228   3.293  1.6462 -1.0392  0.5131
 9783TIP3   OH250763   3.065   4.938  11.639  0.1130  0.2728 -0.5635
 9783TIP3    H150764   3.038   4.933  11.547  0.6369  2.3137 -0.8623
 9783TIP3    H250765   2.984   4.932  11.688 -0.7369  3.6672 -1.3578
 9784TIP3   OH250766   2.721   3.029   2.501  0.0210 -0.3776 -0.5472
 9784TIP3    H150767   2.747   3.116   2.468 -0.6734  0.3058  0.6419
 9784TIP3    H250768   2.638   3.012   2.456 -0.9383  0.5664  0.7831
 9785TIP3   OH250769   2.593   5.202   5.660 -0.9272 -0.1702  0.8666
 9785TIP3    H150770   2.529   5.182   5.729 -1.8608  1.4192  0.4992
 9785TIP3    H250771   2.572   5.291   5.632  1.5044  0.4398  0.7608
 9786TIP3   OH250772   6.075   2.555  12.739 -0.1062 -0.2363  0.4633
 9786TIP3    H150773   6.019   2.479  12.755  0.0818  0.0491  2.7059
 9786TIP3    H250774   6.038   2.625  12.793  0.3791  0.9871 -0.7086
 9787TIP3   OH250775   2.740   3.543   1.521 -0.2595 -0.6512 -0.1664
 9787TIP3    H150776   2.769   3.513   1.607 -1.3762 -0.2447  0.3704
 9787TIP3    H250777   2.820   3.568   1.476  0.2122  1.1846  1.5531
 9788TIP3   OH250778   2.119   6.431  13.202  0.0073 -0.0177  0.6330
 9788TIP3    H150779   2.156   6.469  13.123 -1.1600  1.9777  0.9892
 9788TIP3    H250780   2.138   6.494  13.271 -1.6502 -0.2151  1.3304
 9789TIP3   OH250781   6.675   1.938  15.088 -0.2748  0.0046  0.0313
 9789TIP3    H150782   6.706   1.848  15.091  1.6585  0.6258  0.3539
 9789TIP3    H250783   6.581   1.932  15.101 -0.5511 -2.1213 -2.2369
 9790TIP3   OH250784   5.769   2.382  11.470  0.3347 -0.1173 -0.2971
 9790TIP3    H150785   5.724   2.334  11.401 -0.8420  1.5169 -0.7394
 9790TIP3    H250786   5.856   2.343  11.475 -0.3434 -1.8099 -1.0664
 9791TIP3   OH250787   1.364   2.721  15.244 -0.1804 -0.1048 -0.1846
 9791TIP3    H150788   1.442   2.726  15.189  0.6077  2.7156  1.0233
 9791TIP3    H250789   1.300   2.777  15.201 -1.7045 -2.4119 -1.1834
 9792TIP3   OH250790   6.070   1.353   6.516 -0.2526 -0.8063 -0.0001
 9792TIP3    H150791   5.996   1.376   6.460 -0.1339 -0.4639 -0.0211
 9792TIP3    H250792   6.054   1.262   6.540 -0.4115 -0.8959 -0.4244
 9793TIP3   OH250793   1.577   1.432   0.637  0.7441 -0.2397  0.0747
 9793TIP3    H150794   1.649   1.478   0.680  1.8484 -1.1104 -0.7996
 9793TIP3    H250795   1.610   1.410   0.550 -0.4196 -1.0345 -0.1925
 9794TIP3   OH250796   3.873   5.320  15.284 -0.2623 -0.0207  0.3319
 9794TIP3    H150797   3.821   5.364  15.217 -1.3277 -0.1858  1.0301
 9794TIP3    H250798   3.918   5.250  15.238  3.3189  3.0233 -1.3567
 9795TIP3   OH250799   4.943   2.072  15.931  0.1452  0.0310  0.3352
 9795TIP3    H150800   4.884   2.088  16.004  0.2365 -0.9972  0.6557
 9795TIP3    H250801   5.031   2.073  15.970  0.4275  2.0841 -0.2236
 9796TIP3   OH250802   0.227   1.192  14.168 -0.7697  0.1349  0.5690
 9796TIP3    H150803   0.180   1.275  14.162 -0.5434  0.1880 -0.8433
 9796TIP3    H250804   0.228   1.158  14.078 -0.9169 -1.4342  1.1301
 9797TIP3   OH250805   1.667   0.765   2.073  0.3571 -0.6663 -0.0562
 9797TIP3    H150806   1.656   0.746   2.166  0.7255 -1.1643 -0.1097
 9797TIP3    H250807   1.723   0.842   2.070  0.9198 -1.0596  0.1309
 9798TIP3   OH250808   6.485   3.247   5.433  0.9962  0.4275  0.2879
 9798TIP3    H150809   6.459   3.323   5.484 -1.8479 -0.8194  0.9109
 9798TIP3    H250810   6.527   3.189   5.497 -0.1857 -0.0258  0.6847
 9799TIP3   OH250811   3.262   0.691   4.438  0.2453  0.0266  0.3972
 9799TIP3    H150812   3.198   0.665   4.504  0.2393 -1.7703 -0.2620
 9799TIP3    H250813   3.218   0.760   4.388 -0.8059 -0.5093  0.5609
 9800TIP3   OH250814   3.235   1.414  14.925 -0.2465 -0.0471 -0.1308
 9800TIP3    H150815   3.324   1.399  14.956  0.3933  0.5223 -1.5688
 9800TIP3    H250816   3.181   1.349  14.970  0.6449  0.5345  1.8628
 9801TIP3   OH250817   4.758   0.189   4.313  0.3357  0.3415 -0.0783
 9801TIP3    H150818   4.688   0.231   4.362  1.9568  1.1220  1.6765
 9801TIP3    H250819   4.726   0.188   4.222 -1.3680  1.8441  0.4397
 9802TIP3   OH250820   0.598   6.623  13.611  0.2200 -0.0524  0.4689
 9802TIP3    H150821   0.648   6.697  13.576 -1.8428  0.8814 -0.6881
 9802TIP3    H250822   0.644   6.600  13.692  1.1107  2.3251  0.7333
 9803TIP3   OH250823   3.118   5.468  13.759 -0.8462  0.1300  0.7886
 9803TIP3    H150824   3.124   5.419  13.841  0.1849  1.0732  1.3133
 9803TIP3    H250825   3.130   5.403  13.690  1.3759 -0.2577  1.4841
 9804TIP3   OH250826   5.895   4.447   0.929 -0.2933  0.1455 -0.2889
 9804TIP3    H150827   5.928   4.487   1.010 -0.5903 -0.1599 -0.0126
 9804TIP3    H250828   5.845   4.371   0.959  0.6071 -0.6816 -0.8355
 9805TIP3   OH250829   4.715   5.400   0.444 -0.2727 -0.1290 -0.1615
 9805TIP3    H150830   4.643   5.344   0.473 -0.0886 -0.4635 -0.3345
 9805TIP3    H250831   4.691   5.427   0.356  0.5263 -1.5378 -0.8571
 9806TIP3   OH250832   4.977   2.488   4.602 -0.4655  0.2475  0.5598
 9806TIP3    H150833   4.907   2.448   4.653 -0.1135 -1.3497 -0.1240
 9806TIP3    H250834   5.050   2.426   4.609 -0.0729  0.4871 -0.9867
 9807TIP3   OH250835   2.439   2.415  11.321  0.3348 -0.0507 -0.4365
 9807TIP3    H150836   2.400   2.420  11.408 -1.4350 -1.5222 -1.0794
 9807TIP3    H250837   2.423   2.501  11.283 -1.8160 -0.3607 -0.4069
 9808TIP3   OH250838   5.552   3.587   3.034  0.2225  0.1124 -0.0271
 9808TIP3    H150839   5.610   3.619   3.104 -0.7208  0.3249  0.6775
 9808TIP3    H250840   5.511   3.666   2.998  0.7473  0.0085 -0.8738
 9809TIP3   OH250841   0.546   4.070   3.088 -0.0744  0.4742 -0.6003
 9809TIP3    H150842   0.544   3.976   3.071 -0.5402 -0.2744  2.8451
 9809TIP3    H250843   0.459   4.101   3.064 -0.6904 -0.4652  0.3166
 9810TIP3   OH250844   3.174   6.677  13.336 -0.4612  0.3600  0.3397
 9810TIP3    H150845   3.199   6.587  13.317  3.0216  1.1787  0.4038
 9810TIP3    H250846   3.159   6.716  13.249 -0.8515  0.0308  0.2550
 9811TIP3   OH250847   6.262   1.408   6.132  0.2346 -0.2729 -0.1050
 9811TIP3    H150848   6.207   1.445   6.063 -0.5736 -1.4725 -0.1417
 9811TIP3    H250849   6.351   1.419   6.100 -0.1426 -1.3116 -1.6330
 9812TIP3   OH250850   3.811   2.379  16.496 -0.7144 -0.5742 -0.1277
 9812TIP3    H150851   3.772   2.464  16.477 -0.6666 -0.4150  0.4725
 9812TIP3    H250852   3.738   2.325  16.527 -0.2773  0.1044  2.2372
 9813TIP3   OH250853   2.492   2.620   1.345 -0.5802 -0.1539 -0.1074
 9813TIP3    H150854   2.474   2.613   1.439  0.9672  2.0961  0.4384
 9813TIP3    H250855   2.464   2.708   1.321  0.3216 -0.1993 -1.4461
 9814TIP3   OH250856   3.083   0.510   0.639 -0.3724  0.1079  0.3980
 9814TIP3    H150857   3.088   0.512   0.543  0.1329  0.4108  0.4274
 9814TIP3    H250858   3.174   0.506   0.667 -0.4615  1.1512  0.8866
 9815TIP3   OH250859   3.941   0.021  16.332  0.0631  0.4181  0.1214
 9815TIP3    H150860   3.934  -0.023  16.417  0.6265  1.0273  0.4938
 9815TIP3    H250861   3.935  -0.049  16.267 -1.1533  0.0211  0.6336
 9816TIP3   OH250862   3.378   0.810   3.944 -0.5429 -0.3253 -0.6899
 9816TIP3    H150863   3.320   0.821   4.020 -0.7150 -0.8690 -0.7364
 9816TIP3    H250864   3.460   0.778   3.982  0.1486  1.5626 -0.4906
 9817TIP3   OH250865   0.200   1.864  11.260  0.3886  0.1534  0.1880
 9817TIP3    H150866   0.215   1.770  11.267  4.0486  0.5454 -0.3155
 9817TIP3    H250867   0.183   1.879  11.167  0.8324  0.0623  0.0878
 9818TIP3   OH250868   5.277   5.711  12.568  0.1117 -0.2882 -0.2106
 9818TIP3    H150869   5.306   5.641  12.627  0.3779 -0.6042 -0.7081
 9818TIP3    H250870   5.287   5.791  12.619 -0.3714 -0.6227  0.4325
 9819TIP3   OH250871   2.454   1.141  11.588  0.0409 -0.4188  0.2626
 9819TIP3    H150872   2.399   1.151  11.666 -0.3790  0.0028 -0.0844
 9819TIP3    H250873   2.399   1.171  11.516 -0.1062 -2.1711 -0.4049
 9820TIP3   OH250874   3.196   6.484  16.568  0.2436 -0.6677 -0.1380
 9820TIP3    H150875   3.219   6.531  16.649  1.2692 -2.9434  0.9636
 9820TIP3    H250876   3.115   6.438  16.589  0.8726 -1.8055 -0.1649
 9821TIP3   OH250877   2.016   4.015   1.708 -0.3398  0.2028  0.4931
 9821TIP3    H150878   2.087   4.075   1.686  0.2965  0.0006  1.8999
 9821TIP3    H250879   2.050   3.928   1.689 -0.6563  0.1800  0.0242
 9822TIP3   OH250880   0.486   3.259  13.269 -0.1442 -0.3737 -0.1736
 9822TIP3    H150881   0.497   3.339  13.319 -0.6672  0.0569 -0.7339
 9822TIP3    H250882   0.510   3.283  13.180 -0.4280 -0.7971 -0.3697
 9823TIP3   OH250883   5.988   4.945  14.524 -0.0120  0.1813  0.1408
 9823TIP3    H150884   6.080   4.961  14.546  1.2313 -3.3868 -1.7377
 9823TIP3    H250885   5.961   4.875  14.584 -1.4826  0.9771  0.4706
 9824TIP3   OH250886   0.229   1.275   1.199  0.0480  0.3171  0.1316
 9824TIP3    H150887   0.248   1.287   1.106  0.7901  0.7580  0.3332
 9824TIP3    H250888   0.299   1.322   1.244  1.6032 -2.5425  0.9490
 9825TIP3   OH250889   2.757   0.188   3.337 -0.3500 -0.3171  0.3387
 9825TIP3    H150890   2.736   0.124   3.269  1.0288 -1.0655  0.5745
 9825TIP3    H250891   2.698   0.166   3.409 -1.1716 -0.1170 -0.2528
 9826TIP3   OH250892   4.903   3.605  13.328  0.3247  0.0987 -0.2512
 9826TIP3    H150893   4.912   3.665  13.401  0.2951 -0.5677  0.3074
 9826TIP3    H250894   4.834   3.544  13.355 -1.1114  1.0279 -1.6519
 9827TIP3   OH250895   5.131   3.362   4.446  0.2731 -0.4143 -0.1903
 9827TIP3    H150896   5.221   3.342   4.470  0.3573  1.2710  1.0894
 9827TIP3    H250897   5.138   3.429   4.378  0.0930  2.1857  2.1701
 9828TIP3   OH250898   2.564   3.835   1.267  0.5030 -0.7461  0.3794
 9828TIP3    H150899   2.525   3.859   1.183  0.4024 -0.9798  0.3576
 9828TIP3    H250900   2.615   3.911   1.293 -0.6645 -0.0933  0.8368
 9829TIP3   OH250901   3.673   0.720  16.197  0.0007  0.5589  0.5131
 9829TIP3    H150902   3.611   0.793  16.194  0.6419  1.2216  2.1049
 9829TIP3    H250903   3.629   0.653  16.249 -1.2627 -0.9346 -2.3066
 9830TIP3   OH250904   2.615   4.966   6.477 -0.5429  0.2986  0.1705
 9830TIP3    H150905   2.575   5.052   6.471 -0.0636  0.4251 -1.7229
 9830TIP3    H250906   2.560   4.910   6.423 -0.9505 -0.6465  1.5225
 9831TIP3   OH250907   3.599   0.324   3.425  0.2885 -0.4642  0.3890
 9831TIP3    H150908   3.646   0.387   3.479 -1.7874  1.5374  0.0317
 9831TIP3    H250909   3.510   0.360   3.419 -0.8916 -3.2248 -0.2291
 9832TIP3   OH250910   3.748   3.824   5.195  0.2158 -0.1915  0.9081
 9832TIP3    H150911   3.840   3.841   5.171 -0.5469 -0.4114 -2.6866
 9832TIP3    H250912   3.700   3.896   5.156 -1.4508 -1.9477 -0.4756
 9833TIP3   OH250913   4.351   2.013   2.985  0.3145  0.7390  0.1025
 9833TIP3    H150914   4.444   2.019   2.965  1.2796 -0.6520  3.4618
 9833TIP3    H250915   4.341   1.928   3.028 -2.9086  0.0568 -1.6298
 9834TIP3   OH250916   2.870   1.673   1.595 -0.1483 -0.1123  0.4139
 9834TIP3    H150917   2.962   1.680   1.569 -0.1326 -1.3955  0.0647
 9834TIP3    H250918   2.853   1.754   1.644  0.7089  0.8850 -0.8501
 9835TIP3   OH250919   1.186   2.233   1.239  0.3205 -0.0417  0.4327
 9835TIP3    H150920   1.259   2.271   1.288 -0.3793  0.5656  1.0244
 9835TIP3    H250921   1.146   2.308   1.194 -0.2604 -0.2811  0.5451
 9836TIP3   OH250922   4.789   2.270  13.345  0.1678 -0.1084  0.2264
 9836TIP3    H150923   4.853   2.327  13.387 -1.2183  2.1130 -0.5059
 9836TIP3    H250924   4.707   2.320  13.347 -0.6904 -1.2506 -2.1836
 9837TIP3   OH250925   3.866   1.627   6.007 -0.4822 -0.2880 -0.1634
 9837TIP3    H150926   3.865   1.606   6.100 -1.5322  1.0040  0.1478
 9837TIP3    H250927   3.948   1.589   5.975 -0.0170 -0.6038  1.3146
 9838TIP3   OH250928   3.714   4.766  17.247 -0.0672 -0.0871 -0.7745
 9838TIP3    H150929   3.752   4.784  17.161  0.0797 -0.8850 -0.8804
 9838TIP3    H250930   3.739   4.676  17.266  1.7309  0.7292  1.0771
 9839TIP3   OH250931   1.134   0.398   5.366  0.1005  0.1778  0.2097
 9839TIP3    H150932   1.054   0.347   5.349 -0.6099  0.6711  1.8535
 9839TIP3    H250933   1.110   0.455   5.439  1.4359  1.5897 -0.4223
 9840TIP3   OH250934   1.827   1.059  11.546  0.4798 -0.3593 -0.0931
 9840TIP3    H150935   1.795   1.149  11.532  1.9518  0.1224 -0.5590
 9840TIP3    H250936   1.754   1.004  11.517 -1.1036  0.6395  1.7392
 9841TIP3   OH250937   6.375   1.694  16.879 -0.3474  0.2328 -0.0825
 9841TIP3    H150938   6.389   1.600  16.865 -1.2211  0.2771 -1.5487
 9841TIP3    H250939   6.393   1.708  16.972 -0.0054 -1.3400  0.1182
 9842TIP3   OH250940   3.768   5.184  12.680  0.6752 -0.0179  0.3850
 9842TIP3    H150941   3.853   5.228  12.683  0.6924  0.0203 -0.5376
 9842TIP3    H250942   3.731   5.198  12.767  2.0835 -0.9875  1.1821
 9843TIP3   OH250943   3.894   6.624   3.860 -0.0171 -0.5462 -0.1422
 9843TIP3    H150944   3.854   6.626   3.773 -1.8201  0.0055  0.6669
 9843TIP3    H250945   3.826   6.590   3.917  1.1685 -0.9676  1.0641
 9844TIP3   OH250946   0.069   4.081   4.267 -0.0322  0.0246 -0.4659
 9844TIP3    H150947   0.014   4.019   4.314  0.8149  0.5367  1.2864
 9844TIP3    H250948   0.134   4.026   4.223 -0.0812 -0.4032 -0.0166
 9845TIP3   OH250949   0.491   1.766  15.474  0.1239  0.3665  0.0661
 9845TIP3    H150950   0.498   1.704  15.403  2.7597 -1.3038  1.6089
 9845TIP3    H250951   0.575   1.761  15.519  0.1946  4.4730  0.8199
 9846TIP3   OH250952   1.517   4.019   3.057  0.1521 -0.7522 -0.1296
 9846TIP3    H150953   1.446   4.071   3.018  0.3522 -0.7355 -0.4810
 9846TIP3    H250954   1.558   3.976   2.982  2.3001  1.3897 -0.3456
 9847TIP3   OH250955   4.652   2.386  14.342 -0.3182  0.0763  0.2764
 9847TIP3    H150956   4.716   2.315  14.336 -1.7819 -1.1834 -1.6693
 9847TIP3    H250957   4.575   2.346  14.382 -0.7337  0.9313  0.3620
 9848TIP3   OH250958   6.451   4.011  15.586  0.4562  0.2088  0.3826
 9848TIP3    H150959   6.460   3.915  15.589 -0.6187  0.0528 -0.5691
 9848TIP3    H250960   6.479   4.035  15.498  0.6924  0.7690  0.6075
 9849TIP3   OH250961   3.678   5.919   5.091  0.8030 -0.0735  0.3085
 9849TIP3    H150962   3.771   5.914   5.111  0.9511  2.1371  0.4579
 9849TIP3    H250963   3.674   5.971   5.011 -0.3295  0.3976  0.6528
 9850TIP3   OH250964   1.364   0.551   4.799 -0.7269  0.6741  0.3509
 9850TIP3    H150965   1.394   0.597   4.720  0.3085 -1.1327 -0.3637
 9850TIP3    H250966   1.421   0.583   4.869  0.7031 -0.2564 -0.3450
 9851TIP3   OH250967   3.603   1.841   3.058 -0.0665  0.3170 -0.2782
 9851TIP3    H150968   3.644   1.870   3.139 -0.9451 -0.6803  0.5613
 9851TIP3    H250969   3.641   1.896   2.990 -0.0607  1.8933  0.9451
 9852TIP3   OH250970   4.534   1.198   0.737  0.0728  0.1326  0.5751
 9852TIP3    H150971   4.494   1.114   0.716 -1.4312  0.4382  1.9951
 9852TIP3    H250972   4.582   1.183   0.818 -0.3151  0.6415  0.9133
 9853TIP3   OH250973   5.741   6.323   5.077  0.0878 -0.4830  1.3043
 9853TIP3    H150974   5.813   6.381   5.104 -0.2381 -1.0694  3.7021
 9853TIP3    H250975   5.662   6.367   5.108 -0.3453 -1.1569  1.1807
 9854TIP3   OH250976   4.284   5.916   6.033  0.7709 -0.3674 -0.6043
 9854TIP3    H150977   4.230   5.843   6.002  1.5789 -0.3147 -2.2520
 9854TIP3    H250978   4.232   5.994   6.015 -0.0760 -0.4884  1.1191
 9855TIP3   OH250979   5.049   4.511   3.162 -0.1490  0.1414  0.1458
 9855TIP3    H150980   5.120   4.448   3.149 -0.5660 -0.0701 -1.1929
 9855TIP3    H250981   4.977   4.479   3.108 -0.8679  0.9943  0.5601
 9856TIP3   OH250982   0.037   0.848  16.629  0.1481 -0.5268 -0.6020
 9856TIP3    H150983   0.000   0.930  16.662  1.6254 -0.5122  1.1237
 9856TIP3    H250984  -0.036   0.786  16.635 -0.3665  0.1250  0.2409
 9857TIP3   OH250985   3.096   1.523  13.648  0.3009 -0.4065 -0.0397
 9857TIP3    H150986   3.053   1.556  13.569 -0.9140 -1.8061  0.0157
 9857TIP3    H250987   3.027   1.521  13.714  1.3057  0.7762  1.1220
 9858TIP3   OH250988   2.818   5.157  14.220 -0.4896  0.3539 -0.4823
 9858TIP3    H150989   2.882   5.087  14.236 -0.6359 -0.3022 -2.4583
 9858TIP3    H250990   2.870   5.238  14.221  0.5265 -0.2094 -2.5087
 9859TIP3   OH250991   5.634   0.865   3.196  0.1551  0.5578 -0.1171
 9859TIP3    H150992   5.678   0.912   3.267 -0.8210  1.9762 -0.4033
 9859TIP3    H250993   5.548   0.844   3.231 -0.8936  2.5878 -1.3113
 9860TIP3   OH250994   1.607   1.429   2.938 -0.3204 -0.2854 -0.3232
 9860TIP3    H150995   1.520   1.441   2.976 -0.3061  0.0026 -0.3812
 9860TIP3    H250996   1.597   1.452   2.846  0.4174  2.5025  0.2060
 9861TIP3   OH250997   4.368   5.177  14.472 -0.1089 -0.9677 -0.1818
 9861TIP3    H150998   4.431   5.124  14.423  0.4343 -2.3996  1.9612
 9861TIP3    H250999   4.283   5.145  14.443  0.1946 -1.4805 -0.5276
 9862TIP3   OH251000   0.656   6.008   6.160  0.0419  0.0801 -0.0237
 9862TIP3    H151001   0.705   6.082   6.195  1.9474 -1.1576  0.1120
 9862TIP3    H251002   0.565   6.026   6.182  0.6185  1.7094  1.1946
 9863TIP3   OH251003   5.938   1.824   2.580 -0.0382  0.1945  0.1058
 9863TIP3    H151004   5.894   1.792   2.501 -0.6217  0.5430  0.2832
 9863TIP3    H251005   5.991   1.750   2.610 -1.4853 -0.6748  0.6059
 9864TIP3   OH251006   0.339   2.008   2.686 -0.3633 -0.5452  0.4053
 9864TIP3    H151007   0.249   2.001   2.718 -1.1144 -1.1399 -1.6614
 9864TIP3    H251008   0.388   2.045   2.759 -2.7089  1.8240  0.9427
 9865TIP3   OH251009   4.181   6.776  15.300 -0.6855  0.5229 -0.7673
 9865TIP3    H151010   4.205   6.700  15.352 -1.7721  1.8100  1.8329
 9865TIP3    H251011   4.117   6.744  15.238 -0.2593 -0.8846 -0.5147
 9866TIP3   OH251012   1.489   3.828  14.007  0.2335  0.5339  0.2631
 9866TIP3    H151013   1.525   3.751  13.964 -0.3868  0.3712  0.0210
 9866TIP3    H251014   1.448   3.878  13.936 -0.6966  0.3228  0.6361
 9867TIP3   OH251015   3.861   0.862   3.515 -0.1918  0.1896 -0.0408
 9867TIP3    H151016   3.945   0.889   3.553  0.5456  0.0897 -1.5105
 9867TIP3    H251017   3.870   0.767   3.503  0.2347  0.4109 -1.8375
 9868TIP3   OH251018   4.899   0.552   5.617  0.3197  0.1065  0.2507
 9868TIP3    H151019   4.989   0.581   5.636  0.3580 -1.0475  2.0896
 9868TIP3    H251020   4.868   0.516   5.700 -1.7292  0.1171 -0.4614
 9869TIP3   OH251021   5.062   0.242  16.499 -0.3206  0.2318 -0.3264
 9869TIP3    H151022   5.024   0.187  16.567  0.0846 -0.7412 -0.8650
 9869TIP3    H251023   5.154   0.248  16.521 -0.4047  0.9254 -0.1307
 9870TIP3   OH251024   4.804   0.365  15.638 -0.0821  0.0963  0.1057
 9870TIP3    H151025   4.866   0.292  15.633  0.1831  0.4035 -2.1358
 9870TIP3    H251026   4.718   0.324  15.643  0.0457 -0.4396 -1.4389
 9871TIP3   OH251027   6.610   1.181   0.474 -0.1612 -0.6735  0.0443
 9871TIP3    H151028   6.655   1.193   0.558 -1.3656 -0.7409  0.7223
 9871TIP3    H251029   6.529   1.135   0.496 -1.3732  0.8792 -0.8892
 9872TIP3   OH251030   0.623   6.131  16.070 -0.2770 -0.2597 -0.2394
 9872TIP3    H151031   0.558   6.195  16.100  2.8362  2.0681  2.4110
 9872TIP3    H251032   0.633   6.071  16.144 -1.2430 -2.2598 -1.6763
 9873TIP3   OH251033   1.138   6.291  12.286  0.5804  0.1056 -0.5604
 9873TIP3    H151034   1.121   6.357  12.220  0.9217  0.5910 -0.1696
 9873TIP3    H251035   1.069   6.303  12.351 -0.3206 -0.9824 -1.2642
 9874TIP3   OH251036   1.190   0.421   2.027  0.1242 -0.1246  0.0318
 9874TIP3    H151037   1.195   0.485   2.098  0.4867 -0.3406  0.2023
 9874TIP3    H251038   1.096   0.411   2.010  0.0661  0.4165  0.0345
 9875TIP3   OH251039   3.573   1.328  13.522  0.5466  0.0763  0.5181
 9875TIP3    H151040   3.590   1.275  13.600 -1.1230 -0.1219  0.7936
 9875TIP3    H251041   3.509   1.393  13.551 -1.9853 -1.4935 -1.1652
 9876TIP3   OH251042   0.385   2.228  13.866 -0.6596  0.0708 -0.3525
 9876TIP3    H151043   0.423   2.315  13.852  1.1217 -0.5830  0.1677
 9876TIP3    H251044   0.456   2.167  13.844 -1.3685 -1.2031  0.7740
 9877TIP3   OH251045   1.444   0.629  17.177  0.0097 -0.2281 -0.4174
 9877TIP3    H151046   1.508   0.561  17.197 -0.6064 -0.7768 -0.2695
 9877TIP3    H251047   1.373   0.615  17.240  0.3243  1.1947  0.3088
 9878TIP3   OH251048   0.066   5.431   4.651 -0.6222  0.4070 -0.2423
 9878TIP3    H151049   0.107   5.365   4.707 -1.2168 -0.1106 -0.4053
 9878TIP3    H251050  -0.028   5.420   4.667 -0.7664  0.6270 -0.9294
 9879TIP3   OH251051   5.892   0.371  14.220  0.5080 -0.0049 -0.5872
 9879TIP3    H151052   5.844   0.389  14.139  0.6299 -0.3809 -0.7462
 9879TIP3    H251053   5.853   0.430  14.285 -0.0155 -0.1511 -0.7636
 9880TIP3   OH251054   0.161   0.700   2.930  0.1130 -0.0315  0.0863
 9880TIP3    H151055   0.203   0.784   2.950 -0.5553  0.3637 -0.1372
 9880TIP3    H251056   0.146   0.660   3.015  0.2371  0.1745  0.2063
 9881TIP3   OH251057   5.039   0.251  13.576  0.1788 -0.0953 -0.0661
 9881TIP3    H151058   4.985   0.180  13.541  2.4384 -0.7392 -2.5410
 9881TIP3    H251059   5.099   0.207  13.637 -1.0200  0.4007  1.5500
 9882TIP3   OH251060   4.542   3.741   2.721  0.6546  0.1958  0.1116
 9882TIP3    H151061   4.477   3.717   2.787  2.4315  2.0223  2.7572
 9882TIP3    H251062   4.608   3.672   2.727  1.1288  0.6848  0.8110
 9883TIP3   OH251063   3.326   6.190   0.137 -0.3844  0.8503  0.0464
 9883TIP3    H151064   3.272   6.188   0.216 -1.1445  2.9830 -0.3393
 9883TIP3    H251065   3.384   6.265   0.150  1.5336 -0.5375 -0.1847
 9884TIP3   OH251066   4.712   5.983   3.871 -0.1918 -0.5968 -0.3742
 9884TIP3    H151067   4.652   5.948   3.805 -1.4009  2.6876 -1.2616
 9884TIP3    H251068   4.662   6.053   3.914  1.8310 -0.1391  1.4366
 9885TIP3   OH251069   3.979   2.777  16.871 -0.3650  0.2860  0.3088
 9885TIP3    H151070   4.017   2.778  16.959  0.5473 -1.1422 -0.0307
 9885TIP3    H251071   4.054   2.782  16.812 -0.8689 -0.1867 -0.3876
 9886TIP3   OH251072   0.184   2.835   4.413 -0.7193  0.4289 -0.5624
 9886TIP3    H151073   0.193   2.806   4.322 -1.5377 -2.8059  0.2529
 9886TIP3    H251074   0.268   2.875   4.435 -0.4041  0.9903 -2.6264
 9887TIP3   OH251075   2.844   6.293  16.029 -0.1492  0.4541  0.0278
 9887TIP3    H151076   2.894   6.309  16.109  1.5217 -0.7371 -0.7221
 9887TIP3    H251077   2.910   6.289  15.960 -1.2582 -1.2078 -1.0120
 9888TIP3   OH251078   0.362   4.584  13.889 -0.4906 -0.1322  0.4371
 9888TIP3    H151079   0.432   4.616  13.947  0.1105 -0.8972  0.1506
 9888TIP3    H251080   0.285   4.634  13.916  0.2180  0.9200  0.5816
 9889TIP3   OH251081   4.265   4.859   5.702  0.1306  0.8070 -0.0854
 9889TIP3    H151082   4.206   4.872   5.628  1.2842  0.8011 -1.0476
 9889TIP3    H251083   4.261   4.941   5.751  1.1478  1.7622 -1.5203
 9890TIP3   OH251084   4.993   3.807  14.939 -0.3296  0.0658  0.1907
 9890TIP3    H151085   4.973   3.821  14.846  0.1751 -1.4556 -0.1801
 9890TIP3    H251086   4.998   3.712  14.948 -0.6609  0.1734  1.8568
 9891TIP3   OH251087   1.180   5.395   3.914  0.2657  0.1118  0.0640
 9891TIP3    H151088   1.267   5.370   3.946  0.3829  0.5017  0.0501
 9891TIP3    H251089   1.167   5.341   3.836  1.1409  1.1344 -0.8317
 9892TIP3   OH251090   2.522   1.011  15.579  0.1500  0.1987 -0.1388
 9892TIP3    H151091   2.516   0.924  15.540  0.7843 -0.1081  0.4184
 9892TIP3    H251092   2.509   0.997  15.672 -0.2962  0.7805 -0.1068
 9893TIP3   OH251093   3.027   1.583   3.625  0.6722  0.5246  0.1556
 9893TIP3    H151094   3.016   1.670   3.662 -0.3414  0.3817  0.2168
 9893TIP3    H251095   2.997   1.591   3.534 -0.4871 -0.0022  0.4751
 9894TIP3   OH251096   6.760   1.549   3.788 -0.5228 -0.3114 -0.7992
 9894TIP3    H151097   6.710   1.611   3.841 -0.8787  0.8333 -2.3778
 9894TIP3    H251098   6.831   1.519   3.845 -0.8030  0.9510  0.2572
 9895TIP3   OH251099   2.261   5.046   2.237 -0.3840 -0.8925  0.0739
 9895TIP3    H151100   2.332   5.003   2.190 -0.7648 -0.6037 -0.7801
 9895TIP3    H251101   2.296   5.132   2.259 -0.6696 -0.5195 -0.8878
 9896TIP3   OH251102   1.447   0.615  14.041 -0.3567 -0.0789 -0.2188
 9896TIP3    H151103   1.440   0.557  13.965 -0.0456 -0.6079  0.1423
 9896TIP3    H251104   1.539   0.641  14.042  0.5431 -2.8422  1.9056
 9897TIP3   OH251105   5.619   4.554   0.990 -0.8486  0.0016  0.1794
 9897TIP3    H151106   5.658   4.622   1.046  1.4151 -0.3443 -0.8603
 9897TIP3    H251107   5.649   4.576   0.902 -2.0998 -0.9992 -0.5254
 9898TIP3   OH251108   2.076   0.210   1.280  0.7630  0.2104 -0.0494
 9898TIP3    H151109   2.037   0.207   1.367  0.4632  2.0304 -0.0833
 9898TIP3    H251110   2.168   0.189   1.294  0.6437  0.1374  0.6610
 9899TIP3   OH251111   3.321   3.164   3.372 -0.2853 -0.0068 -0.2013
 9899TIP3    H151112   3.354   3.181   3.460 -0.4127  0.6148 -0.2694
 9899TIP3    H251113   3.304   3.250   3.336 -0.5185 -0.2700 -0.7309
 9900TIP3   OH251114   0.046   4.678   2.298  0.4557 -0.3358  0.4866
 9900TIP3    H151115   0.066   4.612   2.231  3.3696 -0.5340  1.4079
 9900TIP3    H251116   0.100   4.753   2.274  0.6419  0.0141  1.9293
 9901TIP3   OH251117   4.543   3.094   2.576  0.1457 -0.9622 -0.7804
 9901TIP3    H151118   4.593   3.026   2.530  1.0420 -1.8152  1.3186
 9901TIP3    H251119   4.608   3.137   2.633 -0.5530  1.2131 -1.5231
 9902TIP3   OH251120   3.379   6.771  14.398  0.1214  0.1221  0.6486
 9902TIP3    H151121   3.394   6.677  14.385  1.8763  0.3785  0.4952
 9902TIP3    H251122   3.452   6.799  14.454  0.2864  1.6069 -0.2645
 9903TIP3   OH251123   5.042   4.758  15.823  0.0209 -0.2904  0.1729
 9903TIP3    H151124   4.947   4.759  15.821 -0.0165  2.3923 -0.9643
 9903TIP3    H251125   5.067   4.693  15.758 -1.0571  0.0394 -0.5945
 9904TIP3   OH251126   0.220   4.764   1.655  0.1368 -0.5806  0.1185
 9904TIP3    H151127   0.168   4.734   1.729 -1.2522 -0.4414 -0.7673
 9904TIP3    H251128   0.258   4.847   1.684 -2.3086  0.7007 -0.0798
 9905TIP3   OH251129   5.251   2.803   3.130 -0.0425  0.1506  0.3226
 9905TIP3    H151130   5.288   2.743   3.065 -0.5553  0.8248 -0.6200
 9905TIP3    H251131   5.295   2.887   3.112 -1.4117  0.7643 -0.2972
 9906TIP3   OH251132   4.913   1.915   5.186 -0.2348 -0.1413  0.3324
 9906TIP3    H151133   4.829   1.876   5.211 -0.5228  0.8068  0.8885
 9906TIP3    H251134   4.918   1.903   5.091 -1.4373  0.5902  0.1540
 9907TIP3   OH251135   4.310   3.559  14.788 -0.2931 -0.2404 -0.5124
 9907TIP3    H151136   4.252   3.503  14.838 -1.2681  0.3117 -1.0044
 9907TIP3    H251137   4.260   3.639  14.773  1.0113  0.7251  0.0556
 9908TIP3   OH251138   5.130   0.891   2.795 -0.2902 -0.4377 -0.1335
 9908TIP3    H151139   5.163   0.946   2.866  1.1383 -0.3569 -0.8249
 9908TIP3    H251140   5.058   0.941   2.756 -1.6333 -0.8222  1.7179
 9909TIP3   OH251141   3.828   3.761  12.929 -0.4430  0.0429 -0.3355
 9909TIP3    H151142   3.892   3.824  12.895 -0.6604  1.2491  1.3475
 9909TIP3    H251143   3.856   3.746  13.019 -1.6021 -0.6857 -0.0879
 9910TIP3   OH251144   2.710   5.995   5.701  0.0361  0.3292  0.0744
 9910TIP3    H151145   2.760   6.004   5.620 -0.4839  2.0860 -0.1019
 9910TIP3    H251146   2.759   6.048   5.765 -2.0040  2.9696 -0.3624
 9911TIP3   OH251147   5.415   1.347   1.673 -0.0008  0.0770  0.1678
 9911TIP3    H151148   5.365   1.377   1.749 -0.2036 -1.7434  0.8118
 9911TIP3    H251149   5.453   1.426   1.636 -2.2199  1.3687  0.4818
 9912TIP3   OH251150   3.720   3.557   2.702  0.1163 -0.0136 -0.0689
 9912TIP3    H151151   3.656   3.495   2.670  0.7565 -0.4290 -0.5797
 9912TIP3    H251152   3.716   3.630   2.639  0.0565  0.0197 -0.0269
 9913TIP3   OH251153   1.578   0.656  13.004  0.0360 -0.7042 -0.6955
 9913TIP3    H151154   1.504   0.691  12.954  0.3637 -0.5692 -1.0910
 9913TIP3    H251155   1.540   0.629  13.087 -0.2880  0.2885 -0.5074
 9914TIP3   OH251156   3.264   0.906   0.743  0.4864 -0.0280 -0.1581
 9914TIP3    H151157   3.325   0.917   0.671  0.4817 -1.3543 -0.4048
 9914TIP3    H251158   3.182   0.946   0.712  1.3411  2.3233  0.4248
 9915TIP3   OH251159   2.464   1.256  14.884  0.5901 -0.4459 -0.0369
 9915TIP3    H151160   2.531   1.325  14.881  1.6830 -1.4469  0.3266
 9915TIP3    H251161   2.428   1.254  14.796  0.0038  1.0788  0.1381
 9916TIP3   OH251162   1.600   3.381   4.497  0.4506  0.2132 -0.0836
 9916TIP3    H151163   1.611   3.321   4.570 -0.9522 -1.0054 -0.8234
 9916TIP3    H251164   1.517   3.426   4.515  1.2349  1.5939  0.2070
 9917TIP3   OH251165   1.582   6.205   5.132 -0.0505  0.2984  0.3593
 9917TIP3    H151166   1.564   6.168   5.046 -0.0964 -0.3284  0.6294
 9917TIP3    H251167   1.497   6.207   5.176 -0.1383  1.2393  0.1562
 9918TIP3   OH251168   2.497   3.834  11.467  0.1412  0.7278  0.0704
 9918TIP3    H151169   2.446   3.817  11.546 -1.9537 -0.3688 -1.4296
 9918TIP3    H251170   2.574   3.776  11.475 -0.9970 -0.7994  0.4662
 9919TIP3   OH251171   4.562   1.818   0.060 -0.7443  0.4829  0.1140
 9919TIP3    H151172   4.605   1.734   0.075 -2.3522 -0.3620  0.1324
 9919TIP3    H251173   4.625   1.867   0.006 -0.0877 -1.0072 -0.5399
 9920TIP3   OH251174   3.073   4.156   6.153  0.4306  0.6574 -0.4607
 9920TIP3    H151175   3.044   4.188   6.239 -0.0367  0.7249 -0.6418
 9920TIP3    H251176   3.160   4.195   6.141  0.0964  1.4183 -0.4400
 9921TIP3   OH251177   3.066   6.367  11.190 -0.0903  0.6068 -0.1289
 9921TIP3    H151178   3.055   6.323  11.106  1.8526 -0.3100  0.0285
 9921TIP3    H251179   2.982   6.408  11.208 -0.5002  0.9225 -2.5573
 9922TIP3   OH251180   1.902   6.069   5.526  0.2840  0.1431  0.3773
 9922TIP3    H151181   1.939   6.155   5.509  1.5441 -0.4121  0.1608
 9922TIP3    H251182   1.812   6.075   5.496 -0.0251  1.7382  1.4987
 9923TIP3   OH251183   1.657   2.874  10.587 -0.7626 -0.1113 -0.1747
 9923TIP3    H151184   1.646   2.804  10.651 -0.9559 -0.0716 -0.1654
 9923TIP3    H251185   1.571   2.915  10.581 -0.5632  0.3471  0.0757
 9924TIP3   OH251186   6.712   1.819  14.535 -0.5321  0.4562  0.2631
 9924TIP3    H151187   6.644   1.789  14.595 -1.7594  1.6243 -0.4757
 9924TIP3    H251188   6.664   1.848  14.457  0.8859  0.5126 -0.6276
 9925TIP3   OH251189   2.971   4.010   3.781  0.2148 -0.4971  0.0382
 9925TIP3    H151190   2.942   3.920   3.796  2.1419 -0.7285  3.1400
 9925TIP3    H251191   2.926   4.061   3.848  0.6779  0.5215 -0.4061
 9926TIP3   OH251192   4.785   5.321  11.368  0.0412 -0.0261  0.2044
 9926TIP3    H151193   4.847   5.270  11.316  1.9935  2.3324  0.0146
 9926TIP3    H251194   4.779   5.405  11.321 -3.2575 -0.0831  0.3100
 9927TIP3   OH251195   1.114   5.648   1.588 -0.4266 -0.3840  0.0468
 9927TIP3    H151196   1.110   5.743   1.605  0.2177 -0.5731  1.4208
 9927TIP3    H251197   1.195   5.620   1.630 -0.9476 -1.6520  0.2523
 9928TIP3   OH251198   6.567   5.257  15.914 -0.4225 -0.1122 -0.2186
 9928TIP3    H151199   6.541   5.334  15.965  1.2989 -0.7577  1.7645
 9928TIP3    H251200   6.532   5.182  15.963 -0.6253 -0.6856 -1.2064
 9929TIP3   OH251201   5.604   0.669  14.520  0.0510  0.3489 -0.3198
 9929TIP3    H151202   5.648   0.754  14.516  0.7757  0.0091  0.3176
 9929TIP3    H251203   5.532   0.682  14.582  0.3527  0.4196  0.0206
 9930TIP3   OH251204   6.330   2.668   4.978 -0.0592  0.6743 -0.5581
 9930TIP3    H151205   6.384   2.662   5.057 -1.4568  0.1244  0.3884
 9930TIP3    H251206   6.291   2.581   4.969 -0.8832  1.0883 -1.1464
 9931TIP3   OH251207   4.912   4.440   2.204  0.3306  0.0290 -0.4866
 9931TIP3    H151208   4.962   4.500   2.260  0.3782 -0.7457  0.3228
 9931TIP3    H251209   4.970   4.422   2.130  0.2344  1.1333 -0.8518
 9932TIP3   OH251210   1.690   2.598  12.756  0.1298 -0.2102  0.0927
 9932TIP3    H151211   1.692   2.516  12.706 -1.2510 -0.4420  0.3761
 9932TIP3    H251212   1.646   2.575  12.838 -0.1982  0.7951  0.2105
 9933TIP3   OH251213   0.889   0.416  11.044 -0.7750  0.0747  0.1517
 9933TIP3    H151214   0.877   0.485  10.978 -0.4826  0.1913  0.2208
 9933TIP3    H251215   0.950   0.354  11.004 -1.4321 -0.4141 -0.1158
 9934TIP3   OH251216   3.893   0.778  14.692  0.1211  0.1829  0.0600
 9934TIP3    H151217   3.815   0.823  14.658 -1.1106 -0.7586  1.5137
 9934TIP3    H251218   3.895   0.801  14.785  1.0037 -0.6314  0.2593
 9935TIP3   OH251219   2.972   0.986   6.159 -0.6146  0.3658 -0.2110
 9935TIP3    H151220   2.941   1.073   6.184  0.0884  0.7915 -0.7893
 9935TIP3    H251221   2.912   0.926   6.203 -0.1085  1.0898  1.5677
 9936TIP3   OH251222   3.100   1.302  12.253 -0.1902  0.4478  0.3060
 9936TIP3    H151223   3.096   1.390  12.216 -0.3905  0.2882 -0.0631
 9936TIP3    H251224   3.118   1.315  12.346 -1.5067  0.9393  0.5118
 9937TIP3   OH251225   4.762   6.446  14.270  0.4043  0.3524 -0.2763
 9937TIP3    H151226   4.763   6.480  14.180  0.4229 -1.0942 -0.8654
 9937TIP3    H251227   4.854   6.431  14.291  0.2986 -3.0097 -1.5860
 9938TIP3   OH251228   3.247   6.055   2.573  0.4202  0.1563  0.2971
 9938TIP3    H151229   3.248   5.963   2.601  0.4426 -0.0994 -0.5065
 9938TIP3    H251230   3.189   6.098   2.635  2.2561  0.1035  2.1727
 9939TIP3   OH251231   4.981   6.529  13.219 -0.5811 -0.0607 -0.0263
 9939TIP3    H151232   5.040   6.599  13.248 -1.5201  1.3975 -1.4500
 9939TIP3    H251233   5.011   6.508  13.130 -0.4577 -1.3568  0.2958
 9940TIP3   OH251234   2.909   4.546  12.184 -0.9251  0.3842 -0.4526
 9940TIP3    H151235   2.859   4.466  12.170 -0.6013  0.4216 -2.0819
 9940TIP3    H251236   2.984   4.537  12.125  0.1847  0.9999  0.8290
 9941TIP3   OH251237   2.741   1.229  15.606 -0.1662 -0.1356 -0.1665
 9941TIP3    H151238   2.682   1.154  15.596 -0.5643  0.3318 -1.4743
 9941TIP3    H251239   2.796   1.206  15.681  0.3815 -2.1979 -1.1214
 9942TIP3   OH251240   5.546   2.724  11.740  0.1395 -0.5371 -0.3392
 9942TIP3    H151241   5.487   2.690  11.807  0.1796 -1.5560 -0.7977
 9942TIP3    H251242   5.488   2.755  11.671  0.1128 -0.0672 -0.1098
 9943TIP3   OH251243   0.008   3.819  12.414  0.3168  0.5006 -0.0359
 9943TIP3    H151244  -0.041   3.884  12.465 -1.3299 -0.7322  0.0402
 9943TIP3    H251245  -0.059   3.771  12.366  1.5595 -0.6541 -0.6734
 9944TIP3   OH251246   5.824   3.262   0.671  0.2238  0.2141  0.1628
 9944TIP3    H151247   5.749   3.218   0.630 -0.6099  1.3456  0.4230
 9944TIP3    H251248   5.867   3.193   0.722 -1.5336 -0.1426  1.2419
 9945TIP3   OH251249   2.836   2.391  13.110  0.6146  0.1403 -0.5056
 9945TIP3    H151250   2.848   2.330  13.182 -1.2308  1.0079  0.6235
 9945TIP3    H251251   2.913   2.448  13.113  1.0163 -0.4250  0.1698
 9946TIP3   OH251252   3.424   0.218  13.743 -0.1870 -0.0539  0.2961
 9946TIP3    H151253   3.356   0.164  13.703 -0.5891  0.7773 -0.1566
 9946TIP3    H251254   3.385   0.305  13.750  1.0878  0.6265 -0.7123
 9947TIP3   OH251255   0.229   1.332   2.956  0.2454  0.0691  0.1549
 9947TIP3    H151256   0.209   1.420   2.923 -0.3918  0.1886  0.8277
 9947TIP3    H251257   0.147   1.283   2.946  0.2316 -0.0791  0.9292
 9948TIP3   OH251258   2.509   2.893   5.451 -0.1573 -0.2321 -0.8149
 9948TIP3    H151259   2.464   2.976   5.437 -0.7971 -0.2276  1.0280
 9948TIP3    H251260   2.439   2.829   5.462  0.2784 -0.4986  0.5632
 9949TIP3   OH251261   1.576   5.917  14.680 -0.1100 -0.1825  0.7288
 9949TIP3    H151262   1.598   5.873  14.598 -1.2129 -1.0631  0.8740
 9949TIP3    H251263   1.587   6.010  14.661  0.7363 -0.4347 -0.0702
 9950TIP3   OH251264   0.014   4.060  16.785 -0.1688 -0.2846  0.3707
 9950TIP3    H151265   0.088   4.009  16.752  0.2687 -0.2035  1.1911
 9950TIP3    H251266  -0.056   3.995  16.796 -0.7438 -0.1241 -1.8139
 9951TIP3   OH251267   5.734   4.614  15.483 -0.2962  0.1195 -0.1765
 9951TIP3    H151268   5.768   4.693  15.524  0.6340  0.6496 -1.8856
 9951TIP3    H251269   5.678   4.645  15.412 -1.7936 -0.7731  0.5690
 9952TIP3   OH251270   0.611   5.217   3.911  0.3819  0.3971  0.2802
 9952TIP3    H151271   0.548   5.194   3.979  0.9887 -0.1423  0.6697
 9952TIP3    H251272   0.621   5.137   3.859  0.4875  0.5836  0.0109
 9953TIP3   OH251273   0.490   6.323   2.143 -0.1290  0.1519  0.8350
 9953TIP3    H151274   0.432   6.267   2.093 -1.1371  0.4736  1.5968
 9953TIP3    H251275   0.576   6.283   2.134 -0.5652 -0.6678  0.1504
 9954TIP3   OH251276   1.009   5.074   2.906  0.3942  0.1080  0.7737
 9954TIP3    H151277   0.945   5.108   2.844  0.1124  0.1860  1.1051
 9954TIP3    H251278   1.020   5.144   2.971  2.5532  1.0654 -0.5214
 9955TIP3   OH251279   5.774   1.513  10.759 -0.1066 -0.1113  0.1453
 9955TIP3    H151280   5.864   1.536  10.785  0.0951 -1.8106  1.1057
 9955TIP3    H251281   5.759   1.562  10.679  0.9024  1.8863  1.0957
 9956TIP3   OH251282   3.301   4.793  14.662 -0.9850  0.4624  0.0717
 9956TIP3    H151283   3.323   4.774  14.753 -1.2621  1.2993  0.3262
 9956TIP3    H251284   3.205   4.798  14.662 -1.2011 -2.0943 -0.8018
 9957TIP3   OH251285   5.270   1.923   2.264  0.3661 -0.0885 -0.1386
 9957TIP3    H151286   5.312   1.864   2.326  1.5834 -1.3046 -2.0030
 9957TIP3    H251287   5.215   1.980   2.318  0.2576 -1.9704  1.8833
 9958TIP3   OH251288   5.865   6.534  14.378 -0.3484  0.4560  0.3519
 9958TIP3    H151289   5.873   6.629  14.388  0.1989  0.6707 -1.6372
 9958TIP3    H251290   5.881   6.519  14.285 -0.6166 -1.5803  0.5981
 9959TIP3   OH251291   1.721   5.715  15.632 -0.4051  0.4970 -0.1507
 9959TIP3    H151292   1.747   5.638  15.683 -1.5828  0.7393  0.8620
 9959TIP3    H251293   1.703   5.681  15.544  0.9762 -0.0418 -0.2446
 9960TIP3   OH251294   4.147   6.146   3.866  0.8517 -1.0640  0.1573
 9960TIP3    H151295   4.099   6.180   3.942  2.1662  2.5113 -0.4031
 9960TIP3    H251296   4.089   6.163   3.792  1.7779  0.7061 -0.2049
 9961TIP3   OH251297   6.014   6.407  14.801  0.3960  0.5148 -0.5081
 9961TIP3    H151298   6.048   6.496  14.789 -1.1322  1.2670  0.4631
 9961TIP3    H251299   6.062   6.373  14.877 -0.3448  1.2250  0.2936
 9962TIP3   OH251300   5.930   0.429   4.213 -0.4179 -0.5959 -0.4848
 9962TIP3    H151301   5.919   0.501   4.151 -0.2246 -2.2808 -2.6180
 9962TIP3    H251302   6.025   0.422   4.225 -0.3507 -1.2633 -1.3047
 9963TIP3   OH251303   1.084   4.733  16.250 -0.4204 -0.2381 -0.1891
 9963TIP3    H151304   1.047   4.769  16.331 -1.6912 -2.5240  0.3299
 9963TIP3    H251305   1.169   4.699  16.276 -0.2734  0.1846 -0.1139
 9964TIP3   OH251306   1.120   0.012   5.701 -0.7289 -0.4399 -0.6305
 9964TIP3    H151307   1.076  -0.069   5.725  1.4328 -1.7270 -0.6990
 9964TIP3    H251308   1.176   0.032   5.776 -0.3301  0.3120 -1.1173
 9965TIP3   OH251309   2.938   3.238  15.888  0.2237  0.0705  0.2013
 9965TIP3    H151310   2.850   3.250  15.922 -0.8618 -1.9812 -1.6398
 9965TIP3    H251311   2.995   3.281  15.952 -2.1001  1.8599  1.2075
 9966TIP3   OH251312   2.656   5.429   4.543  0.0854 -0.5449 -0.5327
 9966TIP3    H151313   2.645   5.491   4.471  2.3258  0.5009 -0.0430
 9966TIP3    H251314   2.573   5.435   4.592  0.0455  1.7421 -0.7555
 9967TIP3   OH251315   1.685   2.580   3.945 -0.2532  0.0951 -0.2298
 9967TIP3    H151316   1.612   2.620   3.897 -0.3177  1.3187  0.8332
 9967TIP3    H251317   1.642   2.527   4.012 -0.1666 -1.8014 -1.5832
 9968TIP3   OH251318   3.046   0.003  13.072  0.5082  0.2139  0.2133
 9968TIP3    H151319   3.092   0.075  13.029 -1.8161  1.0874 -0.9974
 9968TIP3    H251320   2.988   0.045  13.135  0.3727 -0.7343  0.7455
 9969TIP3   OH251321   0.984   1.789   0.635  0.0224  0.1223  0.1687
 9969TIP3    H151322   1.011   1.822   0.550  0.5166  0.5803  0.4982
 9969TIP3    H251323   0.996   1.694   0.629  1.6853  0.2950  0.2831
 9970TIP3   OH251324   0.347   0.490  16.833  0.1028  0.0753 -0.4858
 9970TIP3    H151325   0.442   0.495  16.846 -0.0095 -0.3674  0.6521
 9970TIP3    H251326   0.333   0.401  16.801 -0.1962 -1.0737  2.4982
 9971TIP3   OH251327   0.910   1.307  10.557 -0.1077  0.4198 -0.4424
 9971TIP3    H151328   0.926   1.378  10.495  2.4158  0.9154  0.6433
 9971TIP3    H251329   0.923   1.227  10.506 -0.6276  0.7651 -1.1277
 9972TIP3   OH251330   5.974   2.684   0.703  0.0524 -0.2808 -0.0779
 9972TIP3    H151331   6.018   2.629   0.639  0.6935 -0.8795  0.8411
 9972TIP3    H251332   6.021   2.667   0.785  0.1819  1.5543  0.2662
 9973TIP3   OH251333   2.475   3.952   2.768 -0.3780  0.4111 -0.1728
 9973TIP3    H151334   2.537   3.974   2.698  0.1772  0.1860  0.2451
 9973TIP3    H251335   2.389   3.965   2.728 -0.0645  1.2241 -0.6031
 9974TIP3   OH251336   6.508   3.000   4.178 -0.7360 -0.3243  0.1023
 9974TIP3    H151337   6.536   2.916   4.214  0.4230  0.3670  0.8779
 9974TIP3    H251338   6.540   3.065   4.240 -2.6758  0.6463  0.1638
 9975TIP3   OH251339   1.268   0.048   0.040  0.0409 -0.4997 -0.6170
 9975TIP3    H151340   1.209   0.122   0.056 -0.5502 -0.9582 -0.6490
 9975TIP3    H251341   1.322   0.044   0.119 -0.0600 -0.1636 -0.5264
 9976TIP3   OH251342   6.117   4.912  12.048  0.2822 -0.1950  0.4386
 9976TIP3    H151343   6.191   4.926  11.988 -0.9066 -0.9215 -1.2756
 9976TIP3    H251344   6.111   4.994  12.097 -0.4666  1.6461 -2.4901
 9977TIP3   OH251345   2.196   2.097   2.683  0.3728  0.6139  0.1125
 9977TIP3    H151346   2.267   2.038   2.709 -1.0881 -0.8532  1.0485
 9977TIP3    H251347   2.199   2.168   2.747 -0.1863 -0.4767  1.4026
 9978TIP3   OH251348   2.100   2.861  15.610 -0.5025 -0.0143  1.2448
 9978TIP3    H151349   2.189   2.880  15.581 -1.0976 -1.4932 -1.9444
 9978TIP3    H251350   2.044   2.909  15.549 -1.8647 -1.7834  1.0248
 9979TIP3   OH251351   6.577   1.239   3.392 -0.0066 -0.1105  0.0030
 9979TIP3    H151352   6.512   1.292   3.346 -0.8020 -1.5633 -0.6186
 9979TIP3    H251353   6.617   1.300   3.455 -0.9143  1.1916 -0.6223
 9980TIP3   OH251354   5.866   4.829  15.578 -0.6028 -0.7452  0.0958
 9980TIP3    H151355   5.956   4.809  15.602 -0.3933 -0.9623 -0.8384
 9980TIP3    H251356   5.858   4.924  15.593 -0.5246 -0.8948  1.1183
 9981TIP3   OH251357   1.039   2.508   1.430  0.3207 -0.1076 -0.5098
 9981TIP3    H151358   1.128   2.532   1.452  0.7350  0.1039 -2.2198
 9981TIP3    H251359   1.022   2.427   1.478  1.7858 -0.6830 -0.9311
 9982TIP3   OH251360   3.018   1.693   1.359  0.7868 -0.0088 -0.5317
 9982TIP3    H151361   3.043   1.692   1.267  1.8220  1.0784 -0.2829
 9982TIP3    H251362   3.078   1.756   1.400 -0.9089  0.9914  0.5258
 9983TIP3   OH251363   2.777   1.624  12.120 -0.0858 -0.3164  0.5181
 9983TIP3    H151364   2.872   1.632  12.122 -0.1303  0.1998  0.6885
 9983TIP3    H251365   2.752   1.650  12.032 -0.0329 -0.9085  0.3250
 9984TIP3   OH251366   1.404   0.530   6.482  0.2471 -0.3714 -0.2177
 9984TIP3    H151367   1.329   0.580   6.449 -1.6531 -1.3562  2.2877
 9984TIP3    H251368   1.475   0.594   6.485 -0.6042  0.7656 -2.0824
 9985TIP3   OH251369   6.083   6.278   3.598 -0.3486  0.2557  0.4893
 9985TIP3    H151370   6.167   6.249   3.562  0.1184 -0.3466  2.0193
 9985TIP3    H251371   6.079   6.371   3.575  0.0054 -0.0465 -0.9289
 9986TIP3   OH251372   6.341   2.529   4.152  0.3650  0.2721  0.0029
 9986TIP3    H151373   6.333   2.455   4.212  1.7366 -1.0090 -1.3218
 9986TIP3    H251374   6.422   2.512   4.104 -0.5228  1.4118 -1.9996
 9987TIP3   OH251375   2.544   2.801   4.037 -0.1252  0.6531 -0.0869
 9987TIP3    H151376   2.532   2.721   3.986 -1.6221  0.9928 -0.2955
 9987TIP3    H251377   2.545   2.772   4.128  0.8863  0.2410 -0.2131
 9988TIP3   OH251378   1.542   4.391  16.844  0.0575 -0.2295 -0.2078
 9988TIP3    H151379   1.492   4.441  16.909  1.5409 -1.0291  1.6460
 9988TIP3    H251380   1.509   4.302  16.851 -0.3570 -0.1662 -1.1933
 9989TIP3   OH251381   5.272   1.038   4.991  0.4751 -0.3406  0.6650
 9989TIP3    H151382   5.273   1.087   4.909  0.8681 -0.3433  0.6704
 9989TIP3    H251383   5.364   1.024   5.012  0.3727 -0.2170  1.1845
 9990TIP3   OH251384   3.549   5.205   5.985 -0.4185 -0.0513  0.0200
 9990TIP3    H151385   3.613   5.220   6.055  0.2912 -0.3809 -0.5430
 9990TIP3    H251386   3.599   5.216   5.904 -0.5197 -2.3585 -0.4388
 9991TIP3   OH251387   2.486   4.872   3.858 -0.6081  0.3453 -0.0969
 9991TIP3    H151388   2.566   4.922   3.844 -0.7404  0.4323 -0.5516
 9991TIP3    H251389   2.480   4.814   3.782 -0.6947 -0.0374  0.2020
 9992TIP3   OH251390   0.107   1.300   4.197 -0.0497  0.1583 -0.5932
 9992TIP3    H151391   0.015   1.286   4.216 -0.2013  0.1242 -1.3164
 9992TIP3    H251392   0.134   1.224   4.146 -0.3091  1.3374 -2.6130
 9993TIP3   OH251393   6.771   0.708  16.118 -0.1368  0.6834  0.5158
 9993TIP3    H151394   6.850   0.666  16.084 -0.8011 -0.0094 -0.2220
 9993TIP3    H251395   6.793   0.801  16.120  0.1862  0.6733 -1.1787
 9994TIP3   OH251396   5.803   2.726   3.885 -0.0298 -0.0753  0.1766
 9994TIP3    H151397   5.892   2.698   3.863 -0.7549 -0.4935 -2.5052
 9994TIP3    H251398   5.805   2.821   3.875 -0.0290 -0.1476 -0.5856
 9995TIP3   OH251399   0.459   1.185   2.883 -0.5926 -0.0425  0.2339
 9995TIP3    H151400   0.430   1.142   2.803 -0.8113 -0.0819  0.3353
 9995TIP3    H251401   0.389   1.247   2.904  0.1865  1.1379 -0.5045
 9996TIP3   OH251402   4.521   1.669   0.739  0.5520  0.2757  0.3990
 9996TIP3    H151403   4.486   1.749   0.699  0.9047 -0.6033 -1.8251
 9996TIP3    H251404   4.475   1.598   0.694  2.1388 -0.8093  0.4133
 9997TIP3   OH251405   0.842   0.845   1.971 -0.1763  0.1101  0.4862
 9997TIP3    H151406   0.913   0.798   2.015 -0.6777 -1.0873  0.0411
 9997TIP3    H251407   0.885   0.890   1.897 -0.1034 -2.0883 -0.8935
 9998TIP3   OH251408   3.184   4.872  12.375 -0.0859 -0.1243  0.2734
 9998TIP3    H151409   3.154   4.947  12.323 -1.2645 -0.4371  0.4839
 9998TIP3    H251410   3.104   4.836  12.414  0.2340 -2.3961 -1.0114
 9999TIP3   OH251411   5.737   5.695  15.800  0.6322 -0.2165  0.3646
 9999TIP3    H151412   5.788   5.765  15.759  0.7677  1.4809  3.1610
 9999TIP3    H251413   5.790   5.666  15.874 -1.8108  0.7839  2.6872
10000TIP3   OH251414   1.487   1.066  12.391  0.2464  0.6146  0.0602
10000TIP3    H151415   1.552   1.027  12.332  1.0350 -0.9180  1.8236
10000TIP3    H251416   1.539   1.104  12.462 -0.6956  1.9959  0.0543
10001TIP3   OH251417   6.183   5.303  11.508  0.0895  0.2726  0.1579
10001TIP3    H151418   6.209   5.219  11.471 -2.8692  0.0946 -1.8457
10001TIP3    H251419   6.104   5.284  11.558 -0.9851  1.8871 -0.8288
10002TIP3   OH251420   5.196   3.457  16.199 -0.6466 -0.1594  0.9516
10002TIP3    H151421   5.129   3.427  16.137  0.5310 -1.8464  0.4147
10002TIP3    H251422   5.194   3.552  16.192 -0.7393 -0.2720 -1.5443
10003TIP3   OH251423   2.709   3.186   6.073 -0.4673 -0.2081 -0.1251
10003TIP3    H151424   2.634   3.218   6.022 -0.3114  0.0614 -0.1865
10003TIP3    H251425   2.669   3.140   6.147 -0.6940 -0.5647 -0.4672
10004TIP3   OH251426   0.980   5.289   2.503  0.0757 -0.2916 -0.1538
10004TIP3    H151427   1.046   5.352   2.471  0.0247 -0.0523  0.2102
10004TIP3    H251428   0.896   5.327   2.477  0.0173  0.0686  0.5483
10005TIP3   OH251429   3.424   0.325  11.508  0.7004 -0.5129  0.0439
10005TIP3    H151430   3.467   0.245  11.539  0.9153 -0.5722 -0.3961
10005TIP3    H251431   3.370   0.296  11.435 -0.3921 -0.5011  0.8320
10006TIP3   OH251432   0.929   2.504  17.205  0.4021  0.2597 -0.0043
10006TIP3    H151433   0.907   2.444  17.275  0.5280  0.9400  0.6319
10006TIP3    H251434   0.857   2.496  17.143 -1.3879  1.9647  1.7278
10007TIP3   OH251435   2.247   3.764   5.199 -0.3349 -0.1361 -0.5282
10007TIP3    H151436   2.170   3.722   5.237 -0.6194  0.1115 -0.8240
10007TIP3    H251437   2.265   3.714   5.119  1.8469 -2.3519  1.1970
10008TIP3   OH251438   1.192   3.071  13.701  0.5049 -0.2462  0.3182
10008TIP3    H151439   1.149   3.120  13.631 -0.1374 -1.1228  0.0736
10008TIP3    H251440   1.184   2.979  13.674  0.0913 -0.6195  1.6311
10009TIP3   OH251441   1.341   2.980   5.065  0.4445 -0.3268 -0.2073
10009TIP3    H151442   1.410   3.025   5.113 -0.0570 -0.5346  0.7333
10009TIP3    H251443   1.330   3.032   4.986  2.8725 -1.2770 -1.2571
10010TIP3   OH251444   1.809   3.172  16.077  0.4701 -0.1774 -0.2009
10010TIP3    H151445   1.786   3.254  16.035  0.2199  0.3343  0.8979
10010TIP3    H251446   1.766   3.176  16.162  0.4676 -1.4417 -0.1280
10011TIP3   OH251447   5.459   0.562  13.813 -0.3884  0.0210 -0.5770
10011TIP3    H151448   5.540   0.593  13.772 -0.0611  0.4408  0.3708
10011TIP3    H251449   5.433   0.633  13.872 -0.9317 -0.5075 -0.1718
10012TIP3   OH251450   2.189   4.115  11.904 -0.3152 -0.1927 -0.6497
10012TIP3    H151451   2.201   4.088  11.995 -1.2890  1.1150 -0.0997
10012TIP3    H251452   2.137   4.045  11.865 -1.2592 -0.0292  0.2544
10013TIP3   OH251453   3.510   3.943   3.850 -0.2858 -0.2700 -0.4345
10013TIP3    H151454   3.466   4.016   3.808 -2.3945 -0.4639  1.2739
10013TIP3    H251455   3.603   3.968   3.849 -0.6333  1.1880 -2.1836
10014TIP3   OH251456   0.437   3.648   2.817  0.0216 -0.0716  0.1413
10014TIP3    H151457   0.426   3.563   2.861 -1.1635 -0.1290 -0.2290
10014TIP3    H251458   0.440   3.627   2.724 -0.3466  0.3037  0.0441
10015TIP3   OH251459   0.828   5.926   5.751 -0.1036 -0.2236 -0.5128
10015TIP3    H151460   0.818   5.895   5.841  0.6586  2.9177  0.7617
10015TIP3    H251461   0.893   5.866   5.713  0.2782 -1.0448  1.3101
10016TIP3   OH251462   1.253   5.637  14.865 -0.3504 -0.4669  0.0708
10016TIP3    H151463   1.328   5.618  14.923 -1.7152  0.3590  2.2411
10016TIP3    H251464   1.283   5.710  14.812  0.6464 -0.6260  0.3782
10017TIP3   OH251465   0.706   3.222  10.993  0.1647 -0.7719  0.1304
10017TIP3    H151466   0.697   3.162  10.919  0.6123 -0.0626 -0.4981
10017TIP3    H251467   0.776   3.282  10.968 -0.2028 -0.0503  0.8038
10018TIP3   OH251468   0.810   5.250   2.058 -0.3703  0.0245 -0.0990
10018TIP3    H151469   0.784   5.342   2.047  0.9259  0.2963 -1.2218
10018TIP3    H251470   0.876   5.253   2.127 -1.6078 -0.3414  1.1352
10019TIP3   OH251471   0.942   5.239  15.718 -0.4664  0.6566 -0.3956
10019TIP3    H151472   0.904   5.180  15.652 -0.0546  0.7892 -0.7523
10019TIP3    H251473   0.951   5.184  15.796  1.5797 -0.2867 -1.2349
10020TIP3   OH251474   2.989   6.434  17.071 -0.0364 -0.4385  0.4192
10020TIP3    H151475   3.015   6.468  17.157  1.2811 -0.5745  0.0957
10020TIP3    H251476   2.934   6.357  17.091  1.0381 -1.0372  1.1497
10021TIP3   OH251477   3.576   3.224  15.883 -0.0161 -0.0302  0.0789
10021TIP3    H151478   3.643   3.270  15.833 -0.4697 -0.9681 -1.4415
10021TIP3    H251479   3.609   3.226  15.973  1.8012 -0.0185 -0.5426
10022TIP3   OH251480   1.220   6.685  12.975 -0.0033  0.0983 -1.0743
10022TIP3    H151481   1.219   6.774  13.010  0.6499 -0.7263  1.2033
10022TIP3    H251482   1.132   6.652  12.994  1.0587 -1.1784  2.3267
10023TIP3   OH251483   1.861   4.322   5.166  0.1635  0.5035 -0.4389
10023TIP3    H151484   1.843   4.402   5.214 -0.3964 -0.6306  1.3715
10023TIP3    H251485   1.951   4.299   5.191 -0.3358 -0.4057  0.6047
10024TIP3   OH251486   0.051   4.329  16.305 -0.3871 -0.0600 -0.5310
10024TIP3    H151487  -0.000   4.264  16.256 -0.1370 -0.6656 -0.0036
10024TIP3    H251488   0.029   4.412  16.264 -0.3535 -0.5241 -1.5367
10025TIP3   OH251489   3.269   1.612   3.323  0.5492  0.0296 -0.2705
10025TIP3    H151490   3.289   1.525   3.357  1.4367 -0.0801 -1.0395
10025TIP3    H251491   3.184   1.634   3.362  0.2345 -1.2349 -0.1906
10026TIP3   OH251492   4.177   1.118   1.303  0.0985 -0.4039  0.4011
10026TIP3    H151493   4.264   1.083   1.320  0.8390  1.2142  0.0640
10026TIP3    H251494   4.164   1.186   1.370 -0.1758  0.5587 -0.5992
10027TIP3   OH251495   0.539   2.935   0.564 -0.0342  0.6512  0.2888
10027TIP3    H151496   0.482   2.932   0.640 -0.2290  0.1334  0.1248
10027TIP3    H251497   0.627   2.917   0.599 -0.0360  0.9907  0.4715
10028TIP3   OH251498   0.178   1.778  16.042  0.7000  0.1232  0.3037
10028TIP3    H151499   0.175   1.839  16.116  0.9953  1.8809 -1.0652
10028TIP3    H251500   0.267   1.786  16.007  0.0417  0.7246 -1.3240
10029TIP3   OH251501   5.351   6.070   2.946 -0.0032  1.0957 -0.3618
10029TIP3    H151502   5.441   6.097   2.930 -0.3619  2.2293 -0.5666
10029TIP3    H251503   5.336   5.996   2.886  0.0889  2.3648 -2.0208
10030TIP3   OH251504   0.892   6.356   4.829 -0.0589 -0.3370 -0.3366
10030TIP3    H151505   0.816   6.353   4.888 -0.4475  0.8470 -0.7466
10030TIP3    H251506   0.964   6.319   4.880  0.4967  3.6771  2.2696
10031TIP3   OH251507   1.449   5.026   0.402 -0.3801 -0.7488  0.2558
10031TIP3    H151508   1.528   5.074   0.377 -0.5989 -0.7805 -0.5164
10031TIP3    H251509   1.381   5.059   0.343 -1.4912  0.8335  2.2711
10032TIP3   OH251510   2.633   3.055   0.815  0.4500 -0.8731  0.3403
10032TIP3    H151511   2.627   3.149   0.835 -0.0171 -1.1218  1.4474
10032TIP3    H251512   2.709   3.048   0.757  0.1816  0.2490 -0.1784
10033TIP3   OH251513   2.211   0.757  12.864 -0.3182  0.3956  0.2404
10033TIP3    H151514   2.253   0.804  12.792  2.6743  0.8795  2.1194
10033TIP3    H251515   2.201   0.824  12.933 -0.9969 -0.5451  1.0857
10034TIP3   OH251516   0.945   6.047  12.921 -0.1990 -0.0953 -0.1527
10034TIP3    H151517   0.904   6.030  13.007  0.1183 -0.0116  0.0149
10034TIP3    H251518   1.009   5.976  12.912 -0.6381 -0.4474 -0.5849
10035TIP3   OH251519   2.874   5.607  14.797 -0.3905  0.4704  0.7208
10035TIP3    H151520   2.844   5.530  14.845 -0.1689  1.6330  2.8173
10035TIP3    H251521   2.915   5.571  14.718 -0.0049 -1.5824  1.7938
10036TIP3   OH251522   5.327   4.795   2.766 -0.2022 -0.1686 -1.1031
10036TIP3    H151523   5.341   4.872   2.711  0.5496  0.8337  0.4053
10036TIP3    H251524   5.406   4.791   2.820 -0.9263 -1.0910 -0.0909
10037TIP3   OH251525   1.246   4.418  14.824 -0.0648  0.2537 -0.1675
10037TIP3    H151526   1.186   4.392  14.754  1.0657  0.4927 -1.2624
10037TIP3    H251527   1.259   4.338  14.875 -2.2789  0.4793  0.8921
10038TIP3   OH251528   6.129   2.331   1.141 -0.6847 -0.7800  0.1392
10038TIP3    H151529   6.035   2.351   1.145 -0.8632 -1.5715  0.0588
10038TIP3    H251530   6.162   2.356   1.227 -1.5443 -3.2691  1.2679
10039TIP3   OH251531   2.092   0.326   6.079  0.7488 -0.6452 -0.5699
10039TIP3    H151532   2.055   0.361   6.160  1.1625 -0.0526 -0.6285
10039TIP3    H251533   2.020   0.332   6.016  0.8701  0.3366 -0.6388
10040TIP3   OH251534   1.024   0.177   1.929  0.2708  0.4794 -0.2372
10040TIP3    H151535   0.975   0.095   1.933  3.1778 -1.3592  0.4199
10040TIP3    H251536   1.092   0.161   1.863 -0.0972  3.0358 -1.3570
10041TIP3   OH251537   0.850   3.385   2.229 -0.3315 -0.6723 -0.3370
10041TIP3    H151538   0.897   3.431   2.160 -0.9375 -0.5667 -0.6902
10041TIP3    H251539   0.918   3.357   2.291 -0.0184  1.3876  0.3191
10042TIP3   OH251540   6.004   3.451   2.892  0.5134  0.4433 -0.5847
10042TIP3    H151541   6.016   3.445   2.797  1.3674 -0.8809 -0.4322
10042TIP3    H251542   5.978   3.541   2.908 -2.1576  0.0771 -2.3353
10043TIP3   OH251543   2.017   1.158   0.043  0.0214 -0.4491 -0.0396
10043TIP3    H151544   2.070   1.089   0.001 -0.8880 -1.1270 -0.0982
10043TIP3    H251545   1.976   1.205  -0.030 -0.9724 -1.1560  0.0494
10044TIP3   OH251546   0.608   4.305   2.965  0.1862 -0.5398 -0.0334
10044TIP3    H151547   0.578   4.215   2.970  0.0038 -0.4279  1.0031
10044TIP3    H251548   0.617   4.333   3.056  0.4746  0.4111 -0.3410
10045TIP3   OH251549   1.160   6.312  17.086  0.3498  0.2150 -0.2955
10045TIP3    H151550   1.195   6.259  17.158 -3.1011 -1.1971  0.5585
10045TIP3    H251551   1.180   6.402  17.110  1.7738 -0.3882  0.9384
10046TIP3   OH251552   4.607   2.462  14.071  0.9525 -0.0854 -0.0689
10046TIP3    H151553   4.624   2.377  14.029  1.7156  0.8681 -1.7903
10046TIP3    H251554   4.567   2.439  14.155  0.2018 -2.1178 -0.9125
10047TIP3   OH251555   2.517   3.741   1.541  0.0513 -0.4046  0.4517
10047TIP3    H151556   2.543   3.789   1.462  0.3110 -1.1156  0.1040
10047TIP3    H251557   2.591   3.684   1.560 -0.8731 -1.8171 -0.0419
10048TIP3   OH251558   0.128   2.590   0.651  0.2925  0.2725  0.1171
10048TIP3    H151559   0.176   2.649   0.593  2.5897 -0.8564  0.7539
10048TIP3    H251560   0.061   2.551   0.595  1.7252  0.0393 -1.5093
10049TIP3   OH251561   1.826   6.612   3.912 -0.0786  0.3186 -0.3408
10049TIP3    H151562   1.882   6.574   3.980  0.5501 -1.7793 -1.9334
10049TIP3    H251563   1.737   6.594   3.942  0.1795 -0.2757  0.0901
10050TIP3   OH251564   5.698   1.950   5.561 -0.3711  0.4906 -0.4722
10050TIP3    H151565   5.701   2.045   5.570  1.6815  0.5353 -1.0747
10050TIP3    H251566   5.653   1.920   5.640 -0.1787  1.9115  0.2180
10051TIP3   OH251567   0.539   4.162  16.285 -0.3223 -0.2605 -0.1420
10051TIP3    H151568   0.498   4.248  16.292  0.7896  0.2338  0.7973
10051TIP3    H251569   0.584   4.150  16.369  2.1609 -0.3314 -1.3678
10052TIP3   OH251570   2.373   1.495   3.686 -0.4985  0.3911 -0.0456
10052TIP3    H151571   2.365   1.434   3.759  0.2338  0.7338  0.3402
10052TIP3    H251572   2.412   1.443   3.615  0.5679  0.5024  0.4336
10053TIP3   OH251573   1.066   1.510  16.102 -0.8109 -0.5196  0.1181
10053TIP3    H151574   1.109   1.580  16.052 -2.6956  0.8374  0.2811
10053TIP3    H251575   1.052   1.440  16.039  0.8817 -0.7004 -0.1156
10054TIP3   OH251576   6.092   1.497  12.123  0.0372  0.2328 -0.5198
10054TIP3    H151577   6.046   1.581  12.130  2.4631  1.6650 -0.6810
10054TIP3    H251578   6.055   1.456  12.045 -3.7986 -0.6686  1.5044
10055TIP3   OH251579   4.780   3.316   6.062 -0.3275  0.1368 -0.2051
10055TIP3    H151580   4.731   3.241   6.096  0.7603 -0.9294 -0.9084
10055TIP3    H251581   4.834   3.345   6.135  0.3315 -0.7107 -0.3437
10056TIP3   OH251582   6.203   6.682  13.858 -0.1830 -0.8152  0.1676
10056TIP3    H151583   6.182   6.731  13.778 -0.3442  1.9943  1.8313
10056TIP3    H251584   6.267   6.617  13.829 -2.3495 -1.8860 -2.7757
10057TIP3   OH251585   1.515   3.627   2.786  0.0306 -0.1683 -0.0969
10057TIP3    H151586   1.430   3.614   2.745 -0.1551  3.1759 -1.0925
10057TIP3    H251587   1.499   3.621   2.880 -1.3563  0.5386 -0.2696
10058TIP3   OH251588   3.093   3.727   0.733  0.1380 -0.1051 -0.0495
10058TIP3    H151589   3.154   3.694   0.800  0.2026  0.4431  0.1650
10058TIP3    H251590   3.130   3.696   0.650  0.8837  0.4822  0.0543
10059TIP3   OH251591   4.450   4.890   2.361  0.0422 -0.2279 -0.7244
10059TIP3    H151592   4.510   4.900   2.287 -0.1768 -0.8782 -0.9966
10059TIP3    H251593   4.373   4.942   2.335  0.6517  0.9968 -0.1661
10060TIP3   OH251594   4.882   2.368   3.286  0.5124 -0.2763  0.6380
10060TIP3    H151595   4.903   2.361   3.193  1.1098  1.3832  0.6124
10060TIP3    H251596   4.813   2.434   3.291 -1.5734 -2.3695  1.1678
10061TIP3   OH251597   5.724   0.270   0.087  0.3134 -0.0253  0.0535
10061TIP3    H151598   5.637   0.247   0.054  0.3243  0.2523 -0.1721
10061TIP3    H251599   5.709   0.298   0.177  0.3326 -1.1708  0.4354
10062TIP3   OH251600   4.562   3.331   1.637  0.5266  0.0454 -0.1526
10062TIP3    H151601   4.655   3.306   1.634  0.3070 -0.8408  0.2521
10062TIP3    H251602   4.540   3.328   1.730  0.0050 -0.0455 -0.2761
10063TIP3   OH251603   2.492   3.718  12.616 -0.1341  0.0422 -0.0784
10063TIP3    H151604   2.417   3.659  12.610  0.4742 -0.6474 -1.6731
10063TIP3    H251605   2.554   3.672  12.673 -0.3984  0.0072  0.1808
10064TIP3   OH251606   1.282   4.557   0.867  0.2082 -0.4127  0.0119
10064TIP3    H151607   1.194   4.569   0.904 -0.4817  1.2190 -1.9538
10064TIP3    H251608   1.304   4.643   0.830  2.0938 -1.1496 -0.7040
10065TIP3   OH251609   0.552   3.576  16.207 -0.1839 -0.2150 -0.2826
10065TIP3    H151610   0.481   3.619  16.254  0.2962 -1.5099  1.7591
10065TIP3    H251611   0.538   3.599  16.115 -2.0961  1.1272  0.2950
10066TIP3   OH251612   6.048   0.353  11.307 -0.7017  0.2951  0.4167
10066TIP3    H151613   6.039   0.305  11.389 -1.7628 -0.7445 -0.2744
10066TIP3    H251614   6.092   0.435  11.331 -1.5160  0.2685  2.0933
10067TIP3   OH251615   0.698   1.187  17.067  0.1486 -0.0186 -0.0985
10067TIP3    H151616   0.662   1.104  17.100  0.1017  0.2919  0.6338
10067TIP3    H251617   0.665   1.253  17.127  0.0038  0.5687 -0.8174
10068TIP3   OH251618   0.570   0.344  12.996  0.3223  0.4272 -0.4465
10068TIP3    H151619   0.645   0.367  12.942 -0.7461  1.2778 -1.6198
10068TIP3    H251620   0.494   0.366  12.943 -0.7837 -1.0968  0.4095
10069TIP3   OH251621   5.013   0.745   3.422 -0.3128  0.1196 -0.3824
10069TIP3    H151622   5.007   0.735   3.517  0.4793 -0.1461 -0.3571
10069TIP3    H251623   5.013   0.839   3.408  1.5278  0.2130  0.0295
10070TIP3   OH251624   1.355   4.619   2.907  0.1859 -0.1300  0.4335
10070TIP3    H151625   1.420   4.551   2.925  1.9178  1.5461  0.7815
10070TIP3    H251626   1.385   4.660   2.826 -0.0230  1.1206  0.9689
10071TIP3   OH251627   6.293   1.604   1.625  0.6023  0.0653  0.7264
10071TIP3    H151628   6.387   1.614   1.608  0.2429 -1.6929 -3.0521
10071TIP3    H251629   6.278   1.510   1.625 -1.1932  0.3101  1.4375
10072TIP3   OH251630   2.685   5.790  16.230  0.7230 -0.3595  0.5530
10072TIP3    H151631   2.643   5.757  16.310  0.4004 -1.5082 -0.0773
10072TIP3    H251632   2.625   5.857  16.198  0.2845 -0.7014  0.6561
10073TIP3   OH251633   6.273   0.264  13.433 -0.4760  0.2949  0.2414
10073TIP3    H151634   6.352   0.312  13.409 -0.0508 -0.3190  0.3744
10073TIP3    H251635   6.280   0.182  13.384 -0.5395 -0.1670  0.9927
10074TIP3   OH251636   2.484   2.952   3.545 -0.0158  0.6064  0.6271
10074TIP3    H151637   2.497   2.957   3.450  0.7252  1.1629  0.7479
10074TIP3    H251638   2.468   2.859   3.562  1.6856  0.1810  0.1639
10075TIP3   OH251639   0.461   2.433  15.792  0.2740  0.2876  0.4656
10075TIP3    H151640   0.537   2.413  15.847  1.8821 -0.3962 -1.8680
10075TIP3    H251641   0.468   2.527  15.774  1.2166  0.0329 -0.5964
10076TIP3   OH251642   6.241   2.624   0.904 -0.1968 -0.1721  0.2556
10076TIP3    H151643   6.248   2.701   0.848  2.4303 -1.0006 -0.6990
10076TIP3    H251644   6.249   2.658   0.993  0.4918  0.7185 -0.1319
10077TIP3   OH251645   3.503   2.204  17.125  0.1888  1.1669  0.3547
10077TIP3    H151646   3.559   2.190  17.049  0.5164  0.5531  0.7003
10077TIP3    H251647   3.440   2.271  17.097 -0.7167 -0.1798 -0.9798
10078TIP3   OH251648   5.122   1.484   3.121  0.0862 -0.3633 -0.1416
10078TIP3    H151649   5.150   1.543   3.051 -1.8711 -0.2480 -0.8772
10078TIP3    H251650   5.083   1.541   3.187 -1.1444 -0.7349 -0.5234
10079TIP3   OH251651   0.422   1.496   3.848 -0.0105  0.7763  0.0904
10079TIP3    H151652   0.340   1.475   3.893  0.4418 -0.7837  0.2477
10079TIP3    H251653   0.464   1.411   3.835  0.7015  1.3608 -1.7129
10080TIP3   OH251654   2.455   3.011   6.014 -0.5983 -0.3470 -0.3114
10080TIP3    H151655   2.396   3.077   6.051 -3.0707 -2.0410 -1.0000
10080TIP3    H251656   2.518   2.993   6.084  0.8798  3.3828 -0.4468
10081TIP3   OH251657   5.226   5.159   0.596  0.2804 -0.7044  0.0765
10081TIP3    H151658   5.175   5.101   0.539 -1.1081 -0.7214  1.2608
10081TIP3    H251659   5.250   5.232   0.540  0.3399 -1.4811 -0.9343
10082TIP3   OH251660   1.915   4.592  13.804 -0.1589  0.7001 -0.2944
10082TIP3    H151661   1.821   4.598  13.788 -0.2260  2.0614  0.4711
10082TIP3    H251662   1.922   4.543  13.886 -0.1820  0.3676 -0.4892
10083TIP3   OH251663   0.190   5.543  13.486  0.0535  0.1235  0.1692
10083TIP3    H151664   0.194   5.561  13.392  1.9282 -0.3990  0.1100
10083TIP3    H251665   0.186   5.448  13.492  4.6523 -0.2497  0.5642
10084TIP3   OH251666   0.363   5.701   0.473 -0.1232 -0.1240  0.4748
10084TIP3    H151667   0.416   5.746   0.539  0.0727  0.0168  0.2220
10084TIP3    H251668   0.305   5.769   0.439  0.1619 -0.0655  0.1033
10085TIP3   OH251669   4.351   4.442  14.137 -0.1224  0.1774  0.2614
10085TIP3    H151670   4.322   4.375  14.198  0.5518 -0.5150 -0.1431
10085TIP3    H251671   4.444   4.454  14.157  0.1136 -0.0797 -0.6278
10086TIP3   OH251672   3.160   5.971   5.831  0.2102 -0.7983  0.1447
10086TIP3    H151673   3.129   6.010   5.913 -1.4700 -1.7060 -0.0185
10086TIP3    H251674   3.213   5.896   5.860  0.4619 -0.5299  0.3951
10087TIP3   OH251675   3.983   2.399   1.864 -0.2013 -0.0570 -0.7580
10087TIP3    H151676   3.911   2.404   1.802 -1.1664  0.3531  0.3645
10087TIP3    H251677   3.942   2.380   1.948  1.0192 -0.0283 -0.1262
10088TIP3   OH251678   2.299   3.109   0.301  0.3376  0.1696 -0.2743
10088TIP3    H151679   2.377   3.078   0.253 -0.1122  0.5939 -1.3002
10088TIP3    H251680   2.252   3.163   0.238 -0.2604  0.7751  0.6729
10089TIP3   OH251681   2.079   4.201   3.804 -0.0545 -0.3034 -0.3055
10089TIP3    H151682   2.026   4.275   3.773 -0.6922  0.2237  1.8622
10089TIP3    H251683   2.041   4.125   3.762  0.2374  0.5100 -2.1337
10090TIP3   OH251684   1.983   0.318  11.297  0.0355 -0.1564 -0.6104
10090TIP3    H151685   2.031   0.333  11.215  1.5047  0.0036  0.2373
10090TIP3    H251686   1.925   0.394  11.306 -1.3667 -0.9596 -2.2868
10091TIP3   OH251687   6.609   6.186  11.902  0.0736  0.5188 -0.2181
10091TIP3    H151688   6.673   6.217  11.838 -4.0649  2.1226 -4.0495
10091TIP3    H251689   6.574   6.265  11.942 -0.7744 -0.1896  0.4883
10092TIP3   OH251690   5.731   5.351   3.685  0.0703  0.3371 -0.7399
10092TIP3    H151691   5.790   5.427   3.687  2.1128 -1.1666 -0.4986
10092TIP3    H251692   5.768   5.294   3.617 -1.3922 -0.4655 -0.8906
10093TIP3   OH251693   2.119   0.839   2.895  0.2156  0.0821  0.0163
10093TIP3    H151694   2.196   0.802   2.937  0.2945  1.4605  1.1951
10093TIP3    H251695   2.142   0.931   2.880 -0.4546  0.0242 -1.5219
10094TIP3   OH251696   5.423   4.994   1.235 -0.5660  0.6531 -0.0650
10094TIP3    H151697   5.411   5.072   1.182 -2.0909  0.4193 -0.0886
10094TIP3    H251698   5.344   4.942   1.220  0.4691 -0.9644 -0.1594
10095TIP3   OH251699   3.691   6.743   4.399 -0.1261  0.2284  0.1888
10095TIP3    H151700   3.637   6.761   4.476  1.2821 -2.7198  2.0582
10095TIP3    H251701   3.771   6.795   4.413 -0.7064  1.3000 -0.3924
10096TIP3   OH251702   2.780   0.142  14.774  0.6213 -0.2329 -0.3281
10096TIP3    H151703   2.833   0.149  14.695  2.1306 -2.6979  0.3361
10096TIP3    H251704   2.692   0.167  14.747  1.0937 -1.0043 -2.7783
10097TIP3   OH251705   6.168   2.326  14.578  0.2290 -1.1528 -0.3713
10097TIP3    H151706   6.142   2.320  14.670 -0.6166 -1.5725 -0.6258
10097TIP3    H251707   6.088   2.307  14.529  0.3194  0.4517 -1.2163
10098TIP3   OH251708   1.169   2.667  11.545 -0.2968  0.0330  0.2332
10098TIP3    H151709   1.119   2.749  11.544 -0.0116  0.5015  4.7011
10098TIP3    H251710   1.253   2.690  11.505 -1.1362  1.1579 -0.9823
10099TIP3   OH251711   5.912   5.585   0.733  0.3746 -0.6734 -0.8030
10099TIP3    H151712   5.897   5.579   0.638 -1.2479  1.0061 -0.7126
10099TIP3    H251713   5.831   5.553   0.772  1.1081 -1.5474  0.0522
10100TIP3   OH251714   2.073   3.764   6.154  0.1495  0.2628 -0.2121
10100TIP3    H151715   2.086   3.796   6.243 -3.1503 -0.2571  0.5597
10100TIP3    H251716   1.985   3.727   6.154 -0.5485  1.4802 -4.0572
10101TIP3   OH251717   2.474   2.109   1.933 -0.1648 -0.4805  0.2212
10101TIP3    H151718   2.444   2.138   2.019 -0.3351 -0.9517  0.3201
10101TIP3    H251719   2.395   2.103   1.880 -0.1583 -0.9626  0.2598
10102TIP3   OH251720   1.835   0.803  11.029 -0.1113  0.1150 -0.1890
10102TIP3    H151721   1.839   0.831  11.121 -0.6386 -1.4753  0.3637
10102TIP3    H251722   1.901   0.734  11.022 -0.9299 -0.6626 -0.6364
10103TIP3   OH251723   0.993   4.539  15.211  0.5612 -1.2924 -0.0979
10103TIP3    H151724   1.004   4.589  15.292  1.6499 -1.9239  0.1657
10103TIP3    H251725   1.008   4.603  15.141 -0.4600 -0.7264  0.1694
10104TIP3   OH251726   3.278   6.728  16.791  0.7466 -0.3114  0.0856
10104TIP3    H151727   3.324   6.729  16.875  2.6282  0.6211 -0.9020
10104TIP3    H251728   3.286   6.817  16.758 -0.1127 -0.6264 -1.0264
10105TIP3   OH251729   4.767   5.801  11.502 -1.0100  0.8027  1.0546
10105TIP3    H151730   4.715   5.803  11.582 -0.1360  0.2924  1.6460
10105TIP3    H251731   4.804   5.713  11.499 -1.5277  0.6053 -0.2421
10106TIP3   OH251732   0.905   2.948   5.576 -0.0123 -0.2034  0.0270
10106TIP3    H151733   0.945   2.980   5.657  0.4203  2.0282 -0.9926
10106TIP3    H251734   0.973   2.894   5.535  1.4351  2.1361 -0.8506
10107TIP3   OH251735   5.041   1.534   4.188 -0.6549 -0.1991  0.2519
10107TIP3    H151736   4.966   1.565   4.136 -0.9436  1.7064  1.6795
10107TIP3    H251737   5.026   1.440   4.198 -1.7671 -0.2155 -1.1846
10108TIP3   OH251738   0.504   3.252  10.676 -0.4581  0.0531 -0.5423
10108TIP3    H151739   0.460   3.293  10.602 -0.5906  0.8665 -0.0209
10108TIP3    H251740   0.597   3.275  10.666 -0.2828 -0.8156 -1.0820
10109TIP3   OH251741   6.743   0.267  16.973 -0.2463 -0.3247  0.3529
10109TIP3    H151742   6.744   0.180  17.013  1.5285  0.2320  1.6637
10109TIP3    H251743   6.657   0.274  16.932 -0.9823 -2.1190  1.4764
10110TIP3   OH251744   3.843   2.854   2.201  0.0451 -0.0447 -0.1772
10110TIP3    H151745   3.888   2.893   2.277 -0.1433 -1.3271  0.6236
10110TIP3    H251746   3.793   2.927   2.164  0.2414  0.6548  0.8620
10111TIP3   OH251747   2.608   6.417  15.954  0.4800  0.0317 -0.0219
10111TIP3    H151748   2.641   6.489  16.008  0.6132  0.9575 -1.3048
10111TIP3    H251749   2.684   6.361  15.940  1.4124  1.7322 -2.2938
10112TIP3   OH251750   3.603   2.521   5.721 -0.3358 -0.2725 -0.3387
10112TIP3    H151751   3.576   2.489   5.634  0.2491 -0.1304 -0.5802
10112TIP3    H251752   3.599   2.616   5.714  0.5487 -0.2342 -0.4997
10113TIP3   OH251753   1.035   6.062   0.058  0.1050 -0.3245  0.5424
10113TIP3    H151754   1.006   6.011   0.133 -1.2869  2.6447  2.1660
10113TIP3    H251755   0.957   6.075   0.005  0.6993 -0.8356 -0.5003
10114TIP3   OH251756   3.167   6.116   2.982 -0.3607 -0.1095  0.3205
10114TIP3    H151757   3.136   6.206   2.969  0.5995  0.0540 -0.8998
10114TIP3    H251758   3.174   6.108   3.077  1.1244  1.6685  0.4249
10115TIP3   OH251759   5.897   1.725  12.491  0.3679 -0.4762  0.4555
10115TIP3    H151760   5.855   1.755  12.410 -0.8692  0.8108  1.5115
10115TIP3    H251761   5.920   1.806  12.537 -1.9361 -1.0369  2.8304
10116TIP3   OH251762   2.136   2.380   2.370 -0.0273  0.4249  0.0510
10116TIP3    H151763   2.078   2.367   2.445  0.8009 -0.8167  0.4987
10116TIP3    H251764   2.218   2.412   2.407  0.0344  0.8868 -0.4562
10117TIP3   OH251765   3.549   3.200  13.209 -0.2624 -0.4711 -0.0192
10117TIP3    H151766   3.583   3.219  13.122  0.1702  0.1393  0.2804
10117TIP3    H251767   3.457   3.179  13.194 -0.0049 -1.1637 -0.7169
10118TIP3   OH251768   6.246   4.551  12.849  0.2949 -0.3067  0.2379
10118TIP3    H151769   6.199   4.632  12.832  0.6086  0.1902  1.6617
10118TIP3    H251770   6.335   4.567  12.817 -0.2500 -1.0095 -1.8177
10119TIP3   OH251771   3.443   6.283  12.002  0.2598  0.1369 -0.8313
10119TIP3    H151772   3.391   6.255  12.077  0.5133 -1.6716 -1.2966
10119TIP3    H251773   3.386   6.344  11.954 -1.4158 -1.6886 -1.2565
10120TIP3   OH251774   5.894   5.193  12.933 -0.4507 -0.1102 -0.4711
10120TIP3    H151775   5.910   5.126  12.867  1.0435 -0.5812  0.3219
10120TIP3    H251776   5.961   5.179  12.999 -1.1292  1.1348  0.5470
10121TIP3   OH251777   1.084   1.961  16.778 -0.4984  0.0646  0.7477
10121TIP3    H151778   1.106   1.958  16.685 -0.6212 -0.6771  0.7382
10121TIP3    H251779   1.095   2.053  16.802 -1.4317  0.4575 -0.2332
10122TIP3   OH251780   3.162   1.132  11.149  0.2224  0.0872  0.0795
10122TIP3    H151781   3.134   1.044  11.125  0.2166 -0.3254  1.5365
10122TIP3    H251782   3.083   1.186  11.139 -0.0560 -0.2846  0.2807
10123TIP3   OH251783   5.060   2.067   0.586  0.0803  0.4145 -0.4257
10123TIP3    H151784   5.154   2.064   0.568  0.7247  2.0480  2.1300
10123TIP3    H251785   5.029   2.146   0.541  0.0811  0.2863 -0.6523
10124TIP3   OH251786   2.176   4.969  14.690 -0.5869  0.7896  0.2675
10124TIP3    H151787   2.200   4.966  14.783 -2.7719  1.2854  0.9169
10124TIP3    H251788   2.096   4.917  14.684 -0.5259  0.8284 -1.3310
10125TIP3   OH251789   5.570   3.354   2.823 -0.1142  0.1430 -0.3148
10125TIP3    H151790   5.543   3.426   2.767  2.3088 -0.5860 -2.6165
10125TIP3    H251791   5.497   3.292   2.820 -0.3288  0.4307 -2.1849
10126TIP3   OH251792   3.133   6.098   5.611  0.2096 -0.4139  0.2746
10126TIP3    H151793   3.164   6.043   5.540  2.0965  0.8566  0.0444
10126TIP3    H251794   3.144   6.045   5.690  1.7090 -0.4953  0.0260
10127TIP3   OH251795   3.783   3.726  16.704 -0.1817 -0.1561 -0.4985
10127TIP3    H151796   3.864   3.724  16.754 -0.4243 -1.2789 -0.1180
10127TIP3    H251797   3.800   3.788  16.633  1.3134 -0.9903 -0.9167
10128TIP3   OH251798   3.907   3.016   5.982 -0.2320 -0.2124  0.0398
10128TIP3    H151799   3.896   3.053   5.895  3.1192  1.5720  0.2008
10128TIP3    H251800   3.993   2.973   5.979  0.5436  0.9317  2.7179
10129TIP3   OH251801   4.356   0.187  10.973  0.1365  0.1846 -0.4457
10129TIP3    H151802   4.449   0.209  10.964  0.4101 -0.2780  1.0028
10129TIP3    H251803   4.313   0.233  10.900  0.9785  3.3745  0.9067
10130TIP3   OH251804   6.375   1.182  14.173 -0.1270 -0.3708 -0.3412
10130TIP3    H151805   6.373   1.275  14.149 -0.9647 -0.0303  0.9970
10130TIP3    H251806   6.301   1.170  14.231  1.1608 -1.4126  1.1732
10131TIP3   OH251807   1.415   4.077  11.560  0.3914  0.3279  0.3834
10131TIP3    H151808   1.330   4.101  11.596  0.5743 -0.6159  1.4868
10131TIP3    H251809   1.395   4.030  11.479 -0.1144  0.4199  0.4525
10132TIP3   OH251810   5.654   5.661  11.505  0.1168  0.1251  0.0721
10132TIP3    H151811   5.744   5.628  11.499  0.0457 -0.2663  1.0525
10132TIP3    H251812   5.661   5.742  11.556  0.0598  0.7494 -0.8784
10133TIP3   OH251813   5.556   4.705  14.964  0.0268  0.1848 -0.1684
10133TIP3    H151814   5.561   4.647  15.039  0.8201 -0.1333 -0.4559
10133TIP3    H251815   5.508   4.655  14.898 -0.3489  0.3241 -0.0020
10134TIP3   OH251816   2.545   5.247  14.956 -0.9380  0.6996  0.5015
10134TIP3    H151817   2.508   5.209  15.036  1.6071  0.4531  1.6596
10134TIP3    H251818   2.575   5.172  14.905  1.2947  0.9519  1.3533
10135TIP3   OH251819   4.489   2.079   0.084 -0.5561 -0.4548  0.1188
10135TIP3    H151820   4.492   1.991   0.121 -2.1149 -1.1162 -1.2545
10135TIP3    H251821   4.468   2.067  -0.008  1.2772  1.2711 -0.6111
10136TIP3   OH251822   3.590   5.863  15.188  0.1192  0.0307 -0.0660
10136TIP3    H151823   3.604   5.956  15.171  1.3722 -0.1719 -0.2248
10136TIP3    H251824   3.678   5.827  15.198 -0.3689 -0.7716  1.9812
10137TIP3   OH251825   2.320   2.699   0.072 -0.3383  0.1982  0.1451
10137TIP3    H151826   2.225   2.688   0.065 -0.2521 -1.2111  0.8320
10137TIP3    H251827   2.352   2.691  -0.018 -0.7615 -0.7855  0.0640
10138TIP3   OH251828   1.052   2.727   1.212 -0.0076  0.5510 -0.2668
10138TIP3    H151829   1.118   2.666   1.180 -0.0102  0.1025  0.5458
10138TIP3    H251830   1.103   2.805   1.238  0.0058  0.8611 -1.2055
10139TIP3   OH251831   3.280   1.748   1.961 -0.3826  0.3819 -0.4609
10139TIP3    H151832   3.250   1.804   2.033 -0.0370  0.1023 -0.0964
10139TIP3    H251833   3.375   1.757   1.962 -0.3888  0.5290 -1.0131
10140TIP3   OH251834   2.220   6.455  13.608  0.9549  0.2545  0.6949
10140TIP3    H151835   2.294   6.395  13.609  0.4896 -0.3301  0.6782
10140TIP3    H251836   2.144   6.399  13.594  0.6354  0.9770 -0.7636
10141TIP3   OH251837   1.177   6.485  12.007  0.3795 -0.1293 -0.6128
10141TIP3    H151838   1.214   6.523  11.927  0.4018  0.0539 -0.5148
10141TIP3    H251839   1.253   6.452  12.055  0.2417 -1.8023 -1.4674
10142TIP3   OH251840   4.088   2.350   1.211  0.6853  0.1901  0.1244
10142TIP3    H151841   4.079   2.278   1.148  1.0549  0.4928 -0.2912
10142TIP3    H251842   4.154   2.408   1.171  2.5353 -0.6665  1.7621
10143TIP3   OH251843   2.804   3.235  16.917  0.6155  0.2878  0.2042
10143TIP3    H151844   2.715   3.270  16.914 -0.0141 -1.2248 -0.0338
10143TIP3    H251845   2.836   3.259  17.004 -0.1664  0.5307  0.4335
10144TIP3   OH251846   4.961   5.763   5.314 -0.3396  0.4396 -0.1887
10144TIP3    H151847   4.985   5.825   5.245  1.1995 -0.9214 -0.9319
10144TIP3    H251848   5.044   5.731   5.348 -1.0879 -1.0547  0.3287
10145TIP3   OH251849   6.031   2.284   1.797  0.4136 -0.4332 -0.2188
10145TIP3    H151850   5.978   2.216   1.839  1.6502 -0.8842  0.6866
10145TIP3    H251851   6.049   2.249   1.710  1.1543 -1.3799  0.2872
10146TIP3   OH251852   1.275   2.234   4.315 -0.7411 -0.7005 -0.1014
10146TIP3    H151853   1.221   2.276   4.381 -0.9701 -1.4596  0.1994
10146TIP3    H251854   1.284   2.143   4.344 -0.2179 -0.8592 -0.7156
10147TIP3   OH251855   3.956   3.182  16.713 -0.5098 -0.2185  0.9195
10147TIP3    H151856   3.981   3.131  16.790 -2.0757 -0.0280  1.6023
10147TIP3    H251857   4.014   3.257  16.713  0.9594 -1.2999  0.6483
10148TIP3   OH251858   3.566   5.548   4.317  0.1854  0.3946  0.2773
10148TIP3    H151859   3.472   5.529   4.316  0.0653  0.8424 -1.8549
10148TIP3    H251860   3.607   5.465   4.341 -0.6715 -0.6100 -1.4778
10149TIP3   OH251861   5.725   2.267  13.847 -0.0898  0.0270 -0.5507
10149TIP3    H151862   5.782   2.327  13.799  4.1744 -1.3806  2.1667
10149TIP3    H251863   5.698   2.317  13.925  0.4948 -0.4588 -0.0329
10150TIP3   OH251864   4.806   1.766  15.222 -0.3378  0.1264  0.2114
10150TIP3    H151865   4.894   1.798  15.204 -0.9014  0.5959 -2.0118
10150TIP3    H251866   4.797   1.688  15.168 -2.5896  2.3132 -2.9101
10151TIP3   OH251867   0.041   3.376   5.328 -0.0277  0.3960  0.0415
10151TIP3    H151868   0.121   3.428   5.329  0.7710 -0.7854 -0.3925
10151TIP3    H251869   0.062   3.300   5.383 -0.4203 -0.5164 -1.0313
10152TIP3   OH251870   4.167   3.268  13.816  0.3189 -0.2065 -0.0532
10152TIP3    H151871   4.246   3.262  13.761 -0.7611  2.1759 -2.1088
10152TIP3    H251872   4.104   3.211  13.773  0.4107 -0.7915  0.5873
10153TIP3   OH251873   5.217   2.809  16.033  0.3155  0.1958 -0.0987
10153TIP3    H151874   5.204   2.861  16.112  0.9032  1.0137 -0.5196
10153TIP3    H251875   5.158   2.847  15.968  0.3263 -0.0294 -0.2433
10154TIP3   OH251876   0.520   6.647   0.822 -0.0060 -0.6605  0.6329
10154TIP3    H151877   0.540   6.736   0.794 -0.9367 -0.4820  0.5117
10154TIP3    H251878   0.426   6.648   0.843  0.2747 -1.2324  2.0450
10155TIP3   OH251879   2.064   3.521  15.695  0.4231  0.1097  0.2359
10155TIP3    H151880   2.142   3.505  15.748  0.1893 -0.1716  0.5029
10155TIP3    H251881   2.053   3.440  15.645  0.6785  0.3987 -0.2892
10156TIP3   OH251882   2.612   5.465  11.813 -0.0067  0.0104  0.1966
10156TIP3    H151883   2.703   5.492  11.824 -0.1427  0.7850 -0.4230
10156TIP3    H251884   2.608   5.428  11.725 -0.1947 -0.4571  0.3982
10157TIP3   OH251885   0.925   3.308  16.204 -0.4664  0.4371 -0.2163
10157TIP3    H151886   0.923   3.268  16.117 -0.5345  1.3542 -0.6556
10157TIP3    H251887   0.859   3.261  16.254 -0.4399 -0.0916 -0.6697
10158TIP3   OH251888   5.330   0.958   3.873  0.4533 -0.0021  0.2507
10158TIP3    H151889   5.339   0.874   3.827  0.6572  0.0421  0.2112
10158TIP3    H251890   5.242   0.955   3.911 -0.1768  0.4308 -1.1075
10159TIP3   OH251891   4.525   4.976   2.081  0.0299 -0.4680  0.2835
10159TIP3    H151892   4.578   4.913   2.031 -0.4260 -0.3735 -0.3331
10159TIP3    H251893   4.504   5.045   2.018 -1.5953 -0.9544  0.2374
10160TIP3   OH251894   5.852   3.170  14.843  0.0766  0.4760  0.1290
10160TIP3    H151895   5.916   3.214  14.900  1.0095 -0.7108  0.0460
10160TIP3    H251896   5.770   3.218  14.857  1.1238  2.4765 -0.2691
10161TIP3   OH251897   4.660   0.194   3.418  0.1669  0.1462  0.2141
10161TIP3    H151898   4.692   0.284   3.407 -0.9967  0.4967 -0.5328
10161TIP3    H251899   4.643   0.186   3.511 -2.0214  1.5696  0.0195
10162TIP3   OH251900   0.215   6.688  12.289  0.0127 -0.5296 -0.2338
10162TIP3    H151901   0.147   6.655  12.231  0.0740 -1.0019 -0.0389
10162TIP3    H251902   0.238   6.614  12.344 -0.3906  0.0346  0.7329
10163TIP3   OH251903   0.612   1.048  14.566 -0.8088 -0.0394 -0.3564
10163TIP3    H151904   0.530   1.086  14.534 -0.7321  0.7805  0.4040
10163TIP3    H251905   0.618   1.076  14.657  0.6126  0.4029 -0.5663
10164TIP3   OH251906   5.709   3.841  14.843 -0.6279  0.0292  0.0210
10164TIP3    H151907   5.738   3.751  14.856 -2.5491 -0.5594  0.5796
10164TIP3    H251908   5.671   3.842  14.755 -0.3948  0.3728 -0.0804
10165TIP3   OH251909   5.244   5.302   4.653 -0.2929 -0.0037 -0.0941
10165TIP3    H151910   5.240   5.279   4.560 -2.9788  1.3699 -0.4205
10165TIP3    H251911   5.320   5.360   4.660  0.5546 -0.9390 -1.1938
10166TIP3   OH251912   2.294   5.406  14.936  0.2114  0.3714 -0.0506
10166TIP3    H151913   2.336   5.322  14.958 -2.2827 -1.0510 -0.3579
10166TIP3    H251914   2.211   5.381  14.896 -1.1199  3.0144  0.8474
10167TIP3   OH251915   1.388   3.010  11.354 -0.0238 -0.3302 -0.2149
10167TIP3    H151916   1.364   3.055  11.273  0.3290 -1.5987 -1.0546
10167TIP3    H251917   1.304   2.984  11.392 -0.1548 -1.6295 -1.3157
10168TIP3   OH251918   0.946   0.203  15.233 -0.1933  0.3299 -0.0213
10168TIP3    H151919   0.936   0.121  15.186 -0.0102  1.2201 -1.7123
10168TIP3    H251920   0.928   0.182  15.325 -0.7810 -1.4354 -0.5167
10169TIP3   OH251921   6.315   2.148  15.249  0.4424  0.5789  0.3248
10169TIP3    H151922   6.333   2.145  15.343  1.4230  0.9805  0.1545
10169TIP3    H251923   6.374   2.083  15.211 -3.2320 -3.2643  0.4237
10170TIP3   OH251924   5.285   4.190  15.127  0.3831  0.6160 -0.0552
10170TIP3    H151925   5.258   4.241  15.050  0.1584  1.1633  0.3807
10170TIP3    H251926   5.258   4.243  15.202  1.8376  0.7511  0.4071
10171TIP3   OH251927   3.615   5.562  16.692 -0.2455  0.4917  0.3798
10171TIP3    H151928   3.654   5.519  16.768  0.1158  1.4032  0.7220
10171TIP3    H251929   3.615   5.495  16.624  2.6131  0.6321  0.1249
10172TIP3   OH251930   6.332   0.923   0.700  0.4721  0.4213  0.0009
10172TIP3    H151931   6.377   0.943   0.783 -1.0579 -1.4295  1.3681
10172TIP3    H251932   6.275   0.998   0.685  0.4180  0.5676  0.8929
10173TIP3   OH251933   3.052   2.577  15.539  0.5333 -0.7734  0.2580
10173TIP3    H151934   3.072   2.657  15.491 -0.5294 -0.2778  0.5963
10173TIP3    H251935   3.137   2.540  15.562  1.1692 -1.6608 -2.9379
10174TIP3   OH251936   2.112   0.990   2.090 -0.0895  0.1023  0.2898
10174TIP3    H151937   2.041   0.972   2.028 -0.3089 -0.4649  0.7001
10174TIP3    H251938   2.080   1.064   2.142 -0.8482 -0.8252  1.1837
10175TIP3   OH251939   4.711   4.579  12.773  0.6565 -0.0251  0.5765
10175TIP3    H151940   4.685   4.671  12.781 -1.9217 -0.7942  2.4664
10175TIP3    H251941   4.719   4.564  12.679  1.9673  2.2821  0.2414
10176TIP3   OH251942   1.389   5.962   4.700 -0.5155 -0.2655  0.4221
10176TIP3    H151943   1.400   5.882   4.650 -0.5783 -0.1933  0.2930
10176TIP3    H251944   1.297   5.962   4.727 -0.5835 -0.0974  0.1848
10177TIP3   OH251945   5.984   5.358   2.706 -0.4692  0.1307  0.1099
10177TIP3    H151946   6.070   5.350   2.665 -0.3109 -0.1232  0.4920
10177TIP3    H251947   5.986   5.443   2.749 -1.2706  1.2330 -1.8728
10178TIP3   OH251948   5.205   2.245  17.159  0.2016  0.2499 -0.1115
10178TIP3    H151949   5.184   2.337  17.146  0.3936 -0.1143 -4.4499
10178TIP3    H251950   5.289   2.245  17.204 -0.5929  2.0850  1.4917
10179TIP3   OH251951   4.557   2.577  12.794  0.4676  0.2313  0.2759
10179TIP3    H151952   4.644   2.615  12.801  0.3764  0.2795  1.2709
10179TIP3    H251953   4.504   2.646  12.753  1.1142 -0.1907 -1.3383
10180TIP3   OH251954   5.357   1.483   5.749 -0.2375 -0.3696 -0.2666
10180TIP3    H151955   5.272   1.453   5.781  0.8194 -0.3032  3.0591
10180TIP3    H251956   5.367   1.571   5.786  1.1442 -0.2825 -0.7898
10181TIP3   OH251957   4.451   3.482  15.845  0.1544  0.0876 -0.8123
10181TIP3    H151958   4.375   3.438  15.805 -0.6947  0.6614  0.1240
10181TIP3    H251959   4.412   3.548  15.902  1.3553 -0.2491  0.4311
10182TIP3   OH251960   3.779   0.595  11.456  0.0191  0.3655 -0.4549
10182TIP3    H151961   3.859   0.645  11.440  0.7360 -1.3875 -3.2212
10182TIP3    H251962   3.724   0.614  11.380 -1.2123 -0.2402  0.2583
10183TIP3   OH251963   1.067   1.430  10.738 -0.0915  0.4180  0.1112
10183TIP3    H151964   1.144   1.444  10.684  0.8182 -1.9920  0.6811
10183TIP3    H251965   1.010   1.372  10.687 -0.0159 -0.4616  0.9851
10184TIP3   OH251966   6.020   6.059  11.113  0.1918 -0.3355 -0.2013
10184TIP3    H151967   6.007   6.061  11.018  2.2764  1.2663 -0.5272
10184TIP3    H251968   5.950   6.115  11.147 -1.8864 -2.5844 -0.5081
10185TIP3   OH251969   4.971   3.839  13.562 -0.2453 -0.0665  0.1168
10185TIP3    H151970   4.889   3.790  13.570  0.4355 -1.1950  0.4994
10185TIP3    H251971   4.945   3.931  13.562 -1.5397 -0.4125 -0.2164
10186TIP3   OH251972   5.739   5.643  15.477  0.8266  0.0772 -0.0442
10186TIP3    H151973   5.779   5.562  15.510  0.5859  0.1825  0.5178
10186TIP3    H251974   5.805   5.710  15.493  1.3048 -0.1113 -1.1356
10187TIP3   OH251975   4.397   6.414   2.164  0.0523 -0.1205 -0.2819
10187TIP3    H151976   4.482   6.392   2.204 -0.3056  0.0375  0.5827
10187TIP3    H251977   4.343   6.337   2.177 -0.7064  0.6422  1.3629
10188TIP3   OH251978   5.050   4.983  14.297 -0.2393  0.5729  0.0584
10188TIP3    H151979   4.985   5.035  14.248 -2.1550 -0.7807  1.0081
10188TIP3    H251980   5.046   5.018  14.386  0.4232  0.5448  0.0999
10189TIP3   OH251981   4.195   1.391  16.573  0.3105  0.0334  0.1438
10189TIP3    H151982   4.102   1.393  16.596  0.4656  1.8784  0.8105
10189TIP3    H251983   4.208   1.307  16.529 -1.0941 -1.4652  2.4003
10190TIP3   OH251984   5.397   3.860  14.060  0.0154  0.1426 -0.5111
10190TIP3    H151985   5.318   3.855  14.005 -0.3068 -0.5974  0.0094
10190TIP3    H251986   5.370   3.824  14.144  1.1314 -0.8881 -0.5757
10191TIP3   OH251987   5.071   4.399   1.677 -0.2652 -0.3350 -0.4878
10191TIP3    H151988   4.994   4.368   1.723 -1.8844 -0.1497 -2.8854
10191TIP3    H251989   5.114   4.320   1.644  0.1830 -0.3967  0.2221
10192TIP3   OH251990   4.734   4.880  16.296  0.2097 -0.0400  0.0304
10192TIP3    H151991   4.673   4.880  16.223  0.4819  2.4520 -0.2878
10192TIP3    H251992   4.816   4.848  16.259 -0.1893 -0.7554 -0.2346
10193TIP3   OH251993   6.138   1.617   3.356  0.3156 -0.2987 -0.1826
10193TIP3    H151994   6.103   1.536   3.319 -0.3960  0.8412 -2.1808
10193TIP3    H251995   6.225   1.594   3.388  0.2019 -1.7996 -0.8896
10194TIP3   OH251996   2.044   3.091   3.297  0.2911  0.4469 -0.0238
10194TIP3    H151997   2.123   3.090   3.243 -0.8204 -0.9907 -1.7434
10194TIP3    H251998   1.972   3.103   3.235 -0.9046  1.1056  1.4252
10195TIP3   OH251999   0.917   0.870  13.303  0.0448 -0.4399  0.0093
10195TIP3    H152000   1.009   0.853  13.326 -0.4886 -1.8833  1.1886
10195TIP3    H252001   0.904   0.963  13.325  1.1524 -0.2840  0.0585
10196TIP3   OH252002   4.293   2.314   0.374  0.1738 -0.1428  0.3884
10196TIP3    H152003   4.202   2.307   0.401  0.3578 -3.2387  0.4847
10196TIP3    H252004   4.338   2.351   0.450 -0.8652  0.9843  0.4930
10197TIP3   OH252005   5.318   5.297  17.141 -0.2428 -0.6778  0.0612
10197TIP3    H152006   5.276   5.349  17.210 -1.5680 -0.6313 -0.7280
10197TIP3    H252007   5.255   5.300  17.069  1.3894 -0.2013 -1.3841
10198TIP3   OH252008   4.584   6.132  12.212  0.5319 -0.4201 -0.0836
10198TIP3    H152009   4.490   6.125  12.233  0.9431  0.4396  2.4259
10198TIP3    H252010   4.612   6.042  12.196 -0.4297 -0.8643  0.6371
10199TIP3   OH252011   0.293   2.190   0.454  0.0043 -0.2162  0.0608
10199TIP3    H152012   0.378   2.231   0.437  0.3890 -1.1948 -0.4682
10199TIP3    H252013   0.264   2.229   0.537  0.9534  0.1513  0.2344
10200TIP3   OH252014   3.045   4.953  17.152  0.2773 -0.0249 -0.1302
10200TIP3    H152015   3.028   5.040  17.190 -0.4388 -0.3438  0.3029
10200TIP3    H252016   3.002   4.955  17.067  0.6312  0.1908 -0.3065
10201TIP3   OH252017   3.746   4.105   5.331 -0.2032  0.2641 -0.0174
10201TIP3    H152018   3.693   4.102   5.251  1.2709  1.2067 -1.0753
10201TIP3    H252019   3.798   4.024   5.328  0.9327  0.9914 -0.8315
10202TIP3   OH252020   4.790   4.920  11.977  0.5918 -0.4462  0.0403
10202TIP3    H152021   4.801   4.837  11.931 -1.0092  0.1699 -1.6002
10202TIP3    H252022   4.836   4.908  12.060  1.0458 -2.6867 -0.4645
10203TIP3   OH252023   1.324   1.136   2.941 -0.1605  0.1604 -0.0715
10203TIP3    H152024   1.274   1.063   2.976 -0.6275  0.2198 -0.5895
10203TIP3    H252025   1.305   1.209   3.000  0.4273 -0.1639  0.5339
10204TIP3   OH252026   6.602   6.075  12.312  0.1012  0.1379 -0.1315
10204TIP3    H152027   6.524   6.054  12.261  1.4294  0.2936 -2.3479
10204TIP3    H252028   6.664   6.005  12.292  1.1341  0.9370  0.1729
10205TIP3   OH252029   3.918   4.088  13.691  0.2374  0.3362 -0.0469
10205TIP3    H152030   3.959   4.172  13.671  0.0944  0.3978 -0.0854
10205TIP3    H252031   3.989   4.024  13.685  0.4329  0.5097  0.3931
10206TIP3   OH252032   1.370   5.821  10.719  0.4123 -0.6392  0.5378
10206TIP3    H152033   1.435   5.875  10.764  0.5340  0.0037 -0.3633
10206TIP3    H252034   1.375   5.850  10.628 -1.3101 -0.3926  0.4846
10207TIP3   OH252035   3.520   6.082  16.565  0.2447  0.8976  0.0083
10207TIP3    H152036   3.575   6.077  16.486  0.6174  1.2369  0.2463
10207TIP3    H252037   3.485   6.171  16.564  0.8983  1.1730  0.6539
10208TIP3   OH252038   6.778   1.917  15.862 -0.4063  0.1299 -0.1065
10208TIP3    H152039   6.832   1.863  15.920 -0.2540 -1.2613 -1.5033
10208TIP3    H252040   6.809   2.007  15.879 -0.6134 -0.1628  2.1975
10209TIP3   OH252041   4.336   4.938  11.451  0.3895  0.1237 -0.2822
10209TIP3    H152042   4.384   5.016  11.424  2.1295 -0.7012  0.3272
10209TIP3    H252043   4.361   4.871  11.388  1.9985 -0.9662  1.4253
10210TIP3   OH252044   3.832   5.963   2.903 -0.0755  0.4769 -0.5040
10210TIP3    H152045   3.908   6.016   2.925  0.6674 -0.2596 -1.2093
10210TIP3    H252046   3.864   5.902   2.836 -1.1516 -0.1966 -0.4299
10211TIP3   OH252047   2.919   4.808  10.537 -0.4155 -0.1172 -0.5630
10211TIP3    H152048   2.883   4.782  10.452 -1.9830  0.9469 -0.2485
10211TIP3    H252049   2.856   4.870  10.573  0.6872  0.1767  0.9807
10212TIP3   OH252050   5.261   3.464  17.035  0.0320  0.0002  0.3104
10212TIP3    H152051   5.253   3.433  16.944  0.6664  0.2104  0.1819
10212TIP3    H252052   5.175   3.502  17.054  0.2060  0.8865 -0.5517
10213TIP3   OH252053   5.242   2.405  10.620  0.2432  0.6037 -0.5586
10213TIP3    H152054   5.204   2.321  10.598  0.2945  0.3448  0.3016
10213TIP3    H252055   5.259   2.400  10.714  0.7346  1.3760 -0.5948
10214TIP3   OH252056   2.242   3.025  13.841 -0.1751  0.3357  0.4865
10214TIP3    H152057   2.152   3.054  13.827 -0.7725 -1.3561  0.6794
10214TIP3    H252058   2.282   3.098  13.889 -1.5386  0.9608  0.7424
10215TIP3   OH252059   2.283   5.557   2.574  0.2982  0.4463 -0.0888
10215TIP3    H152060   2.241   5.576   2.658 -0.4109 -1.0359 -0.0738
10215TIP3    H252061   2.343   5.486   2.593 -2.0672 -2.0624 -1.3169
10216TIP3   OH252062   1.033   0.236   3.867  0.3134 -0.0571  0.0643
10216TIP3    H152063   1.059   0.146   3.844  1.4334  0.6658 -1.8028
10216TIP3    H252064   0.938   0.234   3.869  0.1384 -0.7439 -2.9409
10217TIP3   OH252065   3.257   2.251  13.803  0.5336  0.2508  0.2227
10217TIP3    H152066   3.322   2.318  13.779 -0.0515  0.6135 -0.3899
10217TIP3    H252067   3.177   2.301  13.819  0.6302 -0.0793  1.9856
10218TIP3   OH252068   5.213   4.612   3.626  0.3984  0.0312 -0.2407
10218TIP3    H152069   5.122   4.591   3.647  0.3435  0.2525 -0.2554
10218TIP3    H252070   5.217   4.707   3.630  0.2061  0.1478 -1.9631
10219TIP3   OH252071   5.023   2.479   4.162  0.1579 -0.2925 -0.3160
10219TIP3    H152072   5.084   2.481   4.236  0.9211 -1.2950 -0.8923
10219TIP3    H252073   4.952   2.421   4.191 -0.5650  0.8707  0.3531
10220TIP3   OH252074   1.604   0.007  11.262  0.2037 -0.7708  0.0768
10220TIP3    H152075   1.537   0.031  11.197  0.1845 -1.3968 -0.1371
10220TIP3    H252076   1.560  -0.056  11.319 -0.1509  0.6476  1.4198
10221TIP3   OH252077   0.474   0.151  11.264  0.0435 -0.3277 -0.5110
10221TIP3    H152078   0.556   0.103  11.264  0.1033 -0.2323 -1.3795
10221TIP3    H252079   0.479   0.209  11.188 -1.6693 -1.7780 -1.8165
10222TIP3   OH252080   5.218   2.732   6.480  0.4868 -0.0060 -0.0938
10222TIP3    H152081   5.277   2.706   6.550  0.5077 -1.3961 -0.5964
10222TIP3    H252082   5.140   2.766   6.525  0.3962 -1.1062  0.6182
10223TIP3   OH252083   0.105   4.378  16.604  0.8228  0.4985  0.5556
10223TIP3    H152084   0.035   4.437  16.577  0.5132 -0.1363 -0.0799
10223TIP3    H252085   0.100   4.375  16.699 -1.3556 -1.1023  0.4612
10224TIP3   OH252086   3.756   6.377  15.019 -0.4225  0.1740  0.1584
10224TIP3    H152087   3.841   6.336  15.034 -1.4608 -1.7193  1.3348
10224TIP3    H252088   3.720   6.391  15.107 -1.2007  1.2463 -0.3119
10225TIP3   OH252089   4.439   5.839   2.218 -0.3500  0.4281  0.3107
10225TIP3    H152090   4.526   5.878   2.210  1.6647 -2.5454  3.9279
10225TIP3    H252091   4.394   5.893   2.283  0.4570 -0.2036  1.4473
10226TIP3   OH252092   2.048   1.645  13.409 -0.0450 -0.0618  0.0114
10226TIP3    H152093   1.964   1.603  13.428  1.2908 -2.0795  1.8918
10226TIP3    H252094   2.076   1.606  13.326 -0.7048  0.2433 -0.3613
10227TIP3   OH252095   1.591   4.039  14.726 -0.8064 -0.2187  0.2975
10227TIP3    H152096   1.613   4.117  14.778  0.1022 -0.5884  0.4941
10227TIP3    H252097   1.658   4.037  14.657 -0.8105 -0.8266  0.3060
10228TIP3   OH252098   6.464   5.926   3.908 -0.6084  0.2112 -0.4727
10228TIP3    H152099   6.492   6.017   3.916 -1.3006  0.3793  0.1449
10228TIP3    H252100   6.541   5.875   3.930 -0.7860  0.6616  1.4022
10229TIP3   OH252101   4.310   4.655   4.235  0.4018  0.0312 -0.4179
10229TIP3    H152102   4.326   4.577   4.289  0.1910  0.2639 -0.0090
10229TIP3    H252103   4.290   4.621   4.148  2.6117 -0.2805 -0.8491
10230TIP3   OH252104   0.290   0.167  15.212  0.5927  0.1617 -0.4196
10230TIP3    H152105   0.237   0.114  15.153 -1.9293  0.2587  1.5933
10230TIP3    H252106   0.316   0.243  15.160 -1.0960 -0.0085 -1.5700
10231TIP3   OH252107   4.501   3.859   2.410  0.6224 -0.3416 -0.2120
10231TIP3    H152108   4.509   3.819   2.497  1.0425 -1.7624 -0.8777
10231TIP3    H252109   4.573   3.821   2.360  1.0626  1.3102 -0.8877
10232TIP3   OH252110   0.920   1.329   5.216  0.2708  0.1200  0.2176
10232TIP3    H152111   0.853   1.307   5.151  1.3877 -0.2917 -0.8565
10232TIP3    H252112   0.914   1.259   5.281  1.6670 -1.7588 -1.5091
10233TIP3   OH252113   5.485   3.208   0.902 -0.0082 -0.2793 -0.6966
10233TIP3    H152114   5.467   3.114   0.893  0.0698 -0.3050 -0.5849
10233TIP3    H252115   5.577   3.213   0.925 -0.8138 -0.4066  3.1986
10234TIP3   OH252116   0.072   2.856   1.739 -0.2245  0.3003 -0.4934
10234TIP3    H152117   0.126   2.918   1.691  0.1267  0.1696 -0.2690
10234TIP3    H252118   0.054   2.786   1.677  1.9137 -0.8809  0.1314
10235TIP3   OH252119   1.457   1.918   0.626 -0.2206 -0.4760  0.0935
10235TIP3    H152120   1.421   1.847   0.679 -1.8818 -0.0041 -0.3357
10235TIP3    H252121   1.441   1.892   0.536 -2.1264  1.0014 -0.0637
10236TIP3   OH252122   3.192   2.000   0.714 -0.3415  0.0046 -1.0395
10236TIP3    H152123   3.244   1.969   0.640 -1.2916  0.4682 -1.9410
10236TIP3    H252124   3.197   2.095   0.708  1.6731  0.1037  1.0623
10237TIP3   OH252125   4.408   1.233   3.882  0.2096 -0.1779 -0.8670
10237TIP3    H152126   4.372   1.236   3.793 -1.7326 -0.5394 -0.1591
10237TIP3    H252127   4.349   1.289   3.933 -0.3629 -2.0823  0.6872
10238TIP3   OH252128   6.555   1.676   3.376  0.1180 -0.5052 -0.5301
10238TIP3    H152129   6.638   1.716   3.403 -0.5883 -0.2515  1.4647
10238TIP3    H252130   6.497   1.687   3.452 -1.4570 -1.5167 -1.5129
10239TIP3   OH252131   0.646   1.562  17.252  0.7533 -0.5276 -0.6306
10239TIP3    H152132   0.661   1.480  17.299 -0.8239  0.5813  2.0115
10239TIP3    H252133   0.703   1.556  17.175  1.2611 -3.7304 -0.1320
10240TIP3   OH252134   6.695   6.327  12.247 -0.4312  0.3258 -0.5427
10240TIP3    H152135   6.739   6.313  12.331  1.4629  0.7853 -1.4150
10240TIP3    H252136   6.681   6.239  12.212 -1.5319  0.1134  0.3698
10241TIP3   OH252137   6.516   3.719  11.841 -0.1901  0.8097  0.2915
10241TIP3    H152138   6.479   3.807  11.838 -1.3239  0.3861  1.1409
10241TIP3    H252139   6.445   3.663  11.809 -0.9837 -0.2115  3.5401
10242TIP3   OH252140   0.781   3.311  10.669  0.4198 -0.0751  0.0811
10242TIP3    H152141   0.857   3.360  10.699  0.6199  1.2500 -2.3251
10242TIP3    H252142   0.799   3.221  10.694  2.0742  0.4395  0.8855
10243TIP3   OH252143   3.281   4.613   3.582 -0.3231 -0.0609 -0.0189
10243TIP3    H152144   3.360   4.663   3.562  1.6246 -2.9899 -0.3072
10243TIP3    H252145   3.289   4.594   3.676 -0.0927 -1.2575 -0.2705
10244TIP3   OH252146   6.022   5.061  14.954 -0.6072 -1.3436  0.1371
10244TIP3    H152147   5.945   5.116  14.963 -0.7671 -1.4298 -0.6212
10244TIP3    H252148   6.041   5.030  15.042 -1.6392 -1.5904  0.2751
10245TIP3   OH252149   0.317   1.058  15.322  0.7486 -0.5732 -0.4272
10245TIP3    H152150   0.259   1.076  15.396 -0.5444 -1.6698 -1.1168
10245TIP3    H252151   0.389   1.007  15.359  0.4019 -0.6276  0.1802
10246TIP3   OH252152   1.865   1.822  14.386 -0.0292  0.6448 -0.1160
10246TIP3    H152153   1.916   1.788  14.459  0.9185  2.4780  0.1349
10246TIP3    H252154   1.882   1.916  14.386 -2.1628  1.0956 -1.0372
10247TIP3   OH252155   3.320   3.102  12.210  0.3569  0.1350  0.0942
10247TIP3    H152156   3.382   3.029  12.214 -0.2062 -0.3033  1.1400
10247TIP3    H252157   3.237   3.061  12.187 -0.2733  0.2132  2.0656
10248TIP3   OH252158   2.480   2.562  15.164  0.2451  0.8304  0.6751
10248TIP3    H152159   2.567   2.579  15.127  0.5238  2.6607  2.0047
10248TIP3    H252160   2.487   2.593  15.254 -1.1649 -1.0734  1.4850
10249TIP3   OH252161   3.843   3.534   0.497  0.3659 -0.3652  0.3101
10249TIP3    H152162   3.861   3.552   0.405 -0.7495 -1.5503 -0.1715
10249TIP3    H252163   3.925   3.501   0.532  1.8369  3.2222  0.6710
10250TIP3   OH252164   1.761   1.015   2.797  0.2975  0.0250 -0.1456
10250TIP3    H152165   1.677   0.999   2.841  1.1528 -1.6448  0.9535
10250TIP3    H252166   1.738   1.022   2.704 -1.3029  1.6720  0.3026
10251TIP3   OH252167   0.091   4.521  14.473  0.7039  0.5634 -0.3431
10251TIP3    H152168   0.027   4.542  14.541 -0.9623 -0.6810 -1.4664
10251TIP3    H252169   0.104   4.604  14.426  0.0570  0.8670  0.0008
10252TIP3   OH252170   0.801   1.530   3.649 -0.4275  0.3491 -0.0898
10252TIP3    H152171   0.891   1.502   3.666 -1.0329 -2.0363 -0.4517
10252TIP3    H252172   0.776   1.578   3.728  0.6214 -0.3646  0.7065
10253TIP3   OH252173   3.108   6.414  16.306 -0.1268  0.1170 -0.0494
10253TIP3    H152174   3.160   6.441  16.382  0.0737 -0.5634  0.0642
10253TIP3    H252175   3.034   6.366  16.344  0.6879 -1.4204 -0.3174
10254TIP3   OH252176   1.767   5.439  15.217  0.1585  0.7322  0.2079
10254TIP3    H152177   1.799   5.501  15.152  0.6131  0.8842  0.5648
10254TIP3    H252178   1.827   5.364  15.210 -0.1451  0.5039  0.0515
10255TIP3   OH252179   0.426   6.184   0.394  0.5826  0.3785 -0.2607
10255TIP3    H152180   0.394   6.142   0.314  1.2575  0.1480 -0.4153
10255TIP3    H252181   0.458   6.112   0.448  1.6928  0.6644 -0.5055
10256TIP3   OH252182   2.125   4.086   5.790  0.4131 -0.7500  0.6048
10256TIP3    H152183   2.064   4.158   5.779  0.4243 -0.8742 -0.2791
10256TIP3    H252184   2.171   4.079   5.707  0.4123 -1.7830  0.6705
10257TIP3   OH252185   1.453   5.520   5.190  0.1648 -0.1087  0.1357
10257TIP3    H152186   1.542   5.492   5.209  0.0637 -1.2656 -0.9861
10257TIP3    H252187   1.462   5.612   5.162  1.5426 -1.1667 -3.4165
10258TIP3   OH252188   0.922   6.590   0.075 -0.3245  0.0429 -0.0395
10258TIP3    H152189   0.881   6.516   0.121  0.5874 -1.1626 -1.0876
10258TIP3    H252190   0.910   6.664   0.134 -2.1092 -0.7137  0.6424
10259TIP3   OH252191   0.376   6.475   1.878  0.2260  0.2045 -0.2985
10259TIP3    H152192   0.358   6.391   1.921 -2.0180  0.8173  0.1200
10259TIP3    H252193   0.395   6.535   1.950  0.1319  0.4264 -0.4589
10260TIP3   OH252194   5.736   0.321   5.605  0.3599  0.2560  0.3172
10260TIP3    H152195   5.739   0.389   5.672 -1.6836  0.3261  0.3866
10260TIP3    H252196   5.754   0.240   5.653  4.0765  0.7385  0.0346
10261TIP3   OH252197   2.266   6.405   4.806 -0.4899  0.4283 -0.2313
10261TIP3    H152198   2.256   6.436   4.716  1.4350 -0.7430 -0.9198
10261TIP3    H252199   2.360   6.396   4.817 -0.7839 -1.7682  1.0612
10262TIP3   OH252200   0.655   4.616   3.324  0.3495 -0.2390 -0.0152
10262TIP3    H152201   0.570   4.592   3.360 -0.4926  0.9383 -1.1293
10262TIP3    H252202   0.637   4.688   3.263  2.0643 -0.3293 -0.7134
10263TIP3   OH252203   4.044   2.069  15.101 -0.3196 -0.2540  0.2418
10263TIP3    H152204   4.056   2.159  15.073 -2.2825  0.0503  0.2707
10263TIP3    H252205   4.060   2.071  15.196 -0.2888  0.0512  0.2298
10264TIP3   OH252206   4.061   5.791  11.830  0.0940  0.4949 -0.3035
10264TIP3    H152207   4.113   5.871  11.824 -0.0802  0.5901 -0.5508
10264TIP3    H252208   3.995   5.800  11.761 -0.0600  0.2358 -0.1900
10265TIP3   OH252209   3.261   6.679  12.825  0.4521 -0.8705 -0.5704
10265TIP3    H152210   3.280   6.592  12.860  2.7231 -0.2446 -0.0716
10265TIP3    H252211   3.204   6.663  12.750 -0.3515 -2.6548  0.3647
10266TIP3   OH252212   3.580   2.541   1.779 -0.3616  0.3236 -0.0141
10266TIP3    H152213   3.620   2.543   1.866  0.2996 -1.7397 -0.2266
10266TIP3    H252214   3.626   2.610   1.731  0.1791  0.6242  0.8995
10267TIP3   OH252215   0.508   4.093   2.103  0.1168 -1.0135  0.4225
10267TIP3    H152216   0.467   4.083   2.017 -0.3639 -0.7081  0.6090
10267TIP3    H252217   0.454   4.039   2.161 -0.3358 -0.2024  0.7670
10268TIP3   OH252218   2.148   0.788   1.778 -0.5814 -0.6896  0.0122
10268TIP3    H152219   2.155   0.794   1.682  1.1790 -0.3197  0.1348
10268TIP3    H252220   2.136   0.694   1.794 -0.3289 -0.8243 -0.5417
10269TIP3   OH252221   2.789   1.336  14.416  0.3018 -0.1207 -0.1438
10269TIP3    H152222   2.751   1.412  14.460 -0.5062  0.1846 -1.3492
10269TIP3    H252223   2.876   1.365  14.389 -0.3713  0.7367 -1.4858
10270TIP3   OH252224   2.737   3.691   5.564 -0.2038  0.2148 -0.2998
10270TIP3    H152225   2.805   3.634   5.599 -0.7364 -1.7952 -2.2897
10270TIP3    H252226   2.664   3.632   5.544 -0.4544  1.3632 -3.3081
10271TIP3   OH252227   0.483   5.108   5.846 -0.0505  0.5681 -0.2943
10271TIP3    H152228   0.451   5.034   5.898  1.3430  0.1389 -0.0092
10271TIP3    H252229   0.524   5.067   5.769  0.7893  1.0333 -0.1023
10272TIP3   OH252230   0.977   3.974   1.569 -0.7796 -0.0487 -0.1418
10272TIP3    H152231   0.940   4.028   1.498  0.5040 -0.0418 -0.8433
10272TIP3    H252232   0.973   4.030   1.646 -0.6170  0.5960 -0.5927
10273TIP3   OH252233   1.977   3.704  11.142 -0.3750  0.3359  0.0107
10273TIP3    H152234   1.978   3.780  11.084  0.3030 -0.0100 -0.4434
10273TIP3    H252235   1.922   3.639  11.096  1.6793 -0.6359 -1.1935
10274TIP3   OH252236   6.107   2.086   1.281 -0.4980  0.2845 -0.0106
10274TIP3    H152237   6.146   2.050   1.360 -0.9999 -1.6172 -0.5810
10274TIP3    H252238   6.020   2.117   1.308  0.2188  1.8651  0.6388
10275TIP3   OH252239   6.019   3.079  16.799  0.2879 -0.3728 -0.8145
10275TIP3    H152240   6.088   3.144  16.810 -0.2868  0.2552 -0.8594
10275TIP3    H252241   6.062   2.995  16.817  1.3620 -0.1245 -2.0379
10276TIP3   OH252242   4.179   0.225  16.053 -0.0291  0.1014  0.1545
10276TIP3    H152243   4.165   0.151  15.994  0.1050  0.9642 -0.9809
10276TIP3    H252244   4.095   0.270  16.055 -0.4784 -0.7234  1.8026
10277TIP3   OH252245   0.273   0.999  16.992 -0.1714  0.1249 -0.1213
10277TIP3    H152246   0.259   1.009  17.086  1.0071 -1.2257  0.2329
10277TIP3    H252247   0.221   0.922  16.968 -0.1217  0.1988 -0.4740
10278TIP3   OH252248   1.014   3.152  16.830 -1.1933 -0.2915 -0.6857
10278TIP3    H152249   1.054   3.196  16.755 -1.4636 -0.1413 -0.7434
10278TIP3    H252250   0.920   3.161  16.815 -1.2767  1.1794  0.4998
10279TIP3   OH252251   0.562   6.643  16.182  0.1763  0.1793  0.1535
10279TIP3    H152252   0.538   6.727  16.223  0.6062 -1.0896  3.2460
10279TIP3    H252253   0.541   6.656  16.089 -3.2306  2.4698  1.0172
10280TIP3   OH252254   2.048   0.374   6.351  0.5644  0.7689  0.2690
10280TIP3    H152255   2.132   0.373   6.397  1.6533 -0.7025 -1.6331
10280TIP3    H252256   1.999   0.301   6.389  0.6533  0.8252  0.4939
10281TIP3   OH252257   2.116   1.317   4.094 -0.1712 -0.6858 -0.0103
10281TIP3    H152258   2.070   1.270   4.163  1.0627 -0.4021  1.0369
10281TIP3    H252259   2.069   1.401   4.087 -0.2254 -0.6656  0.5760
10282TIP3   OH252260   4.029   2.707  16.202  0.3543 -0.4464 -0.2270
10282TIP3    H152261   4.008   2.627  16.250  1.3187 -0.3412  0.4011
10282TIP3    H252262   4.013   2.685  16.110 -1.8587 -0.5364  0.1361
10283TIP3   OH252263   2.153   1.081   2.436  0.4958 -0.0052  0.3543
10283TIP3    H152264   2.121   1.037   2.514  0.4511 -0.1242  0.2682
10283TIP3    H252265   2.177   1.011   2.376  0.9477  0.0824  0.4290
10284TIP3   OH252266   6.280   6.239   4.476  0.1361  0.7681 -1.0162
10284TIP3    H152267   6.334   6.291   4.536  0.6951 -0.9003 -0.0019
10284TIP3    H252268   6.340   6.173   4.442 -0.6922  0.4113 -1.8025
10285TIP3   OH252269   0.905   4.558   0.271  0.1439 -0.3846  1.0697
10285TIP3    H152270   0.918   4.601   0.355 -0.0009 -1.5636  1.7061
10285TIP3    H252271   0.967   4.485   0.270  0.0455 -0.4705  0.2142
10286TIP3   OH252272   4.881   1.424   5.048  0.0870  0.0311  0.5314
10286TIP3    H152273   4.884   1.348   5.107  1.6941  0.1820  0.6962
10286TIP3    H252274   4.805   1.408   4.992  0.3013 -1.6378  0.6551
10287TIP3   OH252275   4.435   6.165   2.803 -0.2244  0.1463  0.5889
10287TIP3    H152276   4.367   6.223   2.770  0.7426  1.4199  0.7474
10287TIP3    H252277   4.517   6.209   2.782  0.4904 -0.1360  2.5376
10288TIP3   OH252278   5.328   6.045  16.915  0.4820 -0.4237 -0.5890
10288TIP3    H152279   5.310   5.960  16.876 -1.2136 -0.7518  0.7694
10288TIP3    H252280   5.321   6.107  16.842 -0.7227 -1.2057 -1.1722
10289TIP3   OH252281   5.411   2.072  14.295 -0.1017  0.3931 -0.4917
10289TIP3    H152282   5.445   1.994  14.251  1.9197  0.3477  1.0449
10289TIP3    H252283   5.376   2.126  14.223 -1.6110 -1.8925 -1.5770
10290TIP3   OH252284   0.790   0.051   3.178 -0.4430  0.4758  0.6257
10290TIP3    H152285   0.710   0.016   3.138 -0.4131  0.7474  0.3345
10290TIP3    H252286   0.791   0.143   3.155  0.2412  0.3616  0.1637
10291TIP3   OH252287   4.174   3.897   5.927  0.5312  0.2414  0.5154
10291TIP3    H152288   4.127   3.829   5.877  1.7741 -0.7488  0.6472
10291TIP3    H252289   4.238   3.931   5.865  1.5913 -0.4800  1.1892
10292TIP3   OH252290   0.962   2.671   2.997 -0.1311 -0.5152  0.0437
10292TIP3    H152291   0.899   2.642   2.931 -0.1752  0.5327 -0.4007
10292TIP3    H252292   0.938   2.623   3.076 -1.2216 -0.4682 -0.2365
10293TIP3   OH252293   0.402   6.715  16.805 -0.1512  0.4506 -0.0303
10293TIP3    H152294   0.347   6.637  16.808 -1.8799  1.6301  3.6139
10293TIP3    H252295   0.488   6.684  16.834 -0.5453 -0.3019  0.3630
10294TIP3   OH252296   2.511   4.055  17.196 -0.2810  0.6035 -0.4636
10294TIP3    H152297   2.557   4.110  17.132  1.1956 -1.7438 -1.5272
10294TIP3    H252298   2.448   4.006  17.144 -0.9221  0.5716  0.3223
10295TIP3   OH252299   0.623   2.208  15.510 -0.7713  0.1086 -0.1431
10295TIP3    H152300   0.542   2.171  15.474 -2.2288  2.6994  0.2396
10295TIP3    H252301   0.624   2.298  15.478  1.9559  0.1872 -0.0234
10296TIP3   OH252302   5.898   1.471   2.601 -0.1882  0.0055  0.4680
10296TIP3    H152303   5.935   1.507   2.521  0.3516  1.3505  1.2758
10296TIP3    H252304   5.816   1.520   2.613 -0.8938 -1.0674  0.0908
10297TIP3   OH252305   4.570   4.564   5.014 -0.2066  0.1876 -0.3982
10297TIP3    H152306   4.658   4.536   5.040 -0.6157  0.6270  1.5871
10297TIP3    H252307   4.515   4.487   5.025 -0.0073 -0.2556 -2.2112
10298TIP3   OH252308   2.353   6.433  15.143  0.4639  0.3874  0.1273
10298TIP3    H152309   2.379   6.525  15.151 -0.9394  0.8333 -0.2041
10298TIP3    H252310   2.283   6.434  15.078  0.1945 -0.8817  0.3840
10299TIP3   OH252311   4.984   3.584   3.132 -0.1478  0.0354  0.4271
10299TIP3    H152312   5.063   3.563   3.183 -1.1541  0.0947  2.0887
10299TIP3    H252313   4.984   3.679   3.126  0.9879 -0.0309 -1.4491
10300TIP3   OH252314   1.867   5.961  15.840  0.0112  0.3228  0.3381
10300TIP3    H152315   1.817   6.018  15.782 -0.7392 -1.3845 -0.7452
10300TIP3    H252316   1.921   5.908  15.782  0.5535 -0.2332  1.3170
10301TIP3   OH252317   1.646   1.223   6.763 -0.1211 -0.7198 -0.3832
10301TIP3    H152318   1.627   1.299   6.709  0.4678 -1.5574 -1.8210
10301TIP3    H252319   1.596   1.237   6.843 -0.6176  0.7972 -0.9306
10302TIP3   OH252320   5.073   6.699   1.459 -0.1162 -0.0679 -0.1837
10302TIP3    H152321   5.109   6.742   1.382 -0.4313 -0.1995 -0.4047
10302TIP3    H252322   5.045   6.771   1.516  0.4072  0.0326 -0.0527
10303TIP3   OH252323   6.428   2.480  13.477  0.0133 -0.0438 -0.3880
10303TIP3    H152324   6.409   2.559  13.427 -0.6114  0.3980  0.5187
10303TIP3    H252325   6.465   2.419  13.413 -0.4369  0.6296 -1.3056
10304TIP3   OH252326   6.570   3.741  13.548  0.3561 -0.0467 -0.0435
10304TIP3    H152327   6.591   3.758  13.640  0.5891 -1.9441  0.2975
10304TIP3    H252328   6.474   3.732  13.547  0.2959  0.5715 -0.1071
10305TIP3   OH252329   6.196   0.735   4.544  0.3696 -0.4357  0.0810
10305TIP3    H152330   6.225   0.646   4.525 -1.3945 -0.9105 -0.5550
10305TIP3    H252331   6.144   0.760   4.468  0.5010  0.9911  0.4362
10306TIP3   OH252332   2.696   3.686   4.416  0.6566 -0.2914  0.5799
10306TIP3    H152333   2.618   3.641   4.386  0.4573  0.3253  0.1556
10306TIP3    H252334   2.684   3.696   4.510 -0.4344  1.0129  0.3412
10307TIP3   OH252335   3.838   1.472   2.343 -0.2247 -0.2033  0.8107
10307TIP3    H152336   3.801   1.492   2.430  0.4737  0.1072  1.0413
10307TIP3    H252337   3.932   1.468   2.358 -0.2054 -1.9955  0.4309
10308TIP3   OH252338   2.861   3.544  15.639  0.5356 -0.2448 -0.1949
10308TIP3    H152339   2.923   3.483  15.679  0.8006 -1.6374 -2.5693
10308TIP3    H252340   2.811   3.491  15.578  0.4666  1.8182 -2.0348
10309TIP3   OH252341   6.001   1.032  15.156 -0.4279 -0.2988  0.0617
10309TIP3    H152342   5.991   0.999  15.067 -3.2788  0.7158 -0.0838
10309TIP3    H252343   5.912   1.041  15.189  0.3916  2.3536  1.8816
10310TIP3   OH252344   1.801   4.306  15.220 -0.4269  0.0416 -0.1029
10310TIP3    H152345   1.739   4.370  15.256  0.6185  0.8489  0.3121
10310TIP3    H252346   1.880   4.317  15.273  0.8455  0.6041 -2.0230
10311TIP3   OH252347   3.108   2.338   2.263 -0.7030  0.1256 -0.6749
10311TIP3    H152348   3.076   2.365   2.177  0.7603  2.6722 -0.5064
10311TIP3    H252349   3.040   2.365   2.324 -0.3670  1.2650 -0.7731
10312TIP3   OH252350   4.173   5.999  17.158  1.1740 -0.0066  0.0169
10312TIP3    H152351   4.185   6.087  17.123  0.6145  0.1435  0.1852
10312TIP3    H252352   4.078   5.985  17.155  1.3157 -0.9868 -0.9393
10313TIP3   OH252353   5.194   4.649  12.398  0.5693 -0.1696  0.8937
10313TIP3    H152354   5.264   4.594  12.365  0.5990  0.2730  0.2161
10313TIP3    H252355   5.139   4.667  12.322  0.3185  0.3840  1.2019
10314TIP3   OH252356   5.362   0.578   0.071 -0.6450  0.0900  0.0005
10314TIP3    H152357   5.348   0.646   0.136 -0.2890  1.1224 -0.9706
10314TIP3    H252358   5.288   0.519   0.082 -1.6071  1.2797  0.0722
10315TIP3   OH252359   1.260   0.819   3.705  0.1715 -0.1533 -0.3853
10315TIP3    H152360   1.289   0.846   3.792 -0.0894 -0.4400 -0.2057
10315TIP3    H252361   1.320   0.862   3.644 -1.3111  2.3145 -0.2079
10316TIP3   OH252362   2.725   5.796   0.766  0.3576  0.2037  0.0366
10316TIP3    H152363   2.779   5.840   0.831  1.5313 -0.6662 -0.3168
10316TIP3    H252364   2.655   5.755   0.817  1.2818 -0.5041  0.7817
10317TIP3   OH252365   3.807   3.942  13.924  0.5366 -0.3154  0.0709
10317TIP3    H152366   3.837   3.998  13.852  1.6487  0.2355  0.9405
10317TIP3    H252367   3.742   3.995  13.970  1.2379  0.1127  0.6045
10318TIP3   OH252368   0.211   6.294   0.761 -0.1830  0.5868 -0.0930
10318TIP3    H152369   0.301   6.304   0.793  0.8670 -1.3789 -2.1285
10318TIP3    H252370   0.170   6.235   0.824  0.7171 -0.3589 -0.3583
10319TIP3   OH252371   4.220   4.554  12.100  0.0816 -0.6956 -0.2067
10319TIP3    H152372   4.261   4.577  12.183  1.8661 -0.6687 -1.0490
10319TIP3    H252373   4.261   4.471  12.075  0.9035  0.1753 -1.8960
10320TIP3   OH252374   2.329   2.970  16.769  0.1959  0.4693  0.4436
10320TIP3    H152375   2.302   2.891  16.722 -0.0224  0.7168  0.1495
10320TIP3    H252376   2.404   2.942  16.820  1.4725  0.5566 -1.2821
10321TIP3   OH252377   5.804   5.981  11.630  0.1928 -0.2676  0.0082
10321TIP3    H152378   5.711   5.987  11.652  0.3317  1.6852  0.2722
10321TIP3    H252379   5.823   6.064  11.586  1.8380 -0.5610  0.1201
10322TIP3   OH252380   0.401   2.980  11.502 -0.0108  0.4516  0.3699
10322TIP3    H152381   0.311   3.010  11.488 -0.3734 -0.3417  0.8947
10322TIP3    H252382   0.409   2.902  11.446 -0.7527 -1.4255  2.6779
10323TIP3   OH252383   3.802   4.887  12.819 -0.2979 -0.3112  0.2156
10323TIP3    H152384   3.869   4.908  12.753  1.8487 -0.3149  2.2556
10323TIP3    H252385   3.769   4.801  12.794 -1.8758  0.9777 -2.5714
10324TIP3   OH252386   6.077   6.397  12.230  0.5413 -0.6693 -0.2670
10324TIP3    H152387   6.126   6.323  12.194  2.8685  0.9383 -0.6022
10324TIP3    H252388   6.113   6.474  12.186 -1.2617  0.7535  0.6210
10325TIP3   OH252389   1.225   1.861   5.567 -0.2507 -0.3099 -0.2669
10325TIP3    H152390   1.155   1.798   5.548 -0.5100 -0.2077  0.3424
10325TIP3    H252391   1.285   1.814   5.625 -0.4606  0.0070  0.2134
10326TIP3   OH252392   3.023   4.480   4.537 -0.6299 -0.2605  0.8776
10326TIP3    H152393   3.109   4.447   4.509 -0.7005 -0.6951  1.1583
10326TIP3    H252394   2.970   4.478   4.458 -0.7018 -1.0604  0.9368
10327TIP3   OH252395   1.935   3.467   2.079  0.8850  0.4787 -0.2905
10327TIP3    H152396   1.852   3.424   2.060  2.3770 -4.0101  1.9118
10327TIP3    H252397   1.933   3.481   2.174  2.3310  0.9637 -0.3156
10328TIP3   OH252398   0.782   1.932  16.041  0.2480 -0.4708 -0.0359
10328TIP3    H152399   0.804   2.024  16.054  2.7667 -0.5314 -2.8733
10328TIP3    H252400   0.719   1.932  15.970 -1.0972 -0.9193  1.1081
10329TIP3   OH252401   1.238   2.479  14.546  0.0340  0.2632  0.4864
10329TIP3    H152402   1.239   2.407  14.483  1.1573  0.9483 -0.3363
10329TIP3    H252403   1.149   2.480  14.581  0.4662 -2.7033  1.9577
10330TIP3   OH252404   4.725   0.886   3.438 -0.4851  0.3359  0.0341
10330TIP3    H152405   4.666   0.937   3.383 -0.5078  1.2458  0.8732
10330TIP3    H252406   4.777   0.951   3.484 -0.5105 -0.4004  1.1459
10331TIP3   OH252407   4.746   1.119  11.344 -0.4502 -0.2072 -0.4987
10331TIP3    H152408   4.662   1.076  11.323 -0.9811  1.5974 -2.3075
10331TIP3    H252409   4.808   1.081  11.282  0.0100 -1.2016  0.5359
10332TIP3   OH252410   0.607   3.399  15.490 -0.1798 -0.0965 -0.1398
10332TIP3    H152411   0.599   3.457  15.414 -0.6568  0.6810  0.4774
10332TIP3    H252412   0.629   3.458  15.562 -1.4623 -0.5679  0.6686
10333TIP3   OH252413   2.390   1.825   4.729  0.1061  0.3356  0.3414
10333TIP3    H152414   2.370   1.889   4.660  1.2389 -0.1317 -0.4459
10333TIP3    H252415   2.386   1.740   4.684  1.0202  0.0391  0.8065
10334TIP3   OH252416   0.698   1.185   3.163  0.1348  0.1480  0.7433
10334TIP3    H152417   0.757   1.148   3.229 -0.6909  0.3978  1.6459
10334TIP3    H252418   0.755   1.233   3.104  1.0536 -1.1933  0.4773
10335TIP3   OH252419   3.080   5.271   6.203  0.2410  0.0948  0.0866
10335TIP3    H152420   3.030   5.333   6.151  0.2467 -0.8342 -1.0528
10335TIP3    H252421   3.171   5.295   6.190  0.2748 -0.4868 -0.8159
10336TIP3   OH252422   6.110   4.366  15.405  0.6386 -0.0724  0.0361
10336TIP3    H152423   6.119   4.443  15.460 -0.6945 -0.9439  1.5825
10336TIP3    H252424   6.079   4.297  15.465  2.0530 -1.8996 -1.2089
10337TIP3   OH252425   0.394   4.373  13.678  0.0182  0.0693 -0.2548
10337TIP3    H152426   0.391   4.445  13.741  0.9985 -0.1985  0.1120
10337TIP3    H252427   0.361   4.297  13.727  0.7981 -0.1432 -0.0442
10338TIP3   OH252428   6.733   2.303  13.666  0.2176 -0.0683  0.3610
10338TIP3    H152429   6.810   2.324  13.718  0.1040 -1.0986  0.9608
10338TIP3    H252430   6.667   2.367  13.695  0.8863  0.9852 -0.3392
10339TIP3   OH252431   4.507   3.504  12.144  0.6020  0.1201  0.0799
10339TIP3    H152432   4.467   3.518  12.230  0.7073  3.0650 -0.2503
10339TIP3    H252433   4.581   3.565  12.141  0.0836  0.7419 -2.3799
10340TIP3   OH252434   3.592   0.723  17.237  0.2502  0.0493  0.1454
10340TIP3    H152435   3.671   0.737  17.291  0.4372 -1.4296  0.2975
10340TIP3    H252436   3.557   0.811  17.223  1.4374  0.6610  0.8224
10341TIP3   OH252437   2.131   0.971  16.022  0.2244  0.3127 -0.0106
10341TIP3    H152438   2.066   0.978  16.092 -0.4664  3.7359 -0.8277
10341TIP3    H252439   2.081   0.986  15.942  1.7200  1.2891 -0.8086
10342TIP3   OH252440   6.492   4.191  10.831  0.9803 -0.1612  0.1077
10342TIP3    H152441   6.472   4.217  10.921  1.6259  0.4100  0.0969
10342TIP3    H252442   6.482   4.271  10.780 -0.9811 -0.8354 -0.6210
10343TIP3   OH252443   0.815   6.651  14.096 -0.0335 -0.2590 -0.1519
10343TIP3    H152444   0.746   6.707  14.060 -0.3054 -0.7923 -0.4767
10343TIP3    H252445   0.887   6.711  14.114  0.7426 -0.1188 -3.1203
10344TIP3   OH252446   5.179   2.328   1.049 -0.2317  0.8912 -0.1461
10344TIP3    H152447   5.206   2.419   1.053  1.0695  0.7987 -3.3024
10344TIP3    H252448   5.123   2.323   0.971 -0.1161 -1.0058 -0.1610
10345TIP3   OH252449   2.227   1.552  11.706  0.6847 -0.1295 -0.3662
10345TIP3    H152450   2.303   1.521  11.755  0.6025  0.2045 -0.0262
10345TIP3    H252451   2.265   1.606  11.636  0.7508  0.2036 -0.0752
10346TIP3   OH252452   1.128   2.346   4.558 -0.4779  0.0212 -0.0309
10346TIP3    H152453   1.130   2.422   4.615 -1.8621  0.5421 -0.6279
10346TIP3    H252454   1.041   2.308   4.572 -1.6362  1.2364 -3.0591
10347TIP3   OH252455   1.257   1.318  16.248  0.0755 -0.0579 -0.2653
10347TIP3    H152456   1.169   1.356  16.249  0.0432 -0.1321 -0.1208
10347TIP3    H252457   1.241   1.223  16.253  0.0694 -0.2782 -3.0830
10348TIP3   OH252458   2.709   4.439  13.736 -0.0283 -0.0109 -0.0942
10348TIP3    H152459   2.694   4.404  13.648  3.8726  2.4762 -2.0149
10348TIP3    H252460   2.657   4.520  13.738 -1.9306 -1.1864  0.9019
10349TIP3   OH252461   0.449   4.723  16.331 -0.5919 -0.3071 -0.4182
10349TIP3    H152462   0.419   4.749  16.244 -0.1807  1.6234 -0.0368
10349TIP3    H252463   0.372   4.731  16.387  0.0371  2.8178  0.1951
10350TIP3   OH252464   5.937   5.536   1.636  0.3862  0.2938  0.5600
10350TIP3    H152465   5.850   5.546   1.675 -0.1355 -1.5271 -0.0337
10350TIP3    H252466   5.924   5.553   1.543  0.9879  1.4918  0.6840
10351TIP3   OH252467   0.849   2.162  17.153  0.5299  0.2082  0.2588
10351TIP3    H152468   0.811   2.130  17.235  2.6985  1.1970  1.7315
10351TIP3    H252469   0.817   2.252  17.145 -0.7894 -0.3121 -0.7730
10352TIP3   OH252470   5.671   4.854  16.326 -0.5222  0.2551  0.2053
10352TIP3    H152471   5.590   4.862  16.378  0.7407  0.9457  2.1920
10352TIP3    H252472   5.708   4.943  16.326  1.0214 -0.3614  0.7190
10353TIP3   OH252473   0.273   0.616   0.417  0.0236 -0.3529  0.0532
10353TIP3    H152474   0.275   0.627   0.512 -0.0670 -3.5133  0.5316
10353TIP3    H252475   0.190   0.655   0.390 -0.4994 -0.4253  1.4634
10354TIP3   OH252476   1.577   1.310   4.736  0.3014  0.3440  0.1184
10354TIP3    H152477   1.562   1.286   4.827  1.2374 -0.8965 -0.0187
10354TIP3    H252478   1.568   1.405   4.734 -1.0045  0.2659  1.2376
10355TIP3   OH252479   4.014   2.446  16.308 -0.2340  0.4902  0.4050
10355TIP3    H152480   3.984   2.423  16.396 -0.1524 -3.1766 -0.3560
10355TIP3    H252481   3.946   2.413  16.249  1.7223 -1.3251 -1.0101
10356TIP3   OH252482   2.629   3.332   5.783 -0.0377 -0.0399  0.3437
10356TIP3    H152483   2.573   3.383   5.842 -1.3106 -1.4285  0.4034
10356TIP3    H252484   2.578   3.253   5.764  1.6503 -1.0764 -0.1279
10357TIP3   OH252485   0.183   4.878   2.154 -0.1889  0.4157  0.0037
10357TIP3    H152486   0.264   4.877   2.206 -0.0955 -1.5961 -0.0848
10357TIP3    H252487   0.152   4.968   2.160  2.1423  1.3151 -0.0904
10358TIP3   OH252488   2.857   5.563  13.825 -0.1591 -0.0924 -0.0698
10358TIP3    H152489   2.945   5.547  13.789 -0.5054  0.2517 -1.1103
10358TIP3    H252490   2.800   5.507  13.772 -0.6643  0.3185  0.0419
10359TIP3   OH252491   5.001   1.248  16.361  0.1268  0.4350  0.6409
10359TIP3    H152492   5.064   1.242  16.433  0.9459 -0.9390 -0.1593
10359TIP3    H252493   4.930   1.189  16.388  0.5187 -0.2240  0.2678
10360TIP3   OH252494   4.289   0.495   4.654 -0.0596  0.3534  0.1264
10360TIP3    H152495   4.195   0.497   4.670 -0.2693 -2.2018 -0.3970
10360TIP3    H252496   4.328   0.486   4.741 -0.4563 -0.9217  0.1855
10361TIP3   OH252497   0.992   4.492   0.890  0.0800 -0.7433 -0.0355
10361TIP3    H152498   1.007   4.502   0.984  0.2405  0.0793 -0.1412
10361TIP3    H252499   1.015   4.401   0.872 -0.4391 -1.0592  0.8097
10362TIP3   OH252500   5.165   3.004   4.668  0.2154 -0.3999  0.1115
10362TIP3    H152501   5.205   3.079   4.712 -0.9582  1.1665 -1.3585
10362TIP3    H252502   5.086   2.985   4.717  0.2983 -0.4026  0.2433
10363TIP3   OH252503   2.008   3.964   5.442 -0.0743 -0.0231  0.3541
10363TIP3    H152504   1.956   3.963   5.361 -0.9663  0.3797  0.9016
10363TIP3    H252505   1.986   3.881   5.484  0.8615 -0.5156 -0.0821
10364TIP3   OH252506   0.600   2.682  15.869 -0.1481  0.2461  0.0107
10364TIP3    H152507   0.606   2.777  15.853 -0.4587  0.5275  1.3911
10364TIP3    H252508   0.533   2.674  15.936  2.8210 -0.4791  3.2095
10365TIP3   OH252509   6.068   3.857   0.538  0.1212  0.3417 -0.0229
10365TIP3    H152510   6.048   3.934   0.593  1.2366  0.2422  0.5541
10365TIP3    H252511   6.160   3.868   0.513  0.3245 -0.8344  0.1287
10366TIP3   OH252512   0.666   6.459  11.775  0.3552  0.2598  0.1541
10366TIP3    H152513   0.572   6.474  11.789  0.2404 -0.2436 -0.0740
10366TIP3    H252514   0.682   6.491  11.686  0.3923  0.2918  0.1714
10367TIP3   OH252515   0.425   2.994  13.732 -0.2268  0.2551  0.1114
10367TIP3    H152516   0.414   3.089  13.724 -1.6657  0.0914 -0.2171
10367TIP3    H252517   0.436   2.979  13.826 -0.0570  0.7442  0.1704
10368TIP3   OH252518   3.708   4.980  13.367 -0.0614 -0.0075 -0.2732
10368TIP3    H152519   3.675   5.037  13.298  0.5623 -0.1483 -0.6965
10368TIP3    H252520   3.739   4.902  13.321 -0.2835 -0.4013  0.2364
10369TIP3   OH252521   2.530   0.397   5.469 -0.0323  0.3691  0.1336
10369TIP3    H152522   2.466   0.326   5.476  1.8257 -1.5321 -1.1183
10369TIP3    H252523   2.604   0.370   5.523  0.4459  1.7039  0.2071
10370TIP3   OH252524   3.411   2.322   4.753 -0.2033 -0.1785 -0.5482
10370TIP3    H152525   3.355   2.253   4.719  0.5125 -0.4470 -1.2213
10370TIP3    H252526   3.367   2.403   4.729 -1.2742 -0.3836  0.6316
10371TIP3   OH252527   1.591   3.155   1.850  0.5003  0.1924 -0.1446
10371TIP3    H152528   1.555   3.074   1.887  0.7802  0.0536 -0.1714
10371TIP3    H252529   1.587   3.141   1.755  0.5064  0.2290 -0.1501
10372TIP3   OH252530   0.731   4.248  13.409  0.3262 -0.0512 -0.4027
10372TIP3    H152531   0.638   4.264  13.395  0.4630  0.2243 -1.0007
10372TIP3    H252532   0.737   4.223  13.502 -0.1278  1.6250  0.1170
10373TIP3   OH252533   2.939   2.410  11.945  0.4007  0.0837 -0.0997
10373TIP3    H152534   2.991   2.450  11.875 -2.5775  2.1932 -1.2815
10373TIP3    H252535   3.003   2.391  12.014  2.8140  1.8794 -1.6987
10374TIP3   OH252536   0.563   4.641  17.121 -0.0051 -0.0565 -0.2050
10374TIP3    H152537   0.581   4.553  17.087  3.6477  0.3981  0.0881
10374TIP3    H252538   0.569   4.633  17.216 -1.6179  0.2125 -0.0530
10375TIP3   OH252539   0.386   3.871  11.807  0.6109  0.4700 -0.9515
10375TIP3    H152540   0.336   3.848  11.885  0.4825  1.0115 -0.8678
10375TIP3    H252541   0.440   3.946  11.834  0.1090  1.0569 -1.5437
10376TIP3   OH252542   2.297   0.719   3.360  0.3364  0.3617 -0.6503
10376TIP3    H152543   2.252   0.635   3.371  2.4637 -0.7352  0.5123
10376TIP3    H252544   2.385   0.694   3.329  0.6723  2.2515 -1.3151
10377TIP3   OH252545   1.772   1.360   2.712  0.2859  0.3844 -0.0917
10377TIP3    H152546   1.775   1.266   2.729  0.5946  0.5494  0.7800
10377TIP3    H252547   1.681   1.377   2.688  0.1284 -0.0633  0.1745
10378TIP3   OH252548   0.086   6.143   5.014 -0.1850  0.0164  0.0415
10378TIP3    H152549   0.014   6.169   5.071  0.0699  0.1840  0.2869
10378TIP3    H252550   0.128   6.226   4.989  1.1540 -0.1735  1.5026
10379TIP3   OH252551   0.978   5.148  14.570 -0.4217 -0.0153  0.4980
10379TIP3    H152552   0.952   5.218  14.630  1.1267  0.9723  0.1048
10379TIP3    H252553   1.065   5.175  14.539  0.5942 -2.5256  0.9425
10380TIP3   OH252554   5.002   6.525   5.611 -0.2846 -0.5037 -0.3852
10380TIP3    H152555   5.076   6.505   5.554 -0.6342 -0.7790 -0.7409
10380TIP3    H252556   4.954   6.443   5.618  0.0650 -0.6419  0.7706
10381TIP3   OH252557   2.508   4.163   6.256 -0.2070 -0.0813 -0.0227
10381TIP3    H152558   2.516   4.111   6.335 -1.3206  1.4906  1.1963
10381TIP3    H252559   2.436   4.123   6.207  0.1983 -0.7943 -0.0413
10382TIP3   OH252560   3.588   6.588  11.650 -0.2606 -0.2214 -0.3042
10382TIP3    H152561   3.681   6.573  11.668 -0.5009 -0.4507  0.8449
10382TIP3    H252562   3.544   6.512  11.688 -1.0420  0.6880  0.6619
10383TIP3   OH252563   5.973   1.979  11.159 -0.5046 -0.4290  0.0907
10383TIP3    H152564   5.997   1.910  11.096  2.4698  0.8305 -0.3393
10383TIP3    H252565   5.974   1.935  11.244 -2.3965 -1.6826 -0.4892
10384TIP3   OH252566   5.801   1.363   3.039 -0.8047  0.0655  0.2009
10384TIP3    H152567   5.857   1.324   2.971  0.1557 -0.0969  1.0561
10384TIP3    H252568   5.719   1.381   2.994 -0.1172  0.1988 -1.0798
10385TIP3   OH252569   1.760   5.203  14.904  0.2434 -0.0263 -0.5835
10385TIP3    H152570   1.673   5.168  14.923  0.6619 -0.9103 -0.2235
10385TIP3    H252571   1.769   5.197  14.809  0.0929 -0.4088 -0.5764
10386TIP3   OH252572   1.681   1.442  11.726 -0.0910 -0.5779 -0.0526
10386TIP3    H152573   1.683   1.466  11.633 -0.1946 -3.1061 -0.7717
10386TIP3    H252574   1.774   1.438  11.751 -0.0751  0.8222  0.1971
10387TIP3   OH252575   4.422   1.077  15.441  0.0029  0.3423 -0.3143
10387TIP3    H152576   4.493   1.051  15.382 -1.1720 -0.6277 -1.3661
10387TIP3    H252577   4.459   1.149  15.493  1.5159  0.3304 -1.3049
10388TIP3   OH252578   5.109   4.103   6.091 -0.2526  0.0594  0.0502
10388TIP3    H152579   5.027   4.064   6.060 -0.4802 -0.3143  1.0709
10388TIP3    H252580   5.090   4.129   6.181  0.4652  0.8656 -0.0137
10389TIP3   OH252581   2.916   1.077   5.626 -0.4452 -0.0847 -0.0568
10389TIP3    H152582   2.994   1.129   5.642 -0.6792  0.4773 -0.6892
10389TIP3    H252583   2.924   1.049   5.535 -2.3078  2.3779 -1.1042
10390TIP3   OH252584   1.305   6.687  14.618  0.9533  0.0493 -0.1989
10390TIP3    H152585   1.323   6.632  14.694  0.8090  2.5904  1.8320
10390TIP3    H252586   1.370   6.662  14.553  1.5875 -1.6969  1.0489
10391TIP3   OH252587   6.268   5.015   6.262 -0.3426 -0.1495 -0.8556
10391TIP3    H152588   6.185   5.043   6.224  0.2525  0.1199 -1.9888
10391TIP3    H252589   6.247   4.932   6.305 -1.3584  0.2903 -0.4651
10392TIP3   OH252590   2.302   2.024   3.892  0.0736 -0.0744 -0.0446
10392TIP3    H152591   2.273   2.038   3.982  1.3922  1.3205  0.1938
10392TIP3    H252592   2.243   1.956   3.858 -1.1182  0.1384  1.5146
10393TIP3   OH252593   6.599   4.660   5.107  0.4283  0.5220  0.4111
10393TIP3    H152594   6.618   4.743   5.150  1.6243  0.4935 -0.0220
10393TIP3    H252595   6.670   4.602   5.134 -0.5618 -0.4687  0.9589
10394TIP3   OH252596   1.757   4.795  11.378  0.3928  0.3110 -0.2622
10394TIP3    H152597   1.758   4.872  11.434  0.7568  0.3339 -0.2989
10394TIP3    H252598   1.748   4.721  11.438 -0.7693  0.4238 -0.2786
10395TIP3   OH252599   6.598   3.375  13.502  0.0301  0.9238  0.0834
10395TIP3    H152600   6.555   3.427  13.570 -2.9498 -0.3193 -0.7351
10395TIP3    H252601   6.581   3.284  13.527  1.7319  0.3677 -0.6224
10396TIP3   OH252602   2.683   0.924  16.249 -0.3077  0.2872 -0.5743
10396TIP3    H152603   2.622   0.958  16.314 -0.1516  0.0010 -0.2758
10396TIP3    H252604   2.769   0.930  16.290 -0.2785 -0.4724 -0.5123
10397TIP3   OH252605   1.964   5.471   2.572 -0.3732  0.3325 -0.2957
10397TIP3    H152606   2.001   5.557   2.551  0.7330  0.0442  0.3741
10397TIP3    H252607   2.041   5.415   2.585 -1.0760 -0.7334 -0.6149
10398TIP3   OH252608   5.454   3.055   3.079 -0.0835  0.3385  0.2789
10398TIP3    H152609   5.489   3.016   3.159  0.3837  1.2283  0.5139
10398TIP3    H252610   5.489   3.144   3.078 -2.3632  1.3092  0.5646
10399TIP3   OH252611   2.238   3.637   5.494  0.0027 -0.5396 -0.5580
10399TIP3    H152612   2.168   3.662   5.555 -0.1983 -1.1325 -0.5414
10399TIP3    H252613   2.280   3.720   5.471 -1.4177 -0.0268 -1.4561
10400TIP3   OH252614   2.914   2.113   2.108 -0.0015  0.3724 -0.5816
10400TIP3    H152615   2.868   2.176   2.163 -1.2955  0.0827 -1.2808
10400TIP3    H252616   2.846   2.052   2.079  1.5009 -2.7140  1.8140
10401TIP3   OH252617   4.883   5.412  11.009 -0.0521 -0.2482  0.3195
10401TIP3    H152618   4.917   5.391  10.922  0.3131  1.0082  0.1379
10401TIP3    H252619   4.822   5.484  10.994 -2.4942 -2.1162  0.7093
10402TIP3   OH252620   3.731   6.060  14.555  1.2137 -0.3550  0.3104
10402TIP3    H152621   3.765   6.119  14.622  1.2450 -1.5478  1.3823
10402TIP3    H252622   3.640   6.088  14.541  2.0164  1.7199 -1.2821
10403TIP3   OH252623   2.062   2.633  12.575  0.0016 -0.2667 -0.1070
10403TIP3    H152624   1.976   2.648  12.535  0.2852  2.3338  0.0739
10403TIP3    H252625   2.043   2.594  12.660 -0.9130 -0.8036 -0.5438
10404TIP3   OH252626   3.134   4.026  17.118 -0.2378 -0.0798  0.3009
10404TIP3    H152627   3.075   3.971  17.067 -0.0314 -0.3233  0.3229
10404TIP3    H252628   3.130   3.989  17.207 -0.0655 -0.0897  0.3062
10405TIP3   OH252629   1.936   2.769   1.540  0.6096  0.2657 -0.6239
10405TIP3    H152630   1.925   2.691   1.594 -0.1101  0.5053 -0.4114
10405TIP3    H252631   2.029   2.769   1.516  0.5330 -0.8672 -0.9625
10406TIP3   OH252632   3.633   5.399  14.446 -0.4148 -0.5781  0.6359
10406TIP3    H152633   3.630   5.418  14.352  0.2262  1.6946  0.9981
10406TIP3    H252634   3.556   5.346  14.463 -3.1004  2.6038 -0.5132
10407TIP3   OH252635   2.177   5.222   4.601  0.6185 -0.2982 -0.1302
10407TIP3    H152636   2.260   5.175   4.598 -0.0092 -1.3953 -1.0151
10407TIP3    H252637   2.144   5.208   4.690  0.9685 -0.6033 -0.0498
10408TIP3   OH252638   2.930   5.817   4.623  0.4400  0.0726  0.0015
10408TIP3    H152639   2.884   5.838   4.542 -0.0678 -0.7165  0.0795
10408TIP3    H252640   2.863   5.780   4.680  0.9836 -0.2389  0.4488
10409TIP3   OH252641   6.725   5.100  15.199  0.4191  0.3724  0.3784
10409TIP3    H152642   6.654   5.126  15.258  0.4671  3.2056 -0.6525
10409TIP3    H252643   6.792   5.167  15.211  0.9520  0.3486 -1.9806
10410TIP3   OH252644   4.204   5.170  13.524  0.3175 -0.0190  0.3183
10410TIP3    H152645   4.134   5.154  13.461  0.8981 -1.2861 -0.0201
10410TIP3    H252646   4.161   5.216  13.597 -0.9700 -1.2309  0.3477
10411TIP3   OH252647   6.608   3.992   0.017  0.0310  0.6906  0.3521
10411TIP3    H152648   6.595   4.078  -0.022 -1.4968  0.9160  1.2530
10411TIP3    H252649   6.527   3.976   0.067 -0.1011 -1.6391 -0.4964
10412TIP3   OH252650   0.847   4.824   0.185  0.0861 -0.0307  0.3954
10412TIP3    H152651   0.927   4.809   0.236  0.6851  0.2470 -0.4305
10412TIP3    H252652   0.776   4.797   0.243  0.7142  0.6654  1.5292
10413TIP3   OH252653   3.284   3.972   0.726 -0.0331  0.0049 -0.4932
10413TIP3    H152654   3.324   3.909   0.786 -1.0899 -1.8405 -1.6078
10413TIP3    H252655   3.226   4.025   0.781  1.2729  0.3791  0.5540
10414TIP3   OH252656   5.715   1.127  14.602  0.1703  0.1561  0.9471
10414TIP3    H152657   5.673   1.214  14.605 -0.4180 -0.1534  2.6325
10414TIP3    H252658   5.736   1.107  14.693 -2.0721 -2.5611  1.0338
10415TIP3   OH252659   1.935   2.988  15.422  0.2142 -0.0262  0.1472
10415TIP3    H152660   1.875   2.938  15.367 -1.6659  1.1139  1.0511
10415TIP3    H252661   1.960   3.063  15.367 -0.5864  0.4041  0.3585
10416TIP3   OH252662   1.902   0.093   5.878 -0.4075  0.5258  0.5977
10416TIP3    H152663   1.931   0.166   5.822  0.0519 -0.5732 -0.6539
10416TIP3    H252664   1.839   0.132   5.938  0.3698  2.0986  0.4365
10417TIP3   OH252665   1.621   2.065  15.570 -0.4015  0.1067 -0.8844
10417TIP3    H152666   1.530   2.093  15.563 -0.5845 -0.8005 -2.7038
10417TIP3    H252667   1.639   2.068  15.664 -2.0077  1.1918 -0.5641
10418TIP3   OH252668   2.615   2.507  14.780 -0.2147  0.0981  0.4950
10418TIP3    H152669   2.571   2.546  14.704 -0.6204 -2.6982 -0.8220
10418TIP3    H252670   2.639   2.419  14.751  3.6860  0.4218  2.1204
10419TIP3   OH252671   2.436   4.245   3.292 -0.0535 -0.8112 -0.2438
10419TIP3    H152672   2.412   4.154   3.272  0.3724 -1.1266  0.6245
10419TIP3    H252673   2.516   4.238   3.344  0.1933  0.0846 -0.4913
10420TIP3   OH252674   0.349   5.670   1.011  0.6975 -0.4645  0.5156
10420TIP3    H152675   0.374   5.592   1.060  1.9730 -0.6069 -0.3258
10420TIP3    H252676   0.431   5.714   0.990  0.0401  0.8413  0.5146
10421TIP3   OH252677   1.803   2.259  13.877 -0.1507  0.7205 -0.1629
10421TIP3    H152678   1.794   2.351  13.900  1.6009  0.9077 -0.0670
10421TIP3    H252679   1.798   2.212  13.961 -0.8368  0.7319 -0.1904
10422TIP3   OH252680   5.092   1.456   1.773  0.1629  0.6431  0.3204
10422TIP3    H152681   5.073   1.454   1.679 -0.9631 -0.1655  0.5378
10422TIP3    H252682   5.164   1.519   1.782  0.3755  0.6336 -1.0890
10423TIP3   OH252683   4.563   5.758   4.096  0.2280 -0.1050  0.1558
10423TIP3    H152684   4.594   5.700   4.165 -0.7689 -0.1728  0.5718
10423TIP3    H252685   4.554   5.701   4.019  1.5209  0.0112 -0.0957
10424TIP3   OH252686   3.193   5.411  10.756  0.2649 -0.0645 -0.5969
10424TIP3    H152687   3.101   5.414  10.782 -0.1244  0.9945 -1.9906
10424TIP3    H252688   3.191   5.394  10.661  1.5459 -1.1922 -0.4572
10425TIP3   OH252689   2.794   1.198  12.405 -0.4391  0.0192 -0.2688
10425TIP3    H152690   2.843   1.158  12.332 -1.7870 -1.3323 -0.4734
10425TIP3    H252691   2.825   1.152  12.482  0.5917  1.0812 -0.0157
10426TIP3   OH252692   4.865   0.301   0.637 -0.1569  0.3372  0.1027
10426TIP3    H152693   4.893   0.392   0.624  0.5241  0.2050  0.5884
10426TIP3    H252694   4.930   0.264   0.697 -1.2095 -0.0750  1.0409
10427TIP3   OH252695   2.410   5.590  14.485 -0.0226 -0.4574 -0.1858
10427TIP3    H152696   2.486   5.543  14.518  0.6810 -0.0262 -1.1504
10427TIP3    H252697   2.359   5.610  14.563 -0.8317 -3.5616  0.2127
10428TIP3   OH252698   2.502   4.071  11.375 -0.0773  0.6574 -0.6137
10428TIP3    H152699   2.515   3.981  11.405  1.6552  0.3630 -2.0515
10428TIP3    H252700   2.408   4.086  11.382 -0.6324 -1.8228 -1.7457
10429TIP3   OH252701   2.208   3.254   1.457 -0.1630 -0.0052 -0.1749
10429TIP3    H152702   2.239   3.267   1.547 -0.1510 -0.4001 -0.1222
10429TIP3    H252703   2.123   3.212   1.466  0.3473 -1.1310 -0.3586
10430TIP3   OH252704   5.519   1.095   0.847 -0.0029 -0.2125  0.4344
10430TIP3    H152705   5.424   1.092   0.860  0.1761  0.8374  2.3849
10430TIP3    H252706   5.551   1.150   0.919  1.8860  1.1663 -1.3367
10431TIP3   OH252707   3.374   4.145   2.727 -0.1931  0.4111  0.1301
10431TIP3    H152708   3.315   4.071   2.742 -1.0164  0.4910 -2.2811
10431TIP3    H252709   3.317   4.215   2.694  0.6113  2.0877  2.0599
10432TIP3   OH252710   0.958   2.270   6.178 -0.3340 -0.7579 -0.2921
10432TIP3    H152711   0.952   2.179   6.147 -0.8563 -1.2439  1.1456
10432TIP3    H252712   1.052   2.283   6.196 -0.3113 -1.1719 -0.0875
10433TIP3   OH252713   6.608   6.302  16.867  1.0158  0.5833  0.6844
10433TIP3    H152714   6.681   6.340  16.917  2.4652  0.8197 -1.4355
10433TIP3    H252715   6.648   6.229  16.820  0.1722  1.3291 -1.2966
10434TIP3   OH252716   3.973   1.016  16.539 -0.8130  0.3584 -0.0663
10434TIP3    H152717   3.894   0.969  16.513 -1.3755  1.8943 -1.2612
10434TIP3    H252718   3.944   1.105  16.556  1.0875  1.9578 -3.9997
10435TIP3   OH252719   1.581   5.502  12.990  0.0374 -0.3940 -0.1593
10435TIP3    H152720   1.495   5.498  13.033 -0.1232  1.9434 -0.1404
10435TIP3    H252721   1.584   5.589  12.951  1.5286 -1.2318 -2.0915
10436TIP3   OH252722   5.177   6.314   4.877 -0.5570 -0.8429 -0.3500
10436TIP3    H152723   5.130   6.230   4.873 -0.3854 -0.9798  0.3569
10436TIP3    H252724   5.265   6.290   4.904 -0.8248 -0.3211  1.0192
10437TIP3   OH252725   2.688   3.202  11.261  0.2663 -0.1579 -0.7267
10437TIP3    H152726   2.629   3.167  11.195  0.6406 -0.2191 -1.0324
10437TIP3    H252727   2.745   3.128  11.285  0.6664  0.0754 -0.9384
10438TIP3   OH252728   5.643   6.268   0.026 -0.0465  0.8034 -0.1496
10438TIP3    H152729   5.627   6.312   0.110 -1.6848 -0.2767  0.1489
10438TIP3    H252730   5.569   6.208   0.016 -0.1929  1.2989 -2.6508
10439TIP3   OH252731   5.956   6.078   3.775  0.1393  0.1283  1.1268
10439TIP3    H152732   6.004   6.064   3.856  0.2721 -0.9023  0.8845
10439TIP3    H252733   6.014   6.131   3.721  1.9193 -2.6505  0.0881
10440TIP3   OH252734   0.136   5.221  11.577 -0.2113 -0.3746 -0.5106
10440TIP3    H152735   0.091   5.267  11.505 -2.5697 -0.9370  0.4979
10440TIP3    H252736   0.107   5.130  11.568  0.2314 -0.6333  0.5765
10441TIP3   OH252737   5.683   4.951  15.022 -0.5174 -0.1564  0.1598
10441TIP3    H152738   5.611   5.012  15.006 -0.2401  0.6782  1.8995
10441TIP3    H252739   5.642   4.865  15.021 -1.4094  0.2579  0.4220
10442TIP3   OH252740   3.143   0.331  12.657 -0.1373 -0.1355 -0.0072
10442TIP3    H152741   3.149   0.404  12.718  1.1543 -0.4179  0.2423
10442TIP3    H252742   3.234   0.313  12.632 -0.4147 -1.6511 -0.0439
10443TIP3   OH252743   4.341   5.091   2.948  0.1722  0.2147  0.7956
10443TIP3    H152744   4.322   5.183   2.926  0.8867  0.6169  1.7721
10443TIP3    H252745   4.268   5.042   2.911  0.0769  1.1146 -0.2533
10444TIP3   OH252746   5.520   6.658   4.981 -0.1987 -0.1128  0.1747
10444TIP3    H152747   5.520   6.617   5.068  1.5205 -0.2255  0.1396
10444TIP3    H252748   5.461   6.603   4.929  0.4882 -1.3729  0.6764
10445TIP3   OH252749   2.265   2.240  13.857  0.0223 -0.5623  0.8509
10445TIP3    H152750   2.183   2.193  13.842 -0.4705  0.4919  0.0186
10445TIP3    H252751   2.304   2.248  13.769  0.2785  0.2076  1.0221
10446TIP3   OH252752   3.534   5.872   0.126  0.3982  0.6595  0.2652
10446TIP3    H152753   3.628   5.876   0.143  0.4048 -0.3863  0.5604
10446TIP3    H252754   3.494   5.913   0.203  0.6093  0.9740  0.2073
10447TIP3   OH252755   0.634   4.802   0.355  0.5134 -0.2128  0.0868
10447TIP3    H152756   0.556   4.807   0.300  0.3497  1.4032  0.4033
10447TIP3    H252757   0.606   4.750   0.431 -0.4226  0.7196  0.4145
10448TIP3   OH252758   3.067   6.193   4.585 -0.0101  0.1627 -0.5119
10448TIP3    H152759   3.039   6.150   4.504  0.4824 -0.2948 -0.4504
10448TIP3    H252760   2.999   6.172   4.648  0.1753 -0.4634 -0.5086
10449TIP3   OH252761   2.491   4.417  13.159  0.0609  0.3062 -0.0362
10449TIP3    H152762   2.563   4.354  13.163 -1.2882 -1.3000 -0.1541
10449TIP3    H252763   2.459   4.423  13.249  0.4538  1.1829  0.0556
10450TIP3   OH252764   3.919   1.368  13.864  0.0259 -0.6960  0.0428
10450TIP3    H152765   3.995   1.424  13.849 -0.6562  0.3893  0.5261
10450TIP3    H252766   3.853   1.426  13.901 -0.9324 -1.6895 -0.0458
10451TIP3   OH252767   0.700   3.247   0.623  0.0448 -0.3665 -0.8286
10451TIP3    H152768   0.790   3.280   0.613  0.7937 -1.8505  0.5078
10451TIP3    H252769   0.711   3.159   0.660 -2.0035 -0.2106  0.2759
10452TIP3   OH252770   0.494   3.982  16.861  0.5840  0.0129 -0.0698
10452TIP3    H152771   0.534   3.934  16.788 -2.3025 -0.8987 -1.1910
10452TIP3    H252772   0.451   3.914  16.913 -4.2289  1.0935 -2.0888
10453TIP3   OH252773   4.519   0.280  15.408  0.2013  0.5786 -0.1557
10453TIP3    H152774   4.555   0.319  15.328  2.7586 -0.4562  0.4022
10453TIP3    H252775   4.552   0.190  15.408 -1.2283  0.0045  1.2232
10454TIP3   OH252776   1.924   0.500   5.015 -0.1061 -0.2171 -0.4766
10454TIP3    H152777   1.868   0.429   4.984 -1.4191  0.9496 -0.8682
10454TIP3    H252778   1.888   0.524   5.100 -0.2993  0.6255 -0.7909
10455TIP3   OH252779   4.601   4.730   1.927  0.4897  0.4554 -0.0364
10455TIP3    H152780   4.595   4.640   1.958  0.5118 -0.1320 -1.6268
10455TIP3    H252781   4.673   4.729   1.864  0.6390  1.6381  0.0917
10456TIP3   OH252782   3.221   0.497  11.347  0.1688 -0.1166  0.2178
10456TIP3    H152783   3.240   0.407  11.320 -0.8676 -1.1826  2.7346
10456TIP3    H252784   3.144   0.522  11.296  0.3385 -0.7021 -0.3400
10457TIP3   OH252785   0.295   0.220   5.720 -0.5347 -0.0067 -0.5057
10457TIP3    H152786   0.390   0.223   5.731 -0.4041  2.0795 -1.6926
10457TIP3    H252787   0.267   0.146   5.773  1.4408  1.0060  2.1573
10458TIP3   OH252788   5.671   5.721   0.926 -0.0476 -0.4343  0.4531
10458TIP3    H152789   5.632   5.782   0.989 -0.0611  0.1771 -0.1304
10458TIP3    H252790   5.718   5.658   0.980 -2.0191 -1.3462  1.2096
10459TIP3   OH252791   0.875   5.611   2.643  0.2979  0.2409  0.5996
10459TIP3    H152792   0.918   5.663   2.575 -1.8374  1.6190  0.2172
10459TIP3    H252793   0.929   5.624   2.721  0.3021  2.3888  0.2953
10460TIP3   OH252794   1.265   5.020   1.521 -0.0694 -0.2337  0.2814
10460TIP3    H152795   1.283   5.073   1.444 -0.4861 -1.3297 -0.5964
10460TIP3    H252796   1.352   4.999   1.556  0.1257  0.1868  0.0558
10461TIP3   OH252797   0.605   0.473  16.905  0.0111  0.1262  0.6790
10461TIP3    H152798   0.644   0.386  16.900 -0.2974 -0.0075  0.5787
10461TIP3    H252799   0.661   0.528  16.851 -0.7400 -0.3595 -0.6340
10462TIP3   OH252800   0.198   3.123   6.059 -0.1432  0.1980  0.2157
10462TIP3    H152801   0.173   3.201   6.109 -0.3478  1.7574 -2.1370
10462TIP3    H252802   0.294   3.123   6.061 -0.1195  0.9254 -0.2871
10463TIP3   OH252803   4.147   6.395  11.680  0.1984  0.3352  0.5544
10463TIP3    H152804   4.182   6.484  11.671 -1.3727  0.8120 -1.8409
10463TIP3    H252805   4.137   6.383  11.774  3.5902  1.3442  1.2029
10464TIP3   OH252806   5.257   1.745  17.200  0.1586  0.1779  0.2309
10464TIP3    H152807   5.325   1.807  17.225  0.7257 -1.2595  2.5240
10464TIP3    H252808   5.232   1.702  17.282 -0.6305 -2.2122 -1.1691
10465TIP3   OH252809   2.975   3.369   0.692 -0.3826  0.5327  0.1379
10465TIP3    H152810   2.966   3.276   0.713 -0.9875  0.6620  0.4558
10465TIP3    H252811   3.003   3.370   0.600 -0.2873  0.0353  0.1603
10466TIP3   OH252812   1.516   2.064   5.986 -0.0681  0.2649 -0.3845
10466TIP3    H152813   1.495   2.141   6.038 -0.7728 -0.5418  0.5724
10466TIP3    H252814   1.446   2.059   5.920  0.3232  0.7857 -0.8397
10467TIP3   OH252815   6.376   0.998  12.480  0.1090  0.5206 -0.3284
10467TIP3    H152816   6.406   1.047  12.556 -1.8965  0.3513  0.6159
10467TIP3    H252817   6.406   0.908  12.497 -1.6770  0.1439  1.0911
10468TIP3   OH252818   2.303   3.591   1.038 -0.0337  0.4129 -0.4711
10468TIP3    H152819   2.296   3.546   1.122 -0.0268  2.2286  0.5793
10468TIP3    H252820   2.308   3.522   0.973 -2.7500 -1.0779  0.7777
10469TIP3   OH252821   3.852   3.070   1.215  0.0942  0.4085 -0.6709
10469TIP3    H152822   3.821   3.154   1.248  3.0650  0.7142  1.8478
10469TIP3    H252823   3.825   3.006   1.282 -0.5427 -0.3553 -1.6316
10470TIP3   OH252824   0.397   1.485  11.694  0.1449 -0.7292  0.2835
10470TIP3    H152825   0.414   1.490  11.600  0.0150  0.6205  0.3192
10470TIP3    H252826   0.482   1.498  11.734 -0.2278  1.7863  0.3831
10471TIP3   OH252827   1.735   0.343  16.594  0.9148 -0.4166  0.1851
10471TIP3    H152828   1.730   0.326  16.688  0.6871  1.5208  0.5625
10471TIP3    H252829   1.796   0.276  16.561 -0.4314 -2.3237  1.3437
10472TIP3   OH252830   0.433   5.778   2.472 -0.2578 -0.8116 -0.1614
10472TIP3    H152831   0.433   5.685   2.496 -1.9691 -0.4729  1.4031
10472TIP3    H252832   0.514   5.813   2.510  1.2600 -1.9282 -2.1928
10473TIP3   OH252833   6.167   5.186   1.896 -0.2458  0.3683  0.2858
10473TIP3    H152834   6.117   5.223   1.822 -0.6608 -0.2053  0.2705
10473TIP3    H252835   6.130   5.229   1.973  0.8874  1.7503  0.1119
10474TIP3   OH252836   3.291   5.137   5.964  0.3603  0.2278 -0.3716
10474TIP3    H152837   3.273   5.068   6.028  0.2327  0.0565 -0.5892
10474TIP3    H252838   3.386   5.136   5.954  0.2812 -0.7384 -1.2650
10475TIP3   OH252839   1.568   0.960  12.693  0.1800  0.1407 -0.5000
10475TIP3    H152840   1.567   0.897  12.621  1.0307  0.8527 -1.1589
10475TIP3    H252841   1.608   1.039  12.655 -1.5947  1.3646  0.0683
10476TIP3   OH252842   2.318   6.616  12.500 -0.8122  0.2610  0.1309
10476TIP3    H152843   2.266   6.691  12.528  0.7274  1.8942 -1.1318
10476TIP3    H252844   2.325   6.627  12.405 -1.8976 -2.4270 -0.3502
10477TIP3   OH252845   0.203   3.891   4.084 -0.3628 -0.0189  0.2416
10477TIP3    H152846   0.211   3.972   4.034  0.9853 -0.5960 -0.5192
10477TIP3    H252847   0.172   3.826   4.020  0.1462 -0.4691  0.4420
10478TIP3   OH252848   6.358   2.115   1.151 -0.2404 -0.0496  0.1724
10478TIP3    H152849   6.350   2.061   1.072  2.2754 -2.0834  1.1815
10478TIP3    H252850   6.272   2.107   1.193 -1.3937  0.4881 -1.9306
10479TIP3   OH252851   3.107   1.409  12.816 -0.0798  0.1788 -0.3722
10479TIP3    H152852   3.060   1.347  12.872  0.4897  0.2699  0.2033
10479TIP3    H252853   3.060   1.404  12.732 -0.7700 -0.1508  0.0200
10480TIP3   OH252854   2.512   2.399   5.699  0.3041 -0.8202  0.4637
10480TIP3    H152855   2.420   2.372   5.702  0.1939 -0.5068 -0.0755
10480TIP3    H252856   2.510   2.494   5.704  0.6843 -0.8672  2.0290
10481TIP3   OH252857   4.210   3.757  15.376  0.3058 -0.3784 -0.3614
10481TIP3    H152858   4.229   3.683  15.319  1.1536 -1.7377  1.6033
10481TIP3    H252859   4.267   3.827  15.344 -2.0809  0.2752 -3.6521
10482TIP3   OH252860   0.752   6.153  11.197  0.4200 -0.2991  0.0925
10482TIP3    H152861   0.721   6.214  11.130  1.1395  0.1158  0.1280
10482TIP3    H252862   0.673   6.108  11.226 -0.3552  1.5322  0.9965
10483TIP3   OH252863   2.285   6.109   4.341 -0.0365  0.5972  0.1054
10483TIP3    H152864   2.332   6.085   4.261  0.2257 -1.0875  0.7335
10483TIP3    H252865   2.201   6.143   4.311  0.0035 -0.1590 -0.8879
10484TIP3   OH252866   5.523   5.727  15.979  0.3048 -0.2473  0.1093
10484TIP3    H152867   5.523   5.631  15.981  0.5408 -0.2422  0.4423
10484TIP3    H252868   5.616   5.750  15.975  0.2377 -0.0366 -0.4029
10485TIP3   OH252869   1.766   3.162  17.132  0.2309  0.2940 -0.5604
10485TIP3    H152870   1.849   3.117  17.150  0.4183  0.4481 -1.0155
10485TIP3    H252871   1.700   3.103  17.168  0.4882 -0.2477 -0.9369
10486TIP3   OH252872   6.416   0.651   0.071  0.1294 -0.1281 -0.2608
10486TIP3    H152873   6.398   0.565   0.109  2.2120 -0.3189  0.4087
10486TIP3    H252874   6.354   0.709   0.114 -1.0516 -1.2026 -0.4407
10487TIP3   OH252875   3.757   3.695   1.400  0.1792  0.3610  0.5848
10487TIP3    H152876   3.726   3.785   1.411 -0.5931  0.0822  0.7431
10487TIP3    H252877   3.849   3.704   1.374  0.8445  1.1646  2.9601
10488TIP3   OH252878   1.505   5.158  13.938 -0.4723  0.1212 -0.5052
10488TIP3    H152879   1.491   5.176  13.845 -0.2398  3.5354 -0.0340
10488TIP3    H252880   1.424   5.117  13.968 -2.0036  2.1473 -1.5896
10489TIP3   OH252881   4.772   2.733   2.071 -0.2478 -0.4909 -0.1863
10489TIP3    H152882   4.852   2.692   2.103  2.4056  3.6532 -0.6951
10489TIP3    H252883   4.771   2.715   1.977  1.7589  1.6277 -0.6926
10490TIP3   OH252884   5.927   2.978   5.934 -0.0011 -0.2174 -0.1063
10490TIP3    H152885   5.901   2.939   5.851  0.5625 -0.7051 -0.0579
10490TIP3    H252886   6.012   2.939   5.954 -0.7009 -1.0942  1.3372
10491TIP3   OH252887   6.705   6.769   4.550 -0.7264 -0.4517 -0.1875
10491TIP3    H152888   6.801   6.767   4.557 -0.7500 -0.8013  0.0795
10491TIP3    H252889   6.686   6.856   4.514 -0.2771 -0.6173 -0.8318
10492TIP3   OH252890   3.393   2.947   2.857  0.4130 -0.2431 -0.1549
10492TIP3    H152891   3.479   2.985   2.839  0.2429  2.1360  3.1100
10492TIP3    H252892   3.395   2.928   2.951 -2.2184 -1.2996 -0.2367
10493TIP3   OH252893   2.012   1.252   4.825  0.3775  0.3445  0.0679
10493TIP3    H152894   1.970   1.243   4.910  0.4334 -0.9360 -0.0187
10493TIP3    H252895   1.949   1.214   4.763 -0.3572  2.6692 -0.7097
10494TIP3   OH252896   1.891   6.285  13.128 -0.7438 -0.4742  0.0258
10494TIP3    H152897   1.819   6.294  13.190 -0.6902 -1.4164  0.2334
10494TIP3    H252898   1.949   6.359  13.147 -1.2141 -0.2124  0.4478
10495TIP3   OH252899   6.555   0.855  14.509 -0.0278 -0.0658  0.5518
10495TIP3    H152900   6.485   0.790  14.504  0.9483 -1.0909  0.0237
10495TIP3    H252901   6.593   0.857  14.421  2.7405 -1.9526  1.5637
10496TIP3   OH252902   0.087   0.810   5.553  0.2742 -0.2606 -0.2148
10496TIP3    H152903   0.107   0.902   5.566 -0.8985 -0.1833  1.3226
10496TIP3    H252904   0.001   0.798   5.592  0.9234 -2.2505  0.7882
10497TIP3   OH252905   1.698   0.748  14.573  0.0043  0.3757 -0.1518
10497TIP3    H152906   1.725   0.682  14.637 -1.0593 -0.2383 -0.3059
10497TIP3    H252907   1.624   0.708  14.528 -0.7271  1.7205 -0.1797
10498TIP3   OH252908   5.383   6.030   5.589 -0.3138  0.2370 -0.5294
10498TIP3    H152909   5.459   6.007   5.536 -0.1158  1.1759 -0.6762
10498TIP3    H252910   5.391   5.976   5.668  0.5804  0.4159 -0.4888
10499TIP3   OH252911   2.608   0.846   4.076  0.0220  0.0567 -0.6288
10499TIP3    H152912   2.530   0.816   4.123 -0.2694 -0.3415 -1.3440
10499TIP3    H252913   2.612   0.790   3.998  0.1728  1.0642 -1.3655
10500TIP3   OH252914   1.398   5.414   4.298 -0.6634  0.6228 -0.1456
10500TIP3    H152915   1.483   5.370   4.307 -0.8568  0.4543  1.1423
10500TIP3    H252916   1.411   5.478   4.228  0.2975  0.0673 -0.4912
10501TIP3   OH252917   6.698   3.544  12.358  0.2954  0.0928  0.5876
10501TIP3    H152918   6.693   3.449  12.351 -0.4415 -0.1760  3.4155
10501TIP3    H252919   6.607   3.573  12.352  0.6269  0.8519 -1.8180
10502TIP3   OH252920   3.896   4.435   6.322  0.0894 -0.7100 -0.1301
10502TIP3    H152921   3.849   4.458   6.402 -0.7819  2.5485 -1.4358
10502TIP3    H252922   3.834   4.379   6.274 -0.6904 -0.0664  0.0984
10503TIP3   OH252923   0.235   6.209   5.953 -0.1520  0.2006  0.2199
10503TIP3    H152924   0.286   6.145   6.001 -0.7030 -0.7846 -0.4695
10503TIP3    H252925   0.294   6.283   5.939  1.0327 -0.8566 -0.4473
10504TIP3   OH252926   6.686   6.489  12.676  0.0313  0.1080 -0.2464
10504TIP3    H152927   6.641   6.550  12.617  2.1326  0.1626 -1.8679
10504TIP3    H252928   6.752   6.543  12.720  1.2760 -0.7666 -0.9902
10505TIP3   OH252929   1.884   5.516   1.232 -0.0811  0.3279 -0.7675
10505TIP3    H152930   1.833   5.442   1.198  1.7253 -1.0145 -0.7106
10505TIP3    H252931   1.971   5.480   1.246  0.4824  2.1327  0.6711
10506TIP3   OH252932   6.366   3.969  12.048  0.2537 -0.1966  0.5151
10506TIP3    H152933   6.304   4.029  12.090 -0.3409 -0.7325  0.4158
10506TIP3    H252934   6.311   3.904  12.006  0.8769 -0.3494 -0.0770
10507TIP3   OH252935   3.637   0.061  14.205  0.5200  0.4363  0.0248
10507TIP3    H152936   3.620   0.057  14.299  0.5840  1.0352  0.0686
10507TIP3    H252937   3.643  -0.030  14.177  3.8629  0.1662  1.1767
10508TIP3   OH252938   5.100   3.724  16.153 -0.1000 -0.6690 -0.8886
10508TIP3    H152939   5.021   3.745  16.105 -0.3899  0.9098  0.2062
10508TIP3    H252940   5.077   3.736  16.245  1.8641  1.6620 -0.6152
10509TIP3   OH252941   3.614   1.721  15.231 -0.4039  0.2358 -0.1848
10509TIP3    H152942   3.561   1.800  15.230  0.7565  1.0745 -2.1961
10509TIP3    H252943   3.702   1.751  15.208 -0.1592 -1.7488 -2.1666
10510TIP3   OH252944   1.535   0.092  12.579  0.3673  0.4052 -0.3172
10510TIP3    H152945   1.499   0.047  12.655  0.0954  0.1380 -0.6043
10510TIP3    H252946   1.629   0.100  12.598  0.0973  1.5928  0.6823
10511TIP3   OH252947   1.739   4.408  13.608 -0.1697  0.3417  0.3746
10511TIP3    H152948   1.736   4.495  13.649 -0.6264  0.8355 -0.6737
10511TIP3    H252949   1.719   4.424  13.516  0.6780 -0.7698 -0.0182
10512TIP3   OH252950   4.954   5.643   2.355 -0.0989  0.4490  0.8071
10512TIP3    H152951   4.874   5.607   2.319  0.0392  0.5233  0.4189
10512TIP3    H252952   4.945   5.738   2.344  0.2247  0.4361  0.3531
10513TIP3   OH252953   5.623   2.967   3.562 -0.0243  0.4686 -0.2833
10513TIP3    H152954   5.595   2.977   3.653  0.2314  1.4249 -0.3067
10513TIP3    H252955   5.646   3.055   3.533 -0.6584  0.2653 -1.4629
10514TIP3   OH252956   2.593   6.394   4.446  0.0049  0.8851  0.3791
10514TIP3    H152957   2.603   6.448   4.524  0.7204  0.9711  0.2298
10514TIP3    H252958   2.583   6.457   4.374  0.7944  0.8251  0.2108
10515TIP3   OH252959   5.245   6.401  12.747  0.5933  0.3730 -0.5563
10515TIP3    H152960   5.265   6.369  12.835 -0.9366 -0.0831 -0.3396
10515TIP3    H252961   5.305   6.355  12.689 -1.2482 -2.7135 -0.2198
10516TIP3   OH252962   5.608   0.713   0.058  0.2196 -0.7143 -0.6127
10516TIP3    H152963   5.537   0.654   0.032 -0.4909  0.0089 -0.3695
10516TIP3    H252964   5.604   0.785  -0.006  0.5055 -0.4992 -0.3911
10517TIP3   OH252965   6.305   0.072   4.141 -0.2910  0.0814  0.0930
10517TIP3    H152966   6.324   0.149   4.088  0.1521 -0.6460 -0.8371
10517TIP3    H252967   6.213   0.082   4.166 -0.5314  0.4071 -0.8798
10518TIP3   OH252968   4.274   0.598   2.081 -0.0415 -0.1829 -0.0627
10518TIP3    H152969   4.224   0.520   2.056 -0.4431 -0.2360  0.8638
10518TIP3    H252970   4.283   0.648   2.000 -0.0845 -1.0161 -0.5974
10519TIP3   OH252971   2.033   2.327  13.274 -0.3591 -0.6560  0.1763
10519TIP3    H152972   2.044   2.420  13.294  0.7299 -0.3464 -1.6424
10519TIP3    H252973   2.119   2.289  13.292 -0.0762 -0.8146 -1.3620
10520TIP3   OH252974   4.530   6.062   1.125 -0.3605 -0.1848  0.1169
10520TIP3    H152975   4.608   6.081   1.074 -1.0979 -1.2460 -1.5377
10520TIP3    H252976   4.536   5.968   1.143 -1.0559 -0.1976  0.3105
10521TIP3   OH252977   0.726   5.847  14.203  0.0142  0.0943  0.4668
10521TIP3    H152978   0.677   5.796  14.138  0.1233 -1.2843  1.4289
10521TIP3    H252979   0.815   5.812  14.198 -0.0828 -0.3633  1.6593
10522TIP3   OH252980   0.738   4.304  10.968 -0.4599  0.5323  0.4478
10522TIP3    H152981   0.766   4.318  11.059  1.6448 -0.5883  0.0313
10522TIP3    H252982   0.648   4.274  10.976 -0.5893  1.2286  2.1090
10523TIP3   OH252983   0.424   1.708  13.037 -0.3440 -0.1448  0.4322
10523TIP3    H152984   0.349   1.676  13.086 -0.4007 -0.8657 -0.0982
10523TIP3    H252985   0.499   1.695  13.095 -0.7645  1.6793  1.4210
10524TIP3   OH252986   5.233   0.662  11.674 -0.6057  0.0852 -0.6184
10524TIP3    H152987   5.272   0.749  11.664 -0.8279  0.0757 -1.6590
10524TIP3    H252988   5.141   0.674  11.649 -0.7535 -0.3499 -0.2961
10525TIP3   OH252989   6.437   4.311  15.575 -0.3440  0.3348  0.6875
10525TIP3    H152990   6.530   4.333  15.588 -0.0670 -1.1108  1.4567
10525TIP3    H252991   6.434   4.215  15.583 -1.9588  0.3823  1.0313
10526TIP3   OH252992   1.831   4.037  15.493 -0.1967  0.2985  0.1645
10526TIP3    H152993   1.919   4.032  15.529  0.7463 -1.4490 -2.1281
10526TIP3    H252994   1.842   4.079  15.407 -1.1076 -2.1706 -1.2684
10527TIP3   OH252995   5.404   0.441  14.642 -0.2422 -0.2361  0.2493
10527TIP3    H152996   5.496   0.419  14.656 -0.1466  0.4372  0.7311
10527TIP3    H252997   5.367   0.449  14.730 -0.6909 -0.2242  0.0648
10528TIP3   OH252998   1.445   1.408   1.004 -0.0714  0.2470 -0.4956
10528TIP3    H152999   1.433   1.497   0.970 -0.3564 -0.4658 -2.4082
10528TIP3    H253000   1.500   1.419   1.082 -2.6940  2.3957  1.2293
10529TIP3   OH253001   0.832   1.248  16.014 -0.1479 -0.1248  0.1563
10529TIP3    H153002   0.844   1.166  16.061 -1.1468  0.4961  1.5439
10529TIP3    H253003   0.871   1.231  15.927 -2.6905 -2.9651 -0.6102
10530TIP3   OH253004   6.744   1.376  14.714  0.6075  0.3643 -0.0865
10530TIP3    H153005   6.793   1.403  14.792 -0.1841  1.5167  0.0307
10530TIP3    H253006   6.799   1.404  14.641 -0.0022  2.0206  0.0390
10531TIP3   OH253007   1.680   2.001   3.489 -0.4961 -0.6598  0.2543
10531TIP3    H153008   1.655   1.943   3.561 -0.6016 -0.4257  0.4049
10531TIP3    H253009   1.654   1.953   3.410 -0.2911 -0.9590  0.3670
10532TIP3   OH253010   2.515   2.655  15.415 -0.0692  0.5966 -0.5405
10532TIP3    H153011   2.492   2.587  15.479 -1.3023  1.6774  0.2083
10532TIP3    H253012   2.603   2.682  15.439 -0.2368  0.4679  0.2237
10533TIP3   OH253013   0.974   1.953  12.791  0.0645  0.6476 -0.5556
10533TIP3    H153014   0.888   1.928  12.827 -0.1305  1.5838 -0.3297
10533TIP3    H253015   1.024   1.982  12.867  0.6135  0.0398 -0.6792
10534TIP3   OH253016   6.302   2.847   0.762 -0.0680  0.1539  0.2270
10534TIP3    H153017   6.369   2.819   0.699  0.4597  1.4199  0.1754
10534TIP3    H253018   6.257   2.919   0.717 -0.4159  0.3389  0.8624
10535TIP3   OH253019   4.825   4.916   5.808  0.3052  0.5236  0.2516
10535TIP3    H153020   4.741   4.931   5.851  1.3148  0.1160  2.4991
10535TIP3    H253021   4.851   5.003   5.777 -0.9895  0.6247 -0.6385
10536TIP3   OH253022   3.060   2.721   3.115 -0.3614 -0.0213  0.2651
10536TIP3    H153023   3.011   2.706   3.034 -0.1298  0.4958  0.0246
10536TIP3    H253024   3.012   2.671   3.181  0.0576 -1.3277 -0.3910
10537TIP3   OH253025   4.434   3.718   0.375 -0.5759 -0.1564 -0.0033
10537TIP3    H153026   4.406   3.693   0.463  0.2466  1.7271  0.8477
10537TIP3    H253027   4.498   3.787   0.389 -1.5259  1.2577 -2.1341
10538TIP3   OH253028   1.482   3.346   2.198  0.0199 -0.9890  0.8338
10538TIP3    H153029   1.437   3.265   2.221  0.4889 -0.9960  1.7633
10538TIP3    H253030   1.467   3.404   2.273  0.3169 -0.4816  0.5061
10539TIP3   OH253031   6.017   1.437   3.978  0.5867 -1.0967 -0.1100
10539TIP3    H153032   6.030   1.379   4.053  2.2906 -0.8332 -0.1697
10539TIP3    H253033   6.015   1.525   4.016 -0.9596 -1.0794 -0.1408
10540TIP3   OH253034   5.391   6.616   0.612 -0.7638  0.4303 -0.1882
10540TIP3    H153035   5.345   6.559   0.551 -1.2377 -0.8754  1.3093
10540TIP3    H253036   5.468   6.565   0.638  0.0373  1.4381 -0.5378
10541TIP3   OH253037   1.276   3.452   5.255  1.0844  0.0814 -0.4980
10541TIP3    H153038   1.340   3.417   5.193  2.8589  1.5962  0.3520
10541TIP3    H253039   1.273   3.387   5.325 -0.0054 -1.0449 -1.5429
10542TIP3   OH253040   2.126   3.556  15.344 -0.5481 -0.2757 -0.2322
10542TIP3    H153041   2.098   3.595  15.261  1.7773 -1.5022 -1.7024
10542TIP3    H253042   2.207   3.601  15.366 -0.6481 -0.6129  0.8894
10543TIP3   OH253043   5.069   4.806   2.818 -0.0850 -0.7392  0.5280
10543TIP3    H153044   5.164   4.803   2.815 -0.0762 -2.5144  1.2480
10543TIP3    H253045   5.042   4.811   2.726  0.6681  1.9915  0.3598
10544TIP3   OH253046   0.247   5.206   5.612  0.2320 -0.1083 -0.2872
10544TIP3    H153047   0.226   5.137   5.674  0.9811 -2.2954 -2.3385
10544TIP3    H253048   0.336   5.187   5.583 -0.2380  0.5698 -2.3411
10545TIP3   OH253049   5.102   1.078   1.292 -0.8354  0.4232 -0.0290
10545TIP3    H153050   5.140   1.107   1.375  0.7726  1.5930 -1.1080
10545TIP3    H253051   5.174   1.033   1.248 -1.7777 -0.4955 -0.6575
10546TIP3   OH253052   6.380   2.071  14.552  0.3663  0.3718 -0.7638
10546TIP3    H153053   6.313   2.121  14.505 -0.2818 -0.5171 -0.8271
10546TIP3    H253054   6.354   1.979  14.539 -0.3984  0.0770  2.0471
10547TIP3   OH253055   3.510   6.290   3.192 -0.0225  0.2223 -0.3170
10547TIP3    H153056   3.584   6.258   3.141 -0.3499 -0.2420 -0.5055
10547TIP3    H253057   3.506   6.232   3.268  0.9793  1.4146  0.7036
10548TIP3   OH253058   3.654   0.019  17.126 -0.2019 -0.4574  0.9508
10548TIP3    H153059   3.715   0.093  17.118 -1.4219  0.6104  1.2782
10548TIP3    H253060   3.628   0.020  17.219 -1.4717 -0.2693  0.6058
10549TIP3   OH253061   3.823   4.966  16.709  0.3864  0.8403 -0.4573
10549TIP3    H153062   3.729   4.959  16.725  0.2756  0.7398 -1.1361
10549TIP3    H253063   3.859   4.997  16.792 -0.0927 -0.2211  0.1646
10550TIP3   OH253064   0.171   0.234   5.099  0.5092 -0.0619  0.4025
10550TIP3    H153065   0.133   0.241   5.186  1.1096  0.3144  0.6421
10550TIP3    H253066   0.154   0.320   5.059  0.4372 -0.1555  0.2295
10551TIP3   OH253067   0.152   4.023  15.777 -0.4472 -0.9392 -0.3638
10551TIP3    H153068   0.215   4.086  15.813 -1.3668  0.4357 -1.0627
10551TIP3    H253069   0.171   4.023  15.683 -3.8786  2.5831 -1.3446
10552TIP3   OH253070   1.052   1.167   6.056  0.4966 -0.1487 -0.0811
10552TIP3    H153071   1.049   1.079   6.094 -0.7311 -0.4453 -0.8244
10552TIP3    H253072   0.961   1.192   6.043  0.8382  0.8802 -0.6987
10553TIP3   OH253073   3.754   2.293   6.118 -0.1986  0.3626 -0.0606
10553TIP3    H153074   3.732   2.302   6.211  1.3528  1.0026  0.2698
10553TIP3    H253075   3.783   2.203   6.109 -0.7269  0.1818 -0.0222
10554TIP3   OH253076   4.624   0.818  17.193 -0.1809 -0.0852  0.3258
10554TIP3    H153077   4.649   0.828  17.101 -0.3829 -1.5476  0.0836
10554TIP3    H253078   4.662   0.894  17.237  0.9244  0.0253 -0.7658
10555TIP3   OH253079   2.064   1.478   3.498 -0.2033  0.0361  0.1688
10555TIP3    H153080   2.134   1.529   3.540 -0.8719  1.6042 -0.5734
10555TIP3    H253081   2.099   1.457   3.411  0.1871 -1.0719  0.5740
10556TIP3   OH253082   4.081   1.584   1.181  0.4389  0.3666  0.3231
10556TIP3    H153083   4.023   1.545   1.247  1.2657  2.2487  2.2646
10556TIP3    H253084   4.120   1.508   1.137 -1.0884 -0.9571  1.1234
10557TIP3   OH253085   0.241   1.496  15.562  0.8957 -0.0526  0.3622
10557TIP3    H153086   0.326   1.467  15.530  0.9373  1.6139 -1.2304
10557TIP3    H253087   0.224   1.441  15.639  1.4518 -3.3388 -1.6788
10558TIP3   OH253088   3.436   3.252   1.771 -0.3820 -0.4592 -0.7165
10558TIP3    H153089   3.396   3.172   1.804 -1.5378  1.1276  2.0502
10558TIP3    H253090   3.528   3.245   1.797 -0.2776 -1.2284 -1.2550
10559TIP3   OH253091   2.069   4.248   1.427  0.2419 -0.0513  0.1258
10559TIP3    H153092   1.997   4.197   1.390  0.2677 -1.3669  1.7672
10559TIP3    H253093   2.081   4.321   1.366 -0.7351 -1.2341 -1.5754
10560TIP3   OH253094   2.080   0.696   2.112  0.6475 -0.3654  0.3005
10560TIP3    H153095   2.030   0.642   2.051 -1.6711  0.5764  1.2165
10560TIP3    H253096   2.066   0.786   2.081  1.4217 -0.0492  0.8464
10561TIP3   OH253097   2.830   5.421  16.732 -0.1664  0.1451  0.1569
10561TIP3    H153098   2.860   5.442  16.644  0.6274  0.5826  0.5236
10561TIP3    H253099   2.739   5.392  16.720  0.0968 -0.3136 -0.8612
10562TIP3   OH253100   6.615   1.628   0.602  0.0845 -0.0362 -0.2928
10562TIP3    H153101   6.631   1.563   0.534 -2.4543  0.9403 -2.0178
10562TIP3    H253102   6.545   1.590   0.655  0.3099  0.2650  0.2259
10563TIP3   OH253103   2.447   5.941  13.119 -0.1906  0.7702 -0.0106
10563TIP3    H153104   2.436   6.034  13.098 -0.4490  0.9260  0.7816
10563TIP3    H253105   2.383   5.924  13.188  0.7114  0.3100  0.7348
10564TIP3   OH253106   5.187   2.438  13.617  0.0429  0.6695 -0.5174
10564TIP3    H153107   5.283   2.430  13.613 -0.0979 -1.3027 -0.7062
10564TIP3    H253108   5.155   2.378  13.550 -1.3398  1.7041 -0.8324
10565TIP3   OH253109   3.962   3.491  14.210  0.7889 -0.5513  0.4092
10565TIP3    H153110   3.873   3.516  14.233  0.1258 -1.5949 -0.9068
10565TIP3    H253111   4.013   3.508  14.290 -0.8098 -1.0927  1.5985
10566TIP3   OH253112   2.641   2.470  12.249  0.3600 -0.1327  0.2897
10566TIP3    H153113   2.584   2.467  12.172  1.4679 -0.6776 -0.5403
10566TIP3    H253114   2.716   2.415  12.225  0.5183 -0.6922  1.9388
10567TIP3   OH253115   0.410   6.092   1.682 -0.3298  0.1360 -0.4547
10567TIP3    H153116   0.320   6.080   1.651  0.3030  0.2075 -2.4046
10567TIP3    H253117   0.433   6.181   1.657  0.3663  0.0520 -0.1419
10568TIP3   OH253118   1.199   0.060  15.431 -0.6424 -0.6698  0.2615
10568TIP3    H153119   1.245   0.143  15.414 -1.6396 -0.0563  0.4555
10568TIP3    H253120   1.256  -0.007  15.394  1.1577 -0.0877  1.8177
10569TIP3   OH253121   1.491   1.174  15.355  0.3349 -0.5597 -0.4605
10569TIP3    H153122   1.446   1.180  15.270  1.3002 -0.5709 -0.9785
10569TIP3    H253123   1.547   1.097  15.347 -1.3279 -2.0335  1.0663
10570TIP3   OH253124   0.306   4.515  12.242 -0.3323  0.3958  0.7633
10570TIP3    H153125   0.321   4.574  12.316  0.7334  1.0625  0.0476
10570TIP3    H253126   0.390   4.511  12.197 -0.8442 -0.3494 -0.1644
10571TIP3   OH253127   3.556   2.026  15.530  0.4044 -0.5242  0.1712
10571TIP3    H153128   3.499   1.997  15.459  1.5649  0.6467 -1.3155
10571TIP3    H253129   3.611   2.093  15.490  0.3479  1.0103  2.4638
10572TIP3   OH253130   2.834   3.171   1.516 -0.1906  0.0980 -0.5420
10572TIP3    H153131   2.815   3.223   1.438  1.0487  0.0883 -0.8806
10572TIP3    H253132   2.928   3.186   1.532 -0.1318 -0.9363  0.1701
10573TIP3   OH253133   4.734   1.144   2.919 -0.1463  0.5338 -0.0485
10573TIP3    H153134   4.826   1.171   2.925 -0.0088 -0.0272  0.4847
10573TIP3    H253135   4.738   1.051   2.896 -0.5432  0.1023  1.5041
10574TIP3   OH253136   0.120   4.730   1.909 -0.1328  0.3689 -0.4939
10574TIP3    H153137   0.025   4.739   1.894 -0.2857 -1.8394 -1.1531
10574TIP3    H253138   0.137   4.784   1.986 -1.8085  1.3343 -0.7445
10575TIP3   OH253139   2.236   4.940  13.425 -0.4295 -0.1802  0.3096
10575TIP3    H153140   2.223   4.846  13.436  1.3844 -0.5472 -0.2337
10575TIP3    H253141   2.215   4.956  13.333 -1.7107  0.1570  0.6461
10576TIP3   OH253142   2.870   6.779  17.203  0.3173  0.1339  0.4734
10576TIP3    H153143   2.846   6.825  17.284  0.8051 -1.7051  1.7225
10576TIP3    H253144   2.927   6.841  17.157 -1.3880  1.9231  0.6418
10577TIP3   OH253145   4.125   5.326  12.045 -0.4617  0.4356  0.3531
10577TIP3    H153146   4.204   5.320  12.100  1.0027 -0.6553 -1.7426
10577TIP3    H253147   4.134   5.410  12.000  0.1322 -0.1979 -0.7408
10578TIP3   OH253148   2.582   1.420  16.696 -0.8510 -0.0571 -1.0680
10578TIP3    H153149   2.601   1.480  16.768  2.5889 -0.5975 -1.3623
10578TIP3    H253150   2.569   1.335  16.738 -0.8188 -0.0048 -0.9521
10579TIP3   OH253151   0.282   3.310   4.732 -0.6548  0.1284 -0.5346
10579TIP3    H153152   0.264   3.379   4.667 -2.5925 -0.3718 -0.5841
10579TIP3    H253153   0.304   3.358   4.812  1.7698  0.7531 -1.4921
10580TIP3   OH253154   4.306   6.250  16.721  0.1726 -0.0146  0.2655
10580TIP3    H153155   4.239   6.185  16.742 -0.5514  0.5212 -0.3335
10580TIP3    H253156   4.371   6.241  16.791  0.5688 -2.0080 -0.2926
10581TIP3   OH253157   5.936   3.527   0.332  0.4063 -0.0170  0.4837
10581TIP3    H153158   5.852   3.538   0.288 -0.1319  1.6518  1.8049
10581TIP3    H253159   5.983   3.463   0.278 -0.8996  0.5328 -1.4252
10582TIP3   OH253160   6.556   3.171   4.393 -0.1131  0.4079 -0.1560
10582TIP3    H153161   6.519   3.257   4.414 -1.1053 -0.6203  2.7774
10582TIP3    H253162   6.645   3.174   4.427 -0.3103  0.1468  0.4006
10583TIP3   OH253163   6.212   3.731   4.624 -0.0632  0.3835  0.2321
10583TIP3    H153164   6.184   3.654   4.573 -2.1297  0.4328  1.2075
10583TIP3    H253165   6.157   3.730   4.702  0.3652  2.4670  0.6213
10584TIP3   OH253166   4.468   2.920  16.398  0.1757  0.2856 -0.4815
10584TIP3    H153167   4.377   2.915  16.426 -0.1387 -0.0248 -1.5278
10584TIP3    H253168   4.488   2.832  16.366  1.1923  0.0338  0.7473
10585TIP3   OH253169   0.764   5.701   5.493 -0.3907  0.3005 -0.4707
10585TIP3    H153170   0.766   5.660   5.407  2.7833  0.3510 -0.5566
10585TIP3    H253171   0.725   5.635   5.550 -1.1883 -0.3055 -1.6672
10586TIP3   OH253172   1.295   3.286  12.541 -0.2155 -0.4472  0.2260
10586TIP3    H153173   1.376   3.306  12.495 -0.6857  1.4799  0.1390
10586TIP3    H253174   1.226   3.300  12.475 -0.7078 -0.3871  0.7461
10587TIP3   OH253175   3.825   4.038   1.955 -0.6116 -0.0098 -0.7291
10587TIP3    H153176   3.824   4.041   2.051  0.1074  2.7911 -0.7084
10587TIP3    H253177   3.781   4.119   1.928 -0.3776 -0.5103 -2.7521
10588TIP3   OH253178   1.779   3.785   3.127 -0.5475 -0.2568 -0.0711
10588TIP3    H153179   1.873   3.791   3.113 -0.3447 -1.8862  0.2730
10588TIP3    H253180   1.767   3.807   3.220 -0.3459 -1.1238  0.1701
10589TIP3   OH253181   2.456   1.791  14.438 -0.2144  0.2192 -0.0131
10589TIP3    H153182   2.519   1.856  14.407 -1.0783  1.8656  1.5115
10589TIP3    H253183   2.380   1.801  14.382  0.5326 -1.2699 -1.3843
10590TIP3   OH253184   5.429   1.189  14.374 -0.6319  0.9289 -0.1669
10590TIP3    H153185   5.368   1.133  14.422  0.2208  0.3421  0.2689
10590TIP3    H253186   5.374   1.256  14.334 -1.9209 -1.1106 -2.0519
10591TIP3   OH253187   6.726   6.074  16.763  0.1030 -0.5466  0.7181
10591TIP3    H153188   6.728   6.095  16.669  0.3645  1.7553  1.1759
10591TIP3    H253189   6.797   6.010  16.774  0.7919 -0.0406 -0.5000
10592TIP3   OH253190   2.930   0.038   4.349 -0.1382 -0.3237  0.5257
10592TIP3    H153191   2.918   0.060   4.441 -0.4908  1.5761  0.0786
10592TIP3    H253192   2.846   0.062   4.308  0.1610 -0.7313 -0.3578
10593TIP3   OH253193   4.276   1.551  11.304 -0.0327  0.1036 -0.3414
10593TIP3    H153194   4.332   1.477  11.326 -0.1123  0.8722  2.9657
10593TIP3    H253195   4.334   1.612  11.257  1.3204 -0.0822  1.0314
10594TIP3   OH253196   1.812   1.348   3.974  0.5935  0.0894  0.1691
10594TIP3    H153197   1.842   1.283   3.911 -0.4715 -0.3149  0.0564
10594TIP3    H253198   1.724   1.319   3.998  0.6836  0.6703  1.2484
10595TIP3   OH253199   3.201   4.552   2.525  0.0551  0.2245 -0.0685
10595TIP3    H153200   3.182   4.496   2.450 -2.5607 -0.6519  1.1293
10595TIP3    H253201   3.228   4.635   2.486 -2.2915  0.1817 -2.0761
10596TIP3   OH253202   1.288   3.162  11.140 -0.4848  0.5514 -0.1512
10596TIP3    H153203   1.204   3.135  11.105  0.6015 -1.3287 -1.4971
10596TIP3    H253204   1.279   3.256  11.154 -2.3453  0.6472 -1.5840
10597TIP3   OH253205   2.691   2.142   2.685 -0.1783  0.7958 -0.2049
10597TIP3    H153206   2.658   2.124   2.596 -0.5762  0.5207 -0.0093
10597TIP3    H253207   2.611   2.153   2.737 -0.0335  4.3369 -0.4891
10598TIP3   OH253208   3.331   0.492   5.992 -0.2566  0.0266 -0.2717
10598TIP3    H153209   3.321   0.585   5.971  1.0640  0.2271 -0.1171
10598TIP3    H253210   3.346   0.450   5.908  1.2977  0.2906 -0.1610
10599TIP3   OH253211   3.097   1.708  11.601  0.1851 -0.0374  0.0320
10599TIP3    H153212   3.115   1.720  11.694 -1.0924 -0.4015  0.3439
10599TIP3    H253213   3.002   1.721  11.593  0.1026 -1.1163 -1.0245
10600TIP3   OH253214   1.962   1.933   2.420  0.4799 -0.0297  0.2260
10600TIP3    H153215   2.034   1.991   2.395  0.7836  0.1370  1.3937
10600TIP3    H253216   1.974   1.855   2.366  0.7186  0.5479 -0.5733
10601TIP3   OH253217   6.666   4.287   6.488 -0.0692  0.4578 -0.6376
10601TIP3    H153218   6.580   4.307   6.524  0.9085 -0.1289  2.2744
10601TIP3    H253219   6.698   4.370   6.454 -0.9814  1.1278  0.0856
10602TIP3   OH253220   2.538   1.918  11.425  0.3084 -0.0335 -0.7033
10602TIP3    H153221   2.491   1.995  11.393  1.8460  0.8675 -0.9037
10602TIP3    H253222   2.501   1.845  11.375 -1.6910  0.4392  0.0207
10603TIP3   OH253223   6.235   0.269  10.533  0.0972 -0.1309  0.8933
10603TIP3    H153224   6.326   0.280  10.504 -0.4005  0.8288 -0.4106
10603TIP3    H253225   6.197   0.357  10.526 -0.5928 -0.2317  2.7348
10604TIP3   OH253226   5.593   4.201   4.224 -0.9128  0.4792  0.0494
10604TIP3    H153227   5.688   4.200   4.213 -0.6969  2.6058  1.2685
10604TIP3    H253228   5.573   4.119   4.269  0.5063  0.5583  0.8686
10605TIP3   OH253229   1.687   0.834   4.402  0.0582  0.3316 -0.5525
10605TIP3    H153230   1.664   0.900   4.336  2.2748  1.7015 -0.0824
10605TIP3    H253231   1.624   0.846   4.472 -0.2656  1.2059 -0.9751
10606TIP3   OH253232   4.668   2.181  13.917  0.6453 -0.4675  0.7279
10606TIP3    H153233   4.698   2.113  13.978  0.4425  0.1151  1.4953
10606TIP3    H253234   4.742   2.241  13.912  1.3346 -1.3909 -0.9731
10607TIP3   OH253235   2.217   3.431  14.722 -0.1822  0.0982  0.7969
10607TIP3    H153236   2.223   3.519  14.686 -1.3470  0.0034  0.3325
10607TIP3    H253237   2.146   3.436  14.785 -0.4665 -0.5861  0.5387
10608TIP3   OH253238   4.745   4.745  10.768 -0.0018 -0.0758  0.6173
10608TIP3    H153239   4.830   4.703  10.757  0.1304  0.0364  1.1998
10608TIP3    H253240   4.682   4.683  10.731  0.3037 -0.2812  0.4421
10609TIP3   OH253241   5.502   1.098  10.355 -0.0660 -0.0417 -0.3132
10609TIP3    H153242   5.423   1.047  10.376 -0.1203  0.1463 -0.0516
10609TIP3    H253243   5.574   1.037  10.373 -0.0278  0.5689  1.9419
10610TIP3   OH253244   4.365   1.073   4.886 -0.3731 -0.1641  0.1728
10610TIP3    H153245   4.376   1.073   4.981  0.0616  1.9440  0.1779
10610TIP3    H253246   4.366   1.166   4.862 -0.6167 -0.6439 -1.8861
10611TIP3   OH253247   0.543   6.258   5.271 -0.1471  0.0727 -0.0616
10611TIP3    H153248   0.579   6.190   5.215  1.1443  0.6077  0.1017
10611TIP3    H253249   0.485   6.211   5.332 -1.4264 -0.5384 -1.6651
10612TIP3   OH253250   3.239   0.653   1.488  0.1057 -0.7806 -0.0739
10612TIP3    H153251   3.297   0.577   1.486  2.5661  0.9607 -0.7985
10612TIP3    H253252   3.286   0.719   1.437 -1.8261  1.2970  0.6884
10613TIP3   OH253253   4.527   3.741  12.929 -0.2337 -0.0855 -0.5317
10613TIP3    H153254   4.579   3.681  12.981 -0.5919  0.7714  0.8855
10613TIP3    H253255   4.559   3.828  12.953  0.7245  0.3334 -3.0084
10614TIP3   OH253256   2.680   2.508   2.073  0.3683 -0.4988  0.6422
10614TIP3    H153257   2.586   2.527   2.077  0.5941  0.6061  1.0604
10614TIP3    H253258   2.696   2.487   1.981 -0.1127  0.3560  0.3480
10615TIP3   OH253259   6.513   5.222  13.138  0.4967  0.2872  0.4009
10615TIP3    H153260   6.541   5.138  13.101  1.0766  0.2483  0.9032
10615TIP3    H253261   6.462   5.198  13.216 -0.0290  0.3855  0.0903
10616TIP3   OH253262   0.815   1.026   3.582 -0.2172  0.2715  0.0298
10616TIP3    H153263   0.750   1.095   3.595 -0.6084 -0.0825  0.0085
10616TIP3    H253264   0.874   1.060   3.515  0.6192  1.2866  1.2398
10617TIP3   OH253265   6.253   5.299  13.590  0.5959 -0.2090  0.3534
10617TIP3    H153266   6.207   5.372  13.549 -0.4272 -0.7886  0.4212
10617TIP3    H253267   6.234   5.309  13.684  0.2705 -0.6664  0.3412
10618TIP3   OH253268   0.566   3.297  11.207  0.6750 -0.0060 -0.2894
10618TIP3    H153269   0.489   3.250  11.175 -1.0019  1.6208  1.1403
10618TIP3    H253270   0.633   3.281  11.140  0.2441 -4.2536  0.0452
10619TIP3   OH253271   2.655   0.126  16.846  0.1385  0.0825 -0.0437
10619TIP3    H153272   2.725   0.100  16.787 -0.3709 -0.2314 -0.5222
10619TIP3    H253273   2.684   0.209  16.883  0.3252  0.4397 -0.9725
10620TIP3   OH253274   4.198   5.862   4.684 -0.2550  0.0963  0.2963
10620TIP3    H153275   4.130   5.805   4.647  0.2186  0.6580 -1.5489
10620TIP3    H253276   4.280   5.817   4.666  0.0258  0.6308  0.2213
10621TIP3   OH253277   3.470   0.100  12.564 -0.1659  0.5347 -0.1413
10621TIP3    H153278   3.546   0.156  12.553 -0.6471  1.1670 -0.2941
10621TIP3    H253279   3.405   0.135  12.503 -0.1374 -0.7952 -0.9770
10622TIP3   OH253280   4.833   3.731  14.007  0.2860  0.4959 -0.2534
10622TIP3    H153281   4.788   3.816  14.000  1.7716  1.2109 -2.5406
10622TIP3    H253282   4.826   3.694  13.919  0.5628 -1.3235  0.4517
10623TIP3   OH253283   4.764   5.119   2.478  1.1045  0.0518 -0.6220
10623TIP3    H153284   4.790   5.178   2.407 -2.2005  0.6157 -1.5489
10623TIP3    H253285   4.694   5.166   2.523  1.3480 -1.4082  1.3991
10624TIP3   OH253286   2.592   5.394   5.341 -0.0657 -0.0937 -0.5060
10624TIP3    H153287   2.635   5.322   5.295  1.3661 -1.1277  2.2256
10624TIP3    H253288   2.663   5.448   5.374 -1.0671  1.2437 -0.4462
10625TIP3   OH253289   5.675   2.542   5.513  0.1614 -0.4597  0.0929
10625TIP3    H153290   5.682   2.574   5.603 -1.0764 -2.2961  0.9014
10625TIP3    H253291   5.762   2.509   5.492  0.9639  1.6497 -0.1043
10626TIP3   OH253292   0.896   0.433  16.878 -0.4445  0.2776  0.1126
10626TIP3    H153293   0.941   0.409  16.959 -1.6337 -0.5241  0.5678
10626TIP3    H253294   0.950   0.503  16.840  0.2123  0.5646  1.5070
10627TIP3   OH253295   2.581   3.020  14.426  0.4019 -0.1265  0.0004
10627TIP3    H153296   2.552   2.952  14.366  1.6983 -0.3931 -0.3526
10627TIP3    H253297   2.501   3.047  14.473 -0.5768 -0.1089 -1.6130
10628TIP3   OH253298   1.938   1.615   0.528 -0.3897 -0.0034  0.5429
10628TIP3    H153299   2.007   1.574   0.475  0.6038  1.5220  0.5679
10628TIP3    H253300   1.866   1.630   0.468  0.4379  1.0168 -0.2247
10629TIP3   OH253301   5.799   4.561   4.000 -0.5359  0.3696 -0.0861
10629TIP3    H153302   5.761   4.645   4.025 -1.8915  0.4950 -2.3095
10629TIP3    H253303   5.725   4.500   3.999  0.3963 -0.8999  1.3674
10630TIP3   OH253304   4.357   2.376  12.513 -0.2456  0.1434 -0.3490
10630TIP3    H153305   4.346   2.462  12.554  0.4100  0.3508 -0.5957
10630TIP3    H253306   4.276   2.330  12.533  0.4091 -0.1184  2.0073
10631TIP3   OH253307   4.567   4.130   1.548 -0.0218 -0.3232 -0.7460
10631TIP3    H153308   4.596   4.216   1.517  0.4154 -0.2394 -0.1118
10631TIP3    H253309   4.585   4.130   1.642  2.8179 -2.1943 -1.1523
10632TIP3   OH253310   6.214   4.361  11.202 -0.0634  0.0063  0.1830
10632TIP3    H153311   6.136   4.356  11.146  0.5825  1.4996 -0.9550
10632TIP3    H253312   6.238   4.454  11.200  1.0213 -0.2174  1.5345
10633TIP3   OH253313   1.283   0.481  16.477 -0.0803  0.1038 -0.0691
10633TIP3    H153314   1.278   0.574  16.456  0.9626  0.0646 -0.5579
10633TIP3    H253315   1.367   0.453  16.442  0.8183 -0.4520  2.3283
10634TIP3   OH253316   1.149   0.954   4.563 -0.1610  0.1884  0.3695
10634TIP3    H153317   1.131   0.868   4.524  0.0759  0.4788 -0.4010
10634TIP3    H253318   1.212   0.936   4.632 -1.6743 -0.5382  1.6327
10635TIP3   OH253319   0.037   2.421  11.273  0.2196  0.2120 -0.0914
10635TIP3    H153320   0.114   2.458  11.316  0.1351 -0.1456  0.3831
10635TIP3    H253321   0.065   2.406  11.182  1.0759 -0.9248  0.3275
10636TIP3   OH253322   2.272   5.387   0.385 -0.4431  0.2973 -0.0290
10636TIP3    H153323   2.308   5.398   0.297 -2.6286  1.3229 -0.8964
10636TIP3    H253324   2.323   5.446   0.440  0.5810  0.0770 -0.7305
10637TIP3   OH253325   2.887   1.169   1.068 -0.6245 -0.0626 -0.1215
10637TIP3    H153326   2.949   1.242   1.057  0.4395 -0.8187  0.6368
10637TIP3    H253327   2.902   1.112   0.993 -1.6166  0.5772 -0.8366
10638TIP3   OH253328   1.905   5.870   5.758 -0.6011  0.1724  0.1823
10638TIP3    H153329   1.900   5.966   5.766  0.8093  0.3031 -0.1187
10638TIP3    H253330   1.861   5.850   5.675  0.2873  0.7299 -0.4458
10639TIP3   OH253331   6.500   4.082  12.758  0.0469 -0.0587 -1.2257
10639TIP3    H153332   6.431   4.147  12.750 -0.0589 -0.0537 -0.3906
10639TIP3    H253333   6.550   4.110  12.835  0.4998 -0.5017 -1.3528
10640TIP3   OH253334   5.558   4.485  15.106  0.2625  0.2025 -0.4732
10640TIP3    H153335   5.627   4.440  15.155  0.5326 -0.5755 -1.5153
10640TIP3    H253336   5.540   4.428  15.031 -1.3151  0.5349 -0.3937
10641TIP3   OH253337   1.006   0.284   2.434  0.1401  0.3794 -0.7017
10641TIP3    H153338   1.037   0.371   2.457  1.1605 -0.0024 -0.5953
10641TIP3    H253339   1.073   0.250   2.374 -2.0132  1.0683 -3.7623
10642TIP3   OH253340   4.476   6.193  16.923  0.4177 -0.1311  0.2629
10642TIP3    H153341   4.483   6.105  16.887 -2.0218 -0.6905  0.9532
10642TIP3    H253342   4.566   6.217  16.947  1.2562 -2.0410 -0.7676
10643TIP3   OH253343   3.914   1.484  15.257  0.4016 -0.2397  0.1906
10643TIP3    H153344   3.982   1.523  15.203  0.4624  0.2254  0.5989
10643TIP3    H253345   3.961   1.448  15.332  0.1883  0.1723  0.5228
10644TIP3   OH253346   3.521   3.669  13.082 -0.5634  0.1376  0.1601
10644TIP3    H153347   3.587   3.655  13.149  0.0827 -1.2961 -0.7294
10644TIP3    H253348   3.571   3.676  13.001 -1.4395 -0.0917 -0.4130
10645TIP3   OH253349   3.588   0.546   2.867  0.4476 -0.1358  0.1635
10645TIP3    H153350   3.651   0.557   2.796  0.6212  2.6637  0.6124
10645TIP3    H253351   3.502   0.545   2.824  0.5579  1.4053 -0.1598
10646TIP3   OH253352   6.073   2.595  14.753  0.0229 -0.0227  0.6314
10646TIP3    H153353   6.035   2.591  14.665 -0.3609  2.2814  0.6276
10646TIP3    H253354   6.166   2.611  14.739 -0.0510  0.4202  0.6305
10647TIP3   OH253355   5.022   1.447  11.797  0.1010  0.3706  0.4013
10647TIP3    H153356   4.996   1.372  11.851  1.3581 -0.5277 -0.1817
10647TIP3    H253357   5.065   1.408  11.721 -0.3109  1.6580 -0.5370
10648TIP3   OH253358   3.588   4.475  12.363  0.2557 -0.4874 -0.0470
10648TIP3    H153359   3.559   4.410  12.299  0.1095 -0.4676 -0.0024
10648TIP3    H253360   3.663   4.435  12.406  0.2464 -0.5734 -0.1107
10649TIP3   OH253361   3.429   2.039   5.652  0.2953 -0.2510 -0.4237
10649TIP3    H153362   3.514   2.040   5.608 -0.1866 -0.1946 -1.3894
10649TIP3    H253363   3.416   1.948   5.679 -0.8500 -1.0857 -3.3945
10650TIP3   OH253364   4.633   5.407   1.594 -0.4310 -0.5210  0.0592
10650TIP3    H153365   4.576   5.330   1.602 -0.5496 -0.3795  0.6395
10650TIP3    H253366   4.661   5.425   1.684 -0.9286  0.5066  0.0317
10651TIP3   OH253367   1.650   5.355   0.407 -0.5178 -0.0942 -0.2125
10651TIP3    H153368   1.645   5.287   0.339 -0.0332  0.9587 -1.3455
10651TIP3    H253369   1.740   5.388   0.402 -1.3175  2.1301 -1.2499
10652TIP3   OH253370   2.716   4.009  12.114  0.0205 -0.2492 -0.1077
10652TIP3    H153371   2.626   3.978  12.108 -0.0380 -0.0855 -0.0816
10652TIP3    H253372   2.723   4.076  12.046  0.1279 -0.2721 -0.1204
10653TIP3   OH253373   1.813   5.750   1.117  0.2535 -0.8193  0.1693
10653TIP3    H153374   1.722   5.758   1.148  1.2125  2.3394  2.7129
10653TIP3    H253375   1.845   5.669   1.157 -0.7174 -0.6123  1.4354
10654TIP3   OH253376   3.295   4.353  13.195 -0.2177  0.0309  0.4183
10654TIP3    H153377   3.220   4.304  13.229 -0.9219  1.1694  0.5248
10654TIP3    H253378   3.261   4.440  13.175  0.7763  0.1721 -0.7695
10655TIP3   OH253379   4.226   1.696  11.610 -0.6408 -0.7414 -0.1969
10655TIP3    H153380   4.225   1.602  11.590  0.3735 -0.8352  0.1228
10655TIP3    H253381   4.202   1.738  11.527  0.2987 -1.2381 -0.7451
10656TIP3   OH253382   5.290   6.490  15.216 -0.3054  0.4323  0.3397
10656TIP3    H153383   5.294   6.563  15.278  1.8318  0.7907 -0.1374
10656TIP3    H253384   5.379   6.484  15.180 -0.3367 -2.5404  0.5145
10657TIP3   OH253385   5.812   3.197   6.099 -0.3627  0.2491 -0.1801
10657TIP3    H153386   5.724   3.221   6.070 -0.1023  0.5479 -0.7335
10657TIP3    H253387   5.853   3.158   6.022  0.6742  1.9404 -0.5344
10658TIP3   OH253388   3.689   2.755  10.751 -0.3729  0.9748  0.9588
10658TIP3    H153389   3.621   2.695  10.719  1.2753  0.6553 -2.3890
10658TIP3    H253390   3.746   2.699  10.803 -0.9710  0.5202  1.1382
10659TIP3   OH253391   5.215   2.451   0.723 -0.5412 -0.0630  1.3058
10659TIP3    H153392   5.167   2.524   0.683  0.3465 -0.0589  0.1847
10659TIP3    H253393   5.248   2.487   0.805  1.4955  1.5139 -0.0728
10660TIP3   OH253394   4.524   6.171   4.612  0.1788 -0.4847 -0.2630
10660TIP3    H153395   4.523   6.248   4.555 -1.3493  1.4208  2.1338
10660TIP3    H253396   4.463   6.110   4.570  0.1204  0.2964 -1.3587
10661TIP3   OH253397   6.411   3.956  13.199  0.1953  0.4277 -0.0105
10661TIP3    H153398   6.498   3.927  13.226 -0.2449  0.2264  1.2387
10661TIP3    H253399   6.396   3.912  13.115  0.5910 -0.8981  0.6009
10662TIP3   OH253400   2.531   2.358   1.584 -0.4375 -0.2103 -0.1923
10662TIP3    H153401   2.621   2.358   1.551 -0.2029  0.9776  0.4027
10662TIP3    H253402   2.482   2.305   1.521  0.2589  0.8664 -1.6742
10663TIP3   OH253403   1.034   4.719  15.000  0.3010  0.0856  0.5879
10663TIP3    H153404   1.013   4.778  14.928  0.5407 -0.6716 -0.1233
10663TIP3    H253405   1.127   4.733  15.016  0.1299  0.6431  1.1239
10664TIP3   OH253406   3.876   0.573  13.083  0.2242 -0.0817  0.4211
10664TIP3    H153407   3.841   0.660  13.067  2.1766  1.5794  4.0211
10664TIP3    H253408   3.817   0.534  13.148  1.7126  0.4690  2.2058
10665TIP3   OH253409   1.770   6.699   3.182 -0.1986  0.3179 -0.2971
10665TIP3    H153410   1.699   6.671   3.124 -0.2639 -1.0262  0.4094
10665TIP3    H253411   1.850   6.670   3.138 -0.1114  1.1293 -0.7013
10666TIP3   OH253412   1.994   0.617  14.477  0.3375 -0.5359  0.3437
10666TIP3    H153413   1.988   0.684  14.546  1.2293 -0.3984  0.3031
10666TIP3    H253414   1.929   0.644  14.412 -0.8738 -0.9345  1.3400
10667TIP3   OH253415   6.025   4.142   0.694  0.2248 -0.6093 -0.0712
10667TIP3    H153416   5.948   4.193   0.670 -0.0382 -0.3162  1.2682
10667TIP3    H253417   5.992   4.076   0.755  0.8048 -1.4334 -0.6233
10668TIP3   OH253418   5.943   2.703  13.198  0.4644 -0.1728  0.2437
10668TIP3    H153419   5.898   2.730  13.278  0.6383  0.0731  0.2574
10668TIP3    H253420   6.015   2.766  13.188  1.3610 -1.0884  0.7094
10669TIP3   OH253421   4.689   3.199  15.339  0.1685 -0.4849  0.8991
10669TIP3    H153422   4.763   3.254  15.365 -1.0181  1.9275 -0.4588
10669TIP3    H253423   4.637   3.188  15.419  0.5796  0.1280  1.2570
10670TIP3   OH253424   0.507   0.286   2.587  0.3345 -0.1185 -0.1092
10670TIP3    H153425   0.577   0.282   2.522  0.8026 -0.2104  0.3840
10670TIP3    H253426   0.503   0.197   2.623  1.8113  0.4720  1.7320
10671TIP3   OH253427   4.329   1.625  16.647 -0.3419  0.5669 -0.0233
10671TIP3    H153428   4.304   1.543  16.604 -1.0130  0.9527 -0.3922
10671TIP3    H253429   4.249   1.654  16.691  0.5277 -0.2189  2.1759
10672TIP3   OH253430   0.562   0.711  13.427 -0.0512 -0.4071 -0.1583
10672TIP3    H153431   0.495   0.740  13.488 -0.4979 -2.1116  0.2182
10672TIP3    H253432   0.606   0.791  13.399 -1.7445  0.6727  0.1531
10673TIP3   OH253433   5.743   0.834   1.881  0.1250  0.2601  0.0210
10673TIP3    H153434   5.726   0.911   1.827 -0.9495 -1.4439 -2.2256
10673TIP3    H253435   5.806   0.783   1.831 -0.0848 -0.8836  0.8901
10674TIP3   OH253436   2.265   4.775   6.547  0.0436 -0.1329 -0.0806
10674TIP3    H153437   2.228   4.713   6.483 -0.4869 -0.3080  0.3903
10674TIP3    H253438   2.358   4.752   6.551 -0.2261 -1.2154  0.4220
10675TIP3   OH253439   2.742   1.561   6.296 -0.1734 -0.3749  0.2936
10675TIP3    H153440   2.729   1.643   6.344 -0.7017 -2.2659  3.6816
10675TIP3    H253441   2.654   1.527   6.282  0.0480 -0.4795 -0.9439
10676TIP3   OH253442   4.585   5.743   1.144  0.0631 -0.1875 -0.1714
10676TIP3    H153443   4.631   5.702   1.071 -0.3045 -0.3720 -0.3002
10676TIP3    H253444   4.493   5.738   1.121 -0.0241  0.2062  0.0747
10677TIP3   OH253445   5.794   0.440   0.562  0.1215 -0.2679 -0.4547
10677TIP3    H153446   5.735   0.419   0.635 -0.4323  1.8224 -0.2459
10677TIP3    H253447   5.863   0.493   0.602 -1.0546  2.3219 -1.6177
10678TIP3   OH253448   2.345   0.201  13.405 -0.0094 -0.1586  0.2208
10678TIP3    H153449   2.386   0.148  13.337  2.1017  1.7281 -0.0692
10678TIP3    H253450   2.410   0.206  13.475 -1.3219 -0.3101  1.5084
10679TIP3   OH253451   1.371   1.234   6.549  0.0809  0.3411 -0.9496
10679TIP3    H153452   1.366   1.169   6.478 -1.3200  0.4862 -1.0075
10679TIP3    H253453   1.280   1.247   6.575  0.6144 -0.2113  1.3575
10680TIP3   OH253454   3.269   1.298  15.708  0.1076  0.0815  0.1516
10680TIP3    H153455   3.268   1.373  15.768 -0.8303 -1.1565  1.7567
10680TIP3    H253456   3.334   1.238  15.744  1.4977  0.4446 -1.6181
10681TIP3   OH253457   1.734   4.784   3.440 -0.0675 -0.2882  0.4407
10681TIP3    H153458   1.721   4.743   3.525  0.2163 -2.0215 -0.3092
10681TIP3    H253459   1.684   4.730   3.379 -1.8530  2.0189 -0.2877
10682TIP3   OH253460   4.226   2.137   1.033 -0.0084 -0.2423 -0.4172
10682TIP3    H153461   4.223   2.041   1.035  0.1689 -0.2379  0.3321
10682TIP3    H253462   4.306   2.158   0.985  2.1893 -0.5197  2.8132
10683TIP3   OH253463   4.538   4.030   2.716  0.0353 -0.0145  0.3360
10683TIP3    H153464   4.448   4.063   2.719  0.3401  0.8595 -0.0450
10683TIP3    H253465   4.529   3.937   2.738 -0.7738  0.3912  1.8322
10684TIP3   OH253466   3.919   1.220  12.598  0.0993  0.1358  0.0097
10684TIP3    H153467   3.984   1.203  12.667  0.2475 -1.8383 -0.5643
10684TIP3    H253468   3.967   1.207  12.517 -0.7050 -0.1474 -0.4321
10685TIP3   OH253469   4.419   6.331  10.646 -0.5736 -0.2129 -0.4145
10685TIP3    H153470   4.429   6.305  10.737  1.3115  0.4623 -0.3727
10685TIP3    H253471   4.431   6.250  10.596  0.5046 -0.2663 -0.1055
10686TIP3   OH253472   5.079   0.838   4.817 -0.1830  0.1965 -0.0767
10686TIP3    H153473   5.036   0.839   4.731 -1.3377 -0.4812  0.4759
10686TIP3    H253474   5.167   0.805   4.799 -0.0016  1.1888 -1.1586
10687TIP3   OH253475   4.672   1.492  15.439  0.3832 -0.2783 -0.2982
10687TIP3    H153476   4.641   1.470  15.351  0.7899 -0.7891 -0.3177
10687TIP3    H253477   4.735   1.423  15.461 -0.0031 -0.3784  0.5531
10688TIP3   OH253478   0.521   2.278   4.728 -0.3988  0.0069 -0.0042
10688TIP3    H153479   0.434   2.239   4.726 -0.1697 -0.5259  0.2316
10688TIP3    H253480   0.581   2.203   4.732  0.0560  0.3799  0.2573
10689TIP3   OH253481   5.550   5.107   5.935  0.8470 -0.1734 -0.4560
10689TIP3    H153482   5.488   5.036   5.950  1.7994 -0.7423  0.9265
10689TIP3    H253483   5.628   5.065   5.899  1.2906  0.2084  0.0458
10690TIP3   OH253484   4.900   2.693   0.742 -0.2762  0.1234  0.0615
10690TIP3    H153485   4.922   2.678   0.834 -0.2956  1.7409  0.3486
10690TIP3    H253486   4.882   2.787   0.736  2.2014  0.5682 -2.0781
10691TIP3   OH253487   5.690   3.333  12.423  0.3447 -0.5739 -0.1337
10691TIP3    H153488   5.704   3.295  12.510  0.4263 -0.7895 -0.2412
10691TIP3    H253489   5.606   3.296  12.395 -0.0410  0.0664  0.1611
10692TIP3   OH253490   4.716   3.926  12.428  0.1079 -0.7650  0.3608
10692TIP3    H153491   4.718   3.986  12.503 -0.7552 -1.6701  1.1468
10692TIP3    H253492   4.632   3.882  12.436  0.5534 -1.7861 -0.4256
10693TIP3   OH253493   4.075   3.623   1.306 -0.7098  0.0625  0.2014
10693TIP3    H153494   4.099   3.705   1.350  2.0300 -0.3772 -0.3130
10693TIP3    H253495   4.025   3.652   1.229 -0.2544  1.2226  0.3144
10694TIP3   OH253496   1.204   1.598   6.627  0.1296 -0.5587  0.2468
10694TIP3    H153497   1.120   1.633   6.597 -0.6787 -0.9650  1.9277
10694TIP3    H253498   1.201   1.505   6.604  0.7704 -0.3012 -0.9943
10695TIP3   OH253499   5.482   3.514  13.697 -0.1333  0.2544  0.1836
10695TIP3    H153500   5.467   3.570  13.773  2.6660  1.4641 -0.0519
10695TIP3    H253501   5.576   3.517  13.683 -0.1984 -2.4173 -1.5078
10696TIP3   OH253502   3.103   2.120   0.353  0.2785  0.1794 -0.2632
10696TIP3    H153503   3.126   2.151   0.441 -0.3834  1.9557 -0.6764
10696TIP3    H253504   3.188   2.103   0.311  0.7450  2.3119 -0.2827
10697TIP3   OH253505   4.146   0.267   4.005  0.3667  0.0505 -0.1848
10697TIP3    H153506   4.148   0.177   3.971  2.6020  0.1448 -0.4221
10697TIP3    H253507   4.108   0.258   4.092  2.3392 -1.4891  0.6125
10698TIP3   OH253508   3.343   6.075   2.265  0.7911 -0.5671 -1.0725
10698TIP3    H153509   3.390   6.067   2.348  0.4205  0.8036 -0.6981
10698TIP3    H253510   3.274   6.008   2.269  0.1978  0.0789  0.1479
10699TIP3   OH253511   4.226   1.838   0.812  0.4028 -0.1689 -0.6063
10699TIP3    H153512   4.216   1.743   0.800  2.8572 -0.3672 -1.9266
10699TIP3    H253513   4.191   1.855   0.899 -1.4921 -2.0123 -0.9264
10700TIP3   OH253514   5.488   0.264   2.995  0.5475 -0.2353  0.1275
10700TIP3    H153515   5.527   0.179   3.018 -1.5740 -0.6708  2.5813
10700TIP3    H253516   5.498   0.316   3.074 -0.1100  1.0875 -0.6380
10701TIP3   OH253517   1.302   4.790   5.244 -0.0284  0.0035  0.2546
10701TIP3    H153518   1.242   4.744   5.302  1.0421 -1.1513  0.4826
10701TIP3    H253519   1.253   4.868   5.216 -1.3364 -0.5131  1.0122
10702TIP3   OH253520   3.221   3.937  16.710 -0.8370 -0.0613 -0.2087
10702TIP3    H153521   3.288   3.942  16.778 -2.3246 -0.3516  1.3808
10702TIP3    H253522   3.138   3.946  16.758 -2.0737 -2.5375 -1.6586
10703TIP3   OH253523   0.220   5.183  15.236  0.1901 -0.3871  0.3171
10703TIP3    H153524   0.230   5.227  15.152 -0.5785 -1.9708 -0.6443
10703TIP3    H253525   0.310   5.169  15.266  0.4602  0.6031  0.0010
10704TIP3   OH253526   6.772   6.465   3.833  0.3036  0.0148 -0.4221
10704TIP3    H153527   6.802   6.547   3.871  0.4325  0.1387 -0.7869
10704TIP3    H253528   6.728   6.490   3.753 -1.6934 -0.0751  0.5931
10705TIP3   OH253529   3.971   1.228   1.532  0.1741  0.2392  0.0132
10705TIP3    H153530   3.911   1.275   1.591 -0.6106 -0.3744 -0.2750
10705TIP3    H253531   3.913   1.180   1.473  0.9574 -0.4684 -0.1942
10706TIP3   OH253532   3.536   2.933  12.228  0.3466  0.0808 -0.3309
10706TIP3    H153533   3.540   2.854  12.175  1.4396  0.3362 -0.6388
10706TIP3    H253534   3.619   2.977  12.213  0.0531  0.9227  0.4136
10707TIP3   OH253535   1.301   2.433   3.435  0.3754  0.6245 -0.0902
10707TIP3    H153536   1.336   2.374   3.369 -0.3795 -1.8318  1.5427
10707TIP3    H253537   1.212   2.452   3.406  0.6222  0.9752 -0.6233
10708TIP3   OH253538   5.143   2.315   5.454 -0.4293 -0.2354 -0.0191
10708TIP3    H153539   5.197   2.316   5.375  1.7199  0.0379  1.3722
10708TIP3    H253540   5.094   2.233   5.447  0.1621 -0.5152 -1.3372
10709TIP3   OH253541   6.206   2.660   5.856  0.1522  0.0522  0.1394
10709TIP3    H153542   6.192   2.738   5.910 -1.1118  2.4577 -3.3123
10709TIP3    H253543   6.300   2.661   5.836  0.2845  0.2279  0.7514
10710TIP3   OH253544   3.254   0.683   3.670 -0.3753  0.3195  0.0288
10710TIP3    H153545   3.288   0.742   3.738  0.9414 -0.1933 -0.1483
10710TIP3    H253546   3.179   0.729   3.633 -0.2096  1.2628  0.8411
10711TIP3   OH253547   3.005   0.688   1.961  0.5866 -0.4272  0.0301
10711TIP3    H153548   3.076   0.750   1.982 -0.2259  0.9603 -1.1676
10711TIP3    H253549   2.925   0.739   1.973 -0.1492 -1.5238 -0.1515
10712TIP3   OH253550   6.122   3.659   2.391 -0.7752  0.3994  0.1519
10712TIP3    H153551   6.144   3.592   2.327  4.2428  1.4756  0.3477
10712TIP3    H253552   6.096   3.735   2.339 -2.0720 -0.2801 -0.2412
10713TIP3   OH253553   5.479   3.882   3.460  0.1910  0.4323 -0.1841
10713TIP3    H153554   5.522   3.904   3.543 -1.1379  1.1906  0.3219
10713TIP3    H253555   5.513   3.946   3.398  2.2107 -0.9393 -0.6150
10714TIP3   OH253556   5.537   1.379  15.415 -0.6421 -0.4226  0.2173
10714TIP3    H153557   5.547   1.390  15.320 -0.5777  0.9878  0.3752
10714TIP3    H253558   5.486   1.454  15.444 -1.5039 -1.3373  1.1867
10715TIP3   OH253559   5.222   4.587  17.194 -0.4232  0.4915 -0.0352
10715TIP3    H153560   5.261   4.500  17.188  1.3510  1.1753  0.5727
10715TIP3    H253561   5.281   4.643  17.143 -1.2347  1.4223  0.0191
10716TIP3   OH253562   1.228   4.003  16.937 -0.0895 -0.2654  0.2188
10716TIP3    H153563   1.176   4.057  16.878 -1.0648 -0.8502  0.5148
10716TIP3    H253564   1.259   3.930  16.882 -0.7042 -0.6226  0.3363
10717TIP3   OH253565   3.161   3.452  14.182 -0.0118  0.1415  0.5052
10717TIP3    H153566   3.124   3.442  14.269 -0.3083  1.6373  0.5881
10717TIP3    H253567   3.244   3.499  14.196 -0.3775  0.9862 -0.0410
10718TIP3   OH253568   0.775   3.782   6.321  0.1331  0.7212  0.0075
10718TIP3    H153569   0.733   3.698   6.335  0.9764 -0.1384 -2.1712
10718TIP3    H253570   0.868   3.765   6.330  0.2584  1.8214  1.1724
10719TIP3   OH253571   1.707   3.631  11.386 -0.1790 -0.7916 -0.3815
10719TIP3    H153572   1.771   3.580  11.336 -0.8639  0.7270 -2.9960
10719TIP3    H253573   1.624   3.614  11.342 -0.8876  0.3228  0.4786
10720TIP3   OH253574   1.478   4.663  11.713  0.1953 -0.0206  0.4566
10720TIP3    H153575   1.422   4.585  11.713 -1.2622  0.9666 -0.7834
10720TIP3    H253576   1.456   4.708  11.632  2.8574  0.4328 -0.0860
10721TIP3   OH253577   1.737   5.225  17.217  0.0137 -0.1838  0.0063
10721TIP3    H153578   1.779   5.224  17.130 -0.0328  0.2674 -0.0215
10721TIP3    H253579   1.802   5.266  17.274  0.8092 -2.1038  0.5865
10722TIP3   OH253580   5.280   6.268  16.744  0.0172  1.1373 -0.1283
10722TIP3    H153581   5.249   6.271  16.653  0.1153  2.4884 -0.1336
10722TIP3    H253582   5.375   6.282  16.737  0.4597 -1.3187  0.0153
10723TIP3   OH253583   2.687   4.756  13.433 -0.5814  0.7569 -0.5786
10723TIP3    H153584   2.613   4.808  13.465 -0.2548 -0.4741  2.4437
10723TIP3    H253585   2.759   4.818  13.425 -0.8556  1.2458  0.5452
10724TIP3   OH253586   4.886   6.388   2.493  0.1539 -0.2017  0.2305
10724TIP3    H153587   4.964   6.444   2.496 -0.3693  0.5114  0.8484
10724TIP3    H253588   4.920   6.299   2.506  0.9475  0.0011 -0.3489
10725TIP3   OH253589   3.930   6.371  10.110 -0.6279  0.5373 -0.4043
10725TIP3    H153590   3.972   6.445  10.067 -0.6110  0.5027 -0.4472
10725TIP3    H253591   3.911   6.402  10.198  2.8273 -0.5890  0.8905
10726TIP3   OH253592   2.184   4.192   4.932 -0.6021  0.5008 -0.1067
10726TIP3    H153593   2.183   4.096   4.937  0.7206  0.4983  0.5708
10726TIP3    H253594   2.260   4.212   4.877 -1.2743  1.1676 -0.8290
10727TIP3   OH253595   6.010   4.745   4.299 -0.4526 -0.2029  0.0452
10727TIP3    H153596   5.942   4.691   4.339  0.9121 -0.3776  2.3235
10727TIP3    H253597   6.002   4.830   4.343 -0.0877  0.2153 -0.6752
10728TIP3   OH253598   3.650   0.215  15.484 -0.2802  0.2473  0.0610
10728TIP3    H153599   3.712   0.193  15.416 -2.1985 -0.4984 -1.5433
10728TIP3    H253600   3.576   0.254  15.438 -0.9989  1.2079  1.8946
10729TIP3   OH253601   4.278   4.737  16.039  0.5377  0.0038 -0.4116
10729TIP3    H153602   4.273   4.643  16.027 -0.2273  0.2513 -2.3528
10729TIP3    H253603   4.265   4.774  15.952  1.4910  1.9019  0.1717
10730TIP3   OH253604   1.468   3.678   2.314  0.4921 -0.4311  0.1337
10730TIP3    H153605   1.547   3.704   2.266  0.8569  1.3889  1.6022
10730TIP3    H253606   1.500   3.620   2.383  0.2814 -1.1703 -0.3817
10731TIP3   OH253607   1.048   2.973   2.786  0.2585  0.0080  0.0836
10731TIP3    H153608   1.068   3.067   2.788  3.1476 -0.5113  1.9351
10731TIP3    H253609   0.978   2.963   2.852  1.3363  0.6594  1.3885
10732TIP3   OH253610   4.216   4.033   3.411  0.0615  0.2176 -0.0987
10732TIP3    H153611   4.268   4.113   3.421 -0.1280  0.1158  2.1590
10732TIP3    H253612   4.125   4.062   3.420 -0.0854 -0.0836 -0.5705
10733TIP3   OH253613   2.681   4.109   0.150 -0.2669 -0.0397 -0.1456
10733TIP3    H153614   2.675   4.115   0.055  0.4807  1.3761 -0.1243
10733TIP3    H253615   2.636   4.187   0.182 -0.2642 -0.3601  0.6583
10734TIP3   OH253616   1.565   1.831   3.308 -0.4332  0.3885 -0.1376
10734TIP3    H153617   1.475   1.806   3.326 -0.1376 -0.5691  0.0703
10734TIP3    H253618   1.593   1.772   3.238  0.7672 -0.9718  1.4112
10735TIP3   OH253619   1.649   4.861   1.949  0.5704  0.9713  0.2508
10735TIP3    H153620   1.700   4.831   1.873 -1.2565  1.3476 -1.1924
10735TIP3    H253621   1.654   4.789   2.011 -1.1547 -1.1275 -1.8759
10736TIP3   OH253622   1.954   5.965  14.301  0.2436 -0.4105  0.4093
10736TIP3    H153623   2.016   5.893  14.313 -0.2324 -0.6975  1.2300
10736TIP3    H253624   1.962   6.016  14.382 -0.6651 -0.4997  0.5574
10737TIP3   OH253625   0.237   2.896   5.823 -0.0132  0.3132 -0.6437
10737TIP3    H153626   0.253   2.821   5.766 -0.0852  0.2988 -0.6442
10737TIP3    H253627   0.289   2.966   5.784 -0.2877  0.3813 -0.8911
10738TIP3   OH253628   3.947   0.106   3.833  0.3510  0.2037 -0.0267
10738TIP3    H153629   3.948   0.080   3.741  1.0945 -0.2115  0.0885
10738TIP3    H253630   3.924   0.026   3.880 -0.6474  0.5648  0.1110
10739TIP3   OH253631   0.802   4.303  12.400  0.0807  0.3981 -0.1145
10739TIP3    H153632   0.732   4.366  12.383 -2.1463 -1.7978  0.3664
10739TIP3    H253633   0.802   4.291  12.495 -1.6575 -2.4407 -0.3604
10740TIP3   OH253634   3.959   3.502  14.687 -0.0764 -0.3070 -0.7919
10740TIP3    H153635   3.970   3.423  14.634 -0.8834 -1.1309  0.2273
10740TIP3    H253636   3.914   3.564  14.629  0.7438 -0.4977 -1.6623
10741TIP3   OH253637   5.523   4.693   0.654 -0.4303 -0.2759 -0.7243
10741TIP3    H153638   5.495   4.715   0.743  0.1394  1.7791 -0.9934
10741TIP3    H253639   5.609   4.653   0.665  0.5269  1.7433 -0.4006
10742TIP3   OH253640   1.592   4.489  15.292 -0.5531  0.5788 -0.2157
10742TIP3    H153641   1.593   4.571  15.243  0.4468  0.9750  0.4207
10742TIP3    H253642   1.517   4.441  15.258 -2.3949  2.5857  0.7607
10743TIP3   OH253643   0.506   2.840  17.111  0.3340  0.1666 -0.2379
10743TIP3    H153644   0.473   2.927  17.087 -0.1415 -0.0081 -0.2292
10743TIP3    H253645   0.554   2.810  17.034  3.8907  2.0347  1.0282
10744TIP3   OH253646   5.606   0.841  15.470 -0.2886  0.1728  0.3680
10744TIP3    H153647   5.697   0.811  15.466 -0.2881  0.2404 -0.1672
10744TIP3    H253648   5.558   0.780  15.415 -0.5380  0.2570  0.4902
10745TIP3   OH253649   3.300   6.371  14.932  0.3124  0.0113 -0.5060
10745TIP3    H153650   3.320   6.419  15.012  0.9794  0.2295 -0.7974
10745TIP3    H253651   3.368   6.303  14.928  0.5429  0.2756 -1.1108
10746TIP3   OH253652   1.492   0.297  14.544 -0.1552  1.1086 -0.7045
10746TIP3    H153653   1.445   0.380  14.546  1.9971  2.4090 -1.4551
10746TIP3    H253654   1.467   0.254  14.627 -1.1363  2.5650 -0.2033
10747TIP3   OH253655   3.019   0.415   2.986 -0.1698  0.0138  0.1366
10747TIP3    H153656   3.020   0.442   3.078  2.9111 -0.3087  0.2885
10747TIP3    H253657   3.049   0.492   2.939  0.0314 -0.3908 -0.4020
10748TIP3   OH253658   6.705   5.638  10.421 -0.0561 -0.4383 -0.0383
10748TIP3    H153659   6.730   5.730  10.413 -0.8311 -0.0925  1.3258
10748TIP3    H253660   6.787   5.592  10.439  0.0661  0.2735  1.3391
10749TIP3   OH253661   6.227   2.109   4.484  0.5231  0.1948  0.3429
10749TIP3    H153662   6.152   2.049   4.496  0.3833  0.2797 -0.0888
10749TIP3    H253663   6.264   2.118   4.572  0.2150 -0.0970  0.5086
10750TIP3   OH253664   3.651   0.943  14.805  0.2222  0.1933 -0.6170
10750TIP3    H153665   3.642   0.959  14.899 -0.5479  1.1363 -0.8319
10750TIP3    H253666   3.563   0.918  14.776  0.8474 -2.0010 -0.7802
10751TIP3   OH253667   6.628   3.192   5.667 -0.1786 -0.4491  0.0711
10751TIP3    H153668   6.647   3.286   5.675 -1.3855 -0.0420 -1.3704
10751TIP3    H253669   6.714   3.151   5.666  0.5117  0.8851 -1.5825
10752TIP3   OH253670   4.125   2.867   3.050  0.1540 -0.0550  0.5547
10752TIP3    H153671   4.032   2.889   3.054  0.1273 -0.0586  0.0313
10752TIP3    H253672   4.140   2.843   2.959  0.3814 -1.3578  0.9197
10753TIP3   OH253673   6.682   0.218  13.031  0.0200 -0.0929 -0.1352
10753TIP3    H153674   6.699   0.125  13.045  0.5888  0.1025  0.5076
10753TIP3    H253675   6.739   0.263  13.093 -0.4879  0.6801 -0.2082
10754TIP3   OH253676   0.689   3.495  12.181  0.6079  0.1151 -0.3429
10754TIP3    H153677   0.600   3.519  12.156  0.6907 -0.7567 -1.5995
10754TIP3    H253678   0.686   3.399  12.187  1.1580  0.1531  0.9045
10755TIP3   OH253679   4.114   5.605   4.266 -0.6058 -0.0800 -0.1387
10755TIP3    H153680   4.198   5.617   4.309 -0.2953 -1.4453 -0.3263
10755TIP3    H253681   4.064   5.549   4.325 -1.7490  1.4481  0.4037
10756TIP3   OH253682   2.329   3.874  14.030  0.0589  0.3725 -0.5505
10756TIP3    H153683   2.335   3.783  14.058 -0.5347  0.6075  0.3877
10756TIP3    H253684   2.410   3.891  13.983  1.8399  0.3493  2.2707
10757TIP3   OH253685   4.133   0.050  10.595  0.4365  0.2307  0.3328
10757TIP3    H153686   4.107  -0.028  10.546 -0.1100  1.1307 -0.8908
10757TIP3    H253687   4.135   0.120  10.529 -1.7527  1.8242  1.7743
10758TIP3   OH253688   2.197   4.246  13.351 -0.1041  0.0476 -0.2287
10758TIP3    H153689   2.251   4.319  13.380  1.4731 -0.8973 -0.6512
10758TIP3    H253690   2.258   4.172  13.347 -1.8541 -1.5742  1.2570
10759TIP3   OH253691   4.383   5.607   4.698  0.1920  0.0839  0.1849
10759TIP3    H153692   4.450   5.541   4.680  0.4042  0.1266  0.7861
10759TIP3    H253693   4.307   5.557   4.728  0.1492  0.0734  0.0579
10760TIP3   OH253694   6.074   5.946  15.400  0.0007 -0.0449 -0.5482
10760TIP3    H153695   6.082   6.041  15.405 -0.4623  0.1090 -2.1890
10760TIP3    H253696   6.146   5.918  15.343  0.1682 -0.6910 -0.0341
10761TIP3   OH253697   1.840   2.853   5.515  0.4245  0.4325 -0.1143
10761TIP3    H153698   1.824   2.784   5.580 -0.1060 -0.1584 -0.8548
10761TIP3    H253699   1.899   2.914   5.559 -0.2181  0.2433  1.0553
10762TIP3   OH253700   5.151   6.086  11.592 -0.5846 -0.0961 -0.0247
10762TIP3    H153701   5.070   6.075  11.543 -0.8537 -1.0810  0.6184
10762TIP3    H253702   5.124   6.117  11.678 -0.0011  3.7046 -1.0127
10763TIP3   OH253703   4.685   3.828   5.118 -0.3881  0.0864  0.2760
10763TIP3    H153704   4.762   3.834   5.061 -1.4480  0.5759 -1.1769
10763TIP3    H253705   4.712   3.870   5.199  0.7941  0.5255 -0.3249
10764TIP3   OH253706   2.391   2.393  13.264  0.0423  0.2525  0.1442
10764TIP3    H153707   2.415   2.336  13.338 -1.0497  0.4434  0.6524
10764TIP3    H253708   2.328   2.455  13.301  0.7135  1.3897 -0.5651
10765TIP3   OH253709   5.232   3.275  13.373  0.5492  0.5087 -0.1445
10765TIP3    H153710   5.204   3.184  13.383  2.9445 -0.4869 -1.5143
10765TIP3    H253711   5.275   3.297  13.455 -1.6445  1.1146  0.9094
10766TIP3   OH253712   1.027   2.137   6.469  0.1071 -0.4479 -0.2854
10766TIP3    H153713   1.055   2.176   6.386 -2.6712 -1.0813 -1.6219
10766TIP3    H253714   0.987   2.054   6.445 -0.9033 -0.5860  1.6871
10767TIP3   OH253715   2.287   0.205   6.238  0.3393  0.2542  0.2406
10767TIP3    H153716   2.261   0.113   6.237 -1.7022  0.7720 -0.6213
10767TIP3    H253717   2.240   0.244   6.163  0.5457  2.1309  1.0217
10768TIP3   OH253718   5.324   0.478  14.045 -0.4260  0.1697  0.5177
10768TIP3    H153719   5.378   0.475  13.966 -0.6664  1.1175  0.3021
10768TIP3    H253720   5.237   0.502  14.013 -0.0493  2.8552  1.2605
10769TIP3   OH253721   0.956   4.592  13.960 -0.5174 -0.0523  0.3872
10769TIP3    H153722   1.012   4.530  13.914 -1.0780 -0.4252  0.2083
10769TIP3    H253723   0.868   4.557  13.952 -0.9821  1.2113 -0.4906
10770TIP3   OH253724   5.732   3.020  12.977 -0.2991  0.5235  0.8417
10770TIP3    H153725   5.703   3.111  12.986 -1.1911  0.6219 -1.9632
10770TIP3    H253726   5.827   3.025  12.979 -0.3307  1.1712  2.9625
10771TIP3   OH253727   2.509   2.053  10.540  0.4743  0.1088  0.2427
10771TIP3    H153728   2.604   2.042  10.540  0.4192 -0.9972 -2.4528
10771TIP3    H253729   2.475   1.972  10.504 -1.4685  0.7752  0.4568
10772TIP3   OH253730   1.723   0.231   2.257 -0.5175 -0.5265  0.3672
10772TIP3    H153731   1.818   0.229   2.254 -0.4928 -0.1778  0.7974
10772TIP3    H253732   1.700   0.321   2.232 -0.7348 -0.6310  0.1872
10773TIP3   OH253733   3.248   3.986  12.213  0.1835 -0.3019  0.4886
10773TIP3    H153734   3.211   4.048  12.150  0.8756 -0.2332  0.1406
10773TIP3    H253735   3.180   3.919  12.225  0.5754 -1.1017 -1.4352
10774TIP3   OH253736   4.505   3.163  12.268 -0.5546  0.1194  0.0319
10774TIP3    H153737   4.429   3.206  12.229 -0.3542 -0.4609 -1.0370
10774TIP3    H253738   4.554   3.233  12.311 -0.8924  0.7408 -0.5853
10775TIP3   OH253739   0.935   0.975   5.018 -0.7460  0.3471 -0.0509
10775TIP3    H153740   0.939   0.991   5.112 -0.0752  2.3778 -0.3819
10775TIP3    H253741   1.005   0.912   5.001 -0.6686  0.2076  0.7686
10776TIP3   OH253742   3.438   6.572  12.543  0.7375 -0.5150 -0.1376
10776TIP3    H153743   3.504   6.568  12.474 -0.9665  0.8365 -1.9529
10776TIP3    H253744   3.413   6.664  12.547 -1.5014 -1.0636 -0.0183
10777TIP3   OH253745   4.814   2.956  13.302 -0.2019 -0.5552  0.0127
10777TIP3    H153746   4.872   2.943  13.226 -0.2765 -0.7834 -0.0070
10777TIP3    H253747   4.726   2.940  13.267 -0.2331 -0.6988  0.1546
10778TIP3   OH253748   5.382   0.476   2.274 -0.0883 -0.3709  0.0756
10778TIP3    H153749   5.449   0.518   2.329 -0.2927 -1.1611  0.9316
10778TIP3    H253750   5.403   0.506   2.185  1.1084 -0.2144  0.3923
10779TIP3   OH253751   6.143   4.353  10.901 -0.4950  0.0926 -0.5260
10779TIP3    H153752   6.106   4.422  10.957  1.8015  0.3643  0.7909
10779TIP3    H253753   6.218   4.394  10.859 -0.7063 -0.8557 -1.8774
10780TIP3   OH253754   2.621   0.187  12.557  0.7004 -0.5801  0.6638
10780TIP3    H153755   2.544   0.163  12.505  0.8964 -0.6596  0.4064
10780TIP3    H253756   2.600   0.159  12.646 -0.4650  1.3431  1.0498
10781TIP3   OH253757   3.474   6.734   1.832 -0.6651 -0.2583 -0.2053
10781TIP3    H153758   3.567   6.720   1.814 -0.8162  0.4241 -1.5893
10781TIP3    H253759   3.466   6.717   1.926  0.5326 -2.0192 -0.3563
10782TIP3   OH253760   4.605   2.913  14.507  0.1315  0.0546  0.1239
10782TIP3    H153761   4.691   2.873  14.524  0.8263  1.8261  0.9559
10782TIP3    H253762   4.552   2.890  14.583  0.3734  0.3003  0.3671
10783TIP3   OH253763   2.514   1.401  12.164  0.3458 -0.0515 -0.3187
10783TIP3    H153764   2.551   1.482  12.128  1.1655  0.2553  1.1528
10783TIP3    H253765   2.420   1.418  12.170  0.5310  0.8533  0.1318
10784TIP3   OH253766   4.281   2.125   3.359 -0.5064  0.0941  0.2942
10784TIP3    H153767   4.274   2.030   3.369 -0.8225 -0.1494 -1.8271
10784TIP3    H253768   4.190   2.155   3.348 -0.3491  0.5447  0.1951
10785TIP3   OH253769   5.345   2.503  12.897  0.1925 -0.6027 -0.1989
10785TIP3    H153770   5.433   2.518  12.931  0.3976  0.5554 -1.2010
10785TIP3    H253771   5.354   2.513  12.802 -0.8955 -1.1560 -0.3781
10786TIP3   OH253772   3.808   5.164   2.493  0.4064  0.2512  0.2095
10786TIP3    H153773   3.734   5.129   2.443  0.3730  0.1720  0.3144
10786TIP3    H253774   3.848   5.087   2.534  0.9847  0.1983 -0.4198
10787TIP3   OH253775   1.372   6.021   1.618 -0.4715 -0.4444 -0.2268
10787TIP3    H153776   1.355   6.115   1.612 -0.5143 -0.4453 -0.1185
10787TIP3    H253777   1.431   6.012   1.693 -0.8808 -0.5587  0.0848
10788TIP3   OH253778   3.830   0.044   4.950 -0.0785  0.6217 -0.0124
10788TIP3    H153779   3.880   0.109   4.900 -0.6340  2.3388  1.5733
10788TIP3    H253780   3.806   0.088   5.031  0.0225 -1.7743  1.4365
10789TIP3   OH253781   3.000   3.853   4.085 -0.1024 -0.1839 -0.6033
10789TIP3    H153782   3.070   3.887   4.141 -0.1324  0.3369 -0.8761
10789TIP3    H253783   2.956   3.931   4.052 -0.2291 -0.4916 -1.1758
10790TIP3   OH253784   0.725   5.141  16.220 -0.7661  0.3638  0.4894
10790TIP3    H153785   0.786   5.178  16.284  1.0858  1.1994 -1.6220
10790TIP3    H253786   0.753   5.050  16.210  0.8086  0.9831 -1.1352
10791TIP3   OH253787   1.724   0.358   1.039 -0.2649 -0.5112  0.1280
10791TIP3    H153788   1.767   0.433   1.079  2.1663 -0.3167 -2.5340
10791TIP3    H253789   1.760   0.282   1.085  1.9451 -0.2611 -1.0430
10792TIP3   OH253790   1.334   5.907  14.798 -0.1952 -0.0955  1.2400
10792TIP3    H153791   1.298   5.995  14.787  0.3197 -0.0006  0.1269
10792TIP3    H253792   1.428   5.920  14.808 -0.1332 -0.5027  1.2206
10793TIP3   OH253793   6.677   2.533   5.643  0.0292  0.7158 -0.1187
10793TIP3    H153794   6.684   2.439   5.627  0.3550  0.4291  1.4717
10793TIP3    H253795   6.763   2.557   5.678 -0.3652  1.3984  0.4042
10794TIP3   OH253796   0.445   2.927   2.700 -0.3658  0.3865  0.6972
10794TIP3    H153797   0.538   2.941   2.717  0.0090 -0.6359 -0.3997
10794TIP3    H253798   0.424   2.846   2.747 -0.7751  0.7506  1.1533
10795TIP3   OH253799   2.094   0.158  16.735 -0.1013  0.2499 -0.3414
10795TIP3    H153800   1.999   0.143  16.732 -0.1715  0.5518  0.1704
10795TIP3    H253801   2.121   0.160  16.644 -0.8029  1.4899 -0.5482
10796TIP3   OH253802   0.806   3.224  15.541  0.2762  0.4065 -0.3913
10796TIP3    H153803   0.712   3.236  15.549  0.5629  1.4514  2.7922
10796TIP3    H253804   0.817   3.131  15.523 -1.3506  0.3810 -1.4367
10797TIP3   OH253805   6.642   2.417  12.226  0.0332  0.5873 -0.1520
10797TIP3    H153806   6.580   2.468  12.174 -0.3485  1.1552  0.8288
10797TIP3    H253807   6.596   2.335  12.245  0.0558  0.5079 -0.4331
10798TIP3   OH253808   5.653   1.431  15.744 -0.2921 -0.4194  0.2417
10798TIP3    H153809   5.624   1.522  15.738 -0.0619 -0.3852 -0.4686
10798TIP3    H253810   5.638   1.395  15.657  1.5474 -0.4612 -0.1129
10799TIP3   OH253811   4.134   1.395   0.267 -0.5055 -0.3030 -0.0482
10799TIP3    H153812   4.159   1.325   0.328 -0.4564 -0.0050  0.2840
10799TIP3    H253813   4.039   1.393   0.266 -0.5248  0.0617  0.4906
10800TIP3   OH253814   6.126   0.386  14.786  0.3833  0.0635  0.0967
10800TIP3    H153815   6.222   0.381  14.791  0.4238 -1.9189 -1.5279
10800TIP3    H253816   6.110   0.425  14.700 -0.2560 -1.2091 -0.3741
10801TIP3   OH253817   4.257   2.855  11.552 -0.3940 -0.2524  0.4543
10801TIP3    H153818   4.345   2.851  11.590 -0.1054  0.8478 -0.0416
10801TIP3    H253819   4.272   2.844  11.458 -1.0516 -2.5412  0.5819
10802TIP3   OH253820   2.063   5.227   4.120  0.8120  0.3681  0.3953
10802TIP3    H153821   2.047   5.309   4.166  0.2571  1.1943 -1.2022
10802TIP3    H253822   2.058   5.250   4.028 -1.7322 -1.8475 -0.1645
10803TIP3   OH253823   1.939   6.311  11.044  0.2144 -0.0194 -0.0378
10803TIP3    H153824   2.014   6.328  10.988 -0.0435  1.2683 -0.0230
10803TIP3    H253825   1.892   6.239  11.001 -0.9419  2.0681 -2.4747
10804TIP3   OH253826   5.619   4.408   3.766  0.1248 -0.1068 -0.3842
10804TIP3    H153827   5.598   4.427   3.675  0.2792  2.3638  0.0226
10804TIP3    H253828   5.715   4.418   3.770  0.0811  0.1192  0.1082
10805TIP3   OH253829   0.401   5.930   1.299  0.1986  0.2473 -0.5439
10805TIP3    H153830   0.426   6.012   1.341  0.9940  0.2239 -0.9472
10805TIP3    H253831   0.429   5.940   1.208 -1.7677  0.4324 -1.1834
10806TIP3   OH253832   1.480   2.028   4.895 -0.4842  0.3494  0.2492
10806TIP3    H153833   1.464   2.122   4.907 -0.3949  0.5985 -1.3102
10806TIP3    H253834   1.397   1.994   4.859  0.4610  0.5096 -2.3020
10807TIP3   OH253835   3.098   4.715   6.003 -0.6360 -0.2978  0.4554
10807TIP3    H153836   3.135   4.744   6.086  0.8152  0.5618 -0.4461
10807TIP3    H253837   3.040   4.642   6.026 -0.7879  0.3567  2.2726
10808TIP3   OH253838   4.902   1.982  13.332 -0.9847 -0.1004 -0.4725
10808TIP3    H153839   4.893   1.906  13.390  1.6678  0.1036  0.3041
10808TIP3    H253840   4.863   2.054  13.381 -1.1758 -0.4442 -0.1076
10809TIP3   OH253841   5.423   0.769  12.212 -0.4974  0.3840 -0.3806
10809TIP3    H153842   5.409   0.863  12.203  0.7051  0.5761 -0.3845
10809TIP3    H253843   5.512   0.761  12.246 -0.8606 -0.7337  0.3549
10810TIP3   OH253844   1.458   5.239   2.209  0.4263 -0.2025  0.0885
10810TIP3    H153845   1.523   5.175   2.180 -1.7340 -1.5690 -2.0979
10810TIP3    H253846   1.407   5.193   2.276 -1.2644 -1.0084 -1.6346
10811TIP3   OH253847   5.075   5.342  10.812  0.0159  0.4955  0.2678
10811TIP3    H153848   5.155   5.295  10.838 -0.8342 -0.6540  0.9041
10811TIP3    H253849   5.086   5.357  10.718  1.0426  0.4945  0.3711
10812TIP3   OH253850   1.068   0.560  12.018 -0.1361 -0.1151 -0.2562
10812TIP3    H153851   1.007   0.509  12.071  1.4106 -2.4122 -0.5485
10812TIP3    H253852   1.034   0.553  11.929 -0.8006  0.7889 -0.0935
10813TIP3   OH253853   4.042   2.501   4.680  0.1492 -0.0382 -0.6247
10813TIP3    H153854   4.101   2.436   4.641 -1.4496 -1.7384 -0.3531
10813TIP3    H253855   4.045   2.482   4.774 -0.6002  0.0335 -0.5813
10814TIP3   OH253856   3.938   6.283   0.104 -0.1127  0.0850 -0.0060
10814TIP3    H153857   3.903   6.201   0.068  1.1629 -0.0890 -0.9035
10814TIP3    H253858   4.029   6.285   0.075 -0.1119  1.8203  0.0319
10815TIP3   OH253859   2.673   2.482   3.321 -0.0598 -0.0362 -0.4587
10815TIP3    H153860   2.672   2.530   3.238 -1.1834 -0.3582 -0.6423
10815TIP3    H253861   2.749   2.424   3.314 -0.6603 -0.7212 -1.6565
10816TIP3   OH253862   6.452   0.417   5.265 -0.1530 -0.2607 -0.6869
10816TIP3    H153863   6.378   0.460   5.307  0.4274 -0.6646  0.8002
10816TIP3    H253864   6.416   0.336   5.229 -0.1030 -1.4683  1.7822
10817TIP3   OH253865   4.216   4.020   0.200  0.4468  0.5481 -0.0547
10817TIP3    H153866   4.156   4.061   0.262  0.5130 -0.1584  0.4865
10817TIP3    H253867   4.294   4.000   0.252  1.0621  1.2356 -0.6916
10818TIP3   OH253868   5.342   1.487  14.052  0.1337  0.0814 -0.6209
10818TIP3    H153869   5.398   1.495  14.129  3.1111 -0.1711 -2.5765
10818TIP3    H253870   5.349   1.394  14.027  0.4767  0.4532 -2.0012
10819TIP3   OH253871   0.099   0.216  15.646 -0.1806 -0.3992  0.2047
10819TIP3    H153872   0.175   0.254  15.602 -0.3107 -0.3918 -0.0114
10819TIP3    H253873   0.137   0.153  15.709  0.0689  0.5477  1.0285
10820TIP3   OH253874   2.497   0.525  14.097 -0.6902 -0.1643  0.1638
10820TIP3    H153875   2.454   0.529  14.183  0.8361  0.5823  0.9349
10820TIP3    H253876   2.425   0.527  14.034 -1.8049  0.3186  1.4013
10821TIP3   OH253877   3.730   6.310   1.754 -0.4790  0.1847 -0.0247
10821TIP3    H153878   3.752   6.218   1.763  1.2465  0.1108 -3.4374
10821TIP3    H253879   3.638   6.310   1.727  0.0630 -0.7451 -2.0250
10822TIP3   OH253880   0.083   2.559   2.185 -0.4837  0.7895 -0.1158
10822TIP3    H153881   0.051   2.481   2.230  1.0392 -0.6259 -1.3543
10822TIP3    H253882   0.170   2.535   2.154 -1.3120  1.7516 -3.5466
10823TIP3   OH253883   6.252   5.494   3.948  0.1436  0.2881 -0.1122
10823TIP3    H153884   6.177   5.474   3.892 -0.8844 -0.6675  1.5469
10823TIP3    H253885   6.328   5.480   3.892 -0.8844  1.1792 -1.8071
10824TIP3   OH253886   1.432   1.157   2.443 -0.1036 -0.5644  0.7347
10824TIP3    H153887   1.386   1.186   2.522 -0.2471  0.8915  0.1538
10824TIP3    H253888   1.364   1.148   2.377  0.3442  1.4942 -0.0965
10825TIP3   OH253889   0.156   5.301   1.578 -0.2994  0.3229  0.2653
10825TIP3    H153890   0.227   5.348   1.533 -0.6927  0.7255  0.0586
10825TIP3    H253891   0.077   5.330   1.534 -0.8952  2.2030  2.4264
10826TIP3   OH253892   3.133   0.923   0.151 -1.0700  0.9445  0.0038
10826TIP3    H153893   3.124   1.018   0.141 -2.1455  0.9043  0.4918
10826TIP3    H253894   3.053   0.887   0.112  0.2409  0.0865 -2.0852
10827TIP3   OH253895   5.375   4.374   4.680 -0.4858  0.4863 -0.3022
10827TIP3    H153896   5.294   4.326   4.662 -0.4795  0.5284 -0.4370
10827TIP3    H253897   5.440   4.335   4.623  0.4293 -1.8120  2.0859
10828TIP3   OH253898   3.083   1.044   0.580 -0.2106  0.1279 -0.8204
10828TIP3    H153899   3.001   1.066   0.535 -0.3965 -0.1143 -0.5983
10828TIP3    H253900   3.149   1.096   0.534 -0.3185 -0.4903 -1.7079
10829TIP3   OH253901   2.301   4.527  14.277 -0.0217  0.7693 -0.3458
10829TIP3    H153902   2.227   4.558  14.329 -0.6013 -0.5192 -0.3710
10829TIP3    H253903   2.375   4.528  14.338 -0.6759 -0.6322  0.5239
10830TIP3   OH253904   5.475   2.269  17.256  0.3897 -0.5711 -0.0838
10830TIP3    H153905   5.473   2.266  17.352 -0.7055  1.0033 -0.0185
10830TIP3    H253906   5.525   2.348  17.236 -0.9089  0.1299 -0.7361
10831TIP3   OH253907   4.047   5.545   5.934 -0.2790  0.5483 -0.0297
10831TIP3    H153908   3.994   5.537   6.014 -0.3169  1.3160  0.0289
10831TIP3    H253909   4.132   5.509   5.959 -1.1122 -1.9664 -0.5143
10832TIP3   OH253910   1.509   3.637  11.837 -0.0448  0.3835 -0.9349
10832TIP3    H153911   1.565   3.672  11.767 -0.2185  0.3819 -1.0733
10832TIP3    H253912   1.421   3.669  11.816 -0.1789 -0.0203 -0.9850
10833TIP3   OH253913   1.089   3.268  11.390 -0.2742 -0.1081  0.2682
10833TIP3    H153914   1.145   3.229  11.457 -2.4911 -0.0184  2.3145
10833TIP3    H253915   1.050   3.344  11.432 -0.5450  0.9403 -1.7170
10834TIP3   OH253916   3.621   3.695   3.011  0.2525 -0.2139  0.0294
10834TIP3    H153917   3.551   3.715   3.073  0.6279 -0.4679  0.5469
10834TIP3    H253918   3.585   3.719   2.925 -0.3175  0.0282  0.3297
10835TIP3   OH253919   4.266   3.823   2.068  0.2595 -0.2624 -0.0155
10835TIP3    H153920   4.192   3.883   2.074  1.3025  1.0661  0.1519
10835TIP3    H253921   4.263   3.790   1.978 -1.1140 -1.0419  0.2949
10836TIP3   OH253922   5.259   5.184  11.073  0.1318  0.1022  0.4538
10836TIP3    H153923   5.257   5.110  11.012 -1.5172 -0.2774  0.9216
10836TIP3    H253924   5.301   5.255  11.023  0.2432 -0.6589 -0.5703
10837TIP3   OH253925   2.809   2.009  12.274  0.3199 -0.3469 -0.1473
10837TIP3    H153926   2.858   1.951  12.332  0.3716  0.0583  0.2217
10837TIP3    H253927   2.793   1.957  12.195 -0.9779 -1.3874  0.7681
10838TIP3   OH253928   2.115   5.432  11.724  0.1805  0.0959  0.0813
10838TIP3    H153929   2.200   5.473  11.716  1.1929 -1.4152  2.0546
10838TIP3    H253930   2.133   5.345  11.761 -2.0633 -1.0402 -1.2156
10839TIP3   OH253931   4.768   5.187  11.958 -0.0744 -0.4886  0.0399
10839TIP3    H153932   4.811   5.177  11.872  0.7993 -0.1276  0.4199
10839TIP3    H253933   4.790   5.107  12.006  2.7982  0.9407  1.3229
10840TIP3   OH253934   6.311   0.288  12.383  0.7784 -0.8429  0.4541
10840TIP3    H153935   6.289   0.203  12.346 -1.7173  0.0470 -0.2906
10840TIP3    H253936   6.255   0.297  12.460  0.8397  0.1987  0.4020
10841TIP3   OH253937   1.153   5.682  11.327  0.2396 -0.1061  0.0374
10841TIP3    H153938   1.123   5.610  11.271 -0.9849 -0.8533  1.5595
10841TIP3    H253939   1.246   5.665  11.340  0.9664  1.0105 -3.0212
10842TIP3   OH253940   6.407   4.418  16.154 -0.4796 -0.4415  0.3809
10842TIP3    H153941   6.446   4.353  16.096  0.2515  1.2735 -1.1318
10842TIP3    H253942   6.317   4.427  16.123 -0.7276 -1.0342  0.8970
10843TIP3   OH253943   3.591   5.532   4.796 -0.1899 -0.5384 -0.2934
10843TIP3    H153944   3.555   5.468   4.736 -1.1195 -0.9547  0.6699
10843TIP3    H253945   3.526   5.538   4.867 -0.3827  1.8070 -0.5775
10844TIP3   OH253946   1.693   5.496   5.364 -0.5304  0.2228  0.3735
10844TIP3    H153947   1.754   5.556   5.408 -1.6100  0.9721  0.9033
10844TIP3    H253948   1.684   5.422   5.424  0.0593 -0.0259  0.1640
10845TIP3   OH253949   2.225   4.318  15.370  0.2791  0.6673  0.0427
10845TIP3    H153950   2.147   4.373  15.378 -0.4798 -0.1810 -1.1205
10845TIP3    H253951   2.288   4.356  15.431 -0.3511  2.5801 -0.4295
10846TIP3   OH253952   1.650   3.958  13.799 -0.0413 -0.2217 -0.7790
10846TIP3    H153953   1.631   4.025  13.734  1.3407 -0.6263 -1.6554
10846TIP3    H253954   1.719   3.995  13.853  0.0830 -0.5787 -0.6865
10847TIP3   OH253955   1.809   5.733  16.751 -0.3368  0.1920  0.2740
10847TIP3    H153956   1.822   5.811  16.804  1.4702  0.6624 -0.7818
10847TIP3    H253957   1.849   5.754  16.667  0.9199 -2.1253  0.2187
10848TIP3   OH253958   0.758   6.211   1.779  0.8250  0.1025  0.1211
10848TIP3    H153959   0.709   6.130   1.769 -1.1318  1.0300  1.5551
10848TIP3    H253960   0.843   6.184   1.814  0.2042 -1.3218  0.5719
10849TIP3   OH253961   3.030   6.492   5.395  0.0991  0.2743 -0.6863
10849TIP3    H153962   3.095   6.545   5.440 -0.9735  1.5045 -0.5253
10849TIP3    H253963   3.001   6.428   5.461  0.3450  0.4339 -0.4209
10850TIP3   OH253964   3.481   6.638   3.903  0.0749 -0.2827  0.4560
10850TIP3    H153965   3.555   6.581   3.883  0.5189  0.5871 -0.4573
10850TIP3    H253966   3.474   6.635   3.999  1.6189 -0.0107  0.6045
10851TIP3   OH253967   4.030   2.030  12.211 -0.6312  0.2408  0.1800
10851TIP3    H153968   4.015   1.938  12.188 -2.2884  0.6779 -0.6535
10851TIP3    H253969   3.983   2.042  12.294  1.0610 -0.0719  1.2167
10852TIP3   OH253970   2.365   3.396   0.869 -0.0230 -0.3067  0.2738
10852TIP3    H153971   2.313   3.317   0.851 -2.0626  1.5936 -3.5125
10852TIP3    H253972   2.439   3.390   0.808 -0.5004  0.8937 -0.4486
10853TIP3   OH253973   1.567   4.431   5.133 -0.0049 -0.0534  0.4647
10853TIP3    H153974   1.617   4.510   5.113 -0.6243  0.2770  0.2081
10853TIP3    H253975   1.532   4.446   5.221  1.9041 -1.0945  1.4815
10854TIP3   OH253976   4.203   5.972  15.135 -0.1862 -0.2134  0.1887
10854TIP3    H153977   4.221   5.990  15.227  0.3658 -1.9678  0.4511
10854TIP3    H253978   4.284   5.992  15.090  0.1384 -1.1105  0.3559
10855TIP3   OH253979   3.033   6.318   3.324  0.5723 -0.0977  0.3913
10855TIP3    H153980   3.066   6.328   3.413  0.1220  0.6310  0.4835
10855TIP3    H253981   2.938   6.318   3.334  0.5237 -0.4732 -0.0468
10856TIP3   OH253982   0.616   6.469  12.537 -0.1307 -0.2868 -0.1403
10856TIP3    H153983   0.630   6.547  12.483  0.2812  2.0897  3.0826
10856TIP3    H253984   0.691   6.467  12.597 -1.1769 -1.9756  1.2134
10857TIP3   OH253985   4.206   5.199   0.460 -0.0064 -0.6666 -0.0410
10857TIP3    H153986   4.189   5.211   0.553 -1.0178 -0.7726 -0.2012
10857TIP3    H253987   4.299   5.223   0.449  0.7144 -2.5730  1.3178
10858TIP3   OH253988   1.267   5.537  17.128 -0.1774  0.5686 -0.0847
10858TIP3    H153989   1.343   5.586  17.096 -0.0414  0.1342 -0.4189
10858TIP3    H253990   1.303   5.456  17.164 -0.6162 -0.3723 -1.6861
10859TIP3   OH253991   5.039   3.968  13.191 -0.1752 -0.8021 -0.1419
10859TIP3    H153992   5.117   3.937  13.239 -0.3838 -0.9047  0.1337
10859TIP3    H253993   5.001   3.889  13.154 -1.1096 -0.9950  1.1576
10860TIP3   OH253994   3.702   5.395  15.043 -0.1989 -0.5422  0.3971
10860TIP3    H153995   3.696   5.305  15.012 -3.4948  0.2223 -1.6348
10860TIP3    H253996   3.675   5.449  14.969  2.1115  2.2295  1.3836
10861TIP3   OH253997   3.148   1.438   1.438 -0.1357 -0.5174 -0.1665
10861TIP3    H153998   3.109   1.521   1.412  0.3697 -0.0152  0.6314
10861TIP3    H253999   3.165   1.448   1.532 -0.4930 -1.6943  0.0421
10862TIP3   OH254000   4.711   2.025   4.043  0.4585  0.2477  0.5578
10862TIP3    H154001   4.754   2.026   3.958 -0.4828  1.3782  0.0588
10862TIP3    H254002   4.679   2.115   4.055  0.1251 -0.0173  1.8724
10863TIP3   OH254003   0.342   3.864   1.108  0.3946 -0.0911 -0.1604
10863TIP3    H154004   0.434   3.841   1.096  0.3462  0.2428 -1.3001
10863TIP3    H254005   0.338   3.958   1.089 -0.2596 -0.2080 -0.6502
10864TIP3   OH254006   0.845   5.844   6.040 -0.2732  1.1901 -0.5424
10864TIP3    H154007   0.777   5.893   6.086 -0.8535 -1.6460  1.9172
10864TIP3    H254008   0.891   5.796   6.109  2.2890  0.7030 -2.4534
10865TIP3   OH254009   5.695   4.172   6.467  0.3130  0.2513 -0.3541
10865TIP3    H154010   5.644   4.121   6.405  0.1381  0.0791 -0.0726
10865TIP3    H254011   5.632   4.199   6.534  0.8303 -1.1272  0.7409
10866TIP3   OH254012   6.511   4.449  17.003  0.3566  0.1182  0.2342
10866TIP3    H154013   6.510   4.486  17.091 -0.4165 -1.0009  0.7128
10866TIP3    H254014   6.440   4.385  17.003  0.0569  0.4162 -1.3432
10867TIP3   OH254015   3.110   5.872  16.324  0.0075  0.0215  0.5265
10867TIP3    H154016   3.035   5.931  16.312 -0.3335 -0.2203  1.3997
10867TIP3    H254017   3.072   5.784  16.319 -0.0848 -0.1064  2.7027
10868TIP3   OH254018   4.662   1.311  12.821 -0.7463 -0.0115  0.4143
10868TIP3    H154019   4.632   1.401  12.809  1.0525  0.7486  1.2970
10868TIP3    H254020   4.739   1.304  12.763 -0.0453 -0.5108  1.3813
10869TIP3   OH254021   0.979   3.425   5.599  0.4812 -0.0367  0.5362
10869TIP3    H154022   0.962   3.374   5.678 -0.0307 -1.2702 -0.3311
10869TIP3    H254023   0.901   3.412   5.545  1.9146 -1.5120 -1.3263
10870TIP3   OH254024   6.615   4.396  15.285  0.2815  0.0004 -0.2000
10870TIP3    H154025   6.684   4.461  15.272 -0.2335  0.6816  0.3818
10870TIP3    H254026   6.540   4.447  15.316 -0.6298 -0.6546 -1.2355
10871TIP3   OH254027   2.518   6.075  15.791 -0.1796  0.4053  0.4027
10871TIP3    H154028   2.458   6.110  15.856  0.0894  1.6700  0.0075
10871TIP3    H254029   2.473   5.998  15.756 -2.1631  1.9641 -0.7284
10872TIP3   OH254030   0.127   4.678  11.776 -0.5695 -0.2418 -0.1518
10872TIP3    H154031   0.109   4.691  11.869 -1.9807  0.0332 -0.4454
10872TIP3    H254032   0.071   4.605  11.751 -1.3537  0.6653 -1.1134
10873TIP3   OH254033   5.322   5.602   0.326  0.1853 -0.2978  1.0170
10873TIP3    H154034   5.304   5.672   0.264 -0.0257 -0.2844  1.0937
10873TIP3    H254035   5.406   5.626   0.365  0.1024 -0.0721  1.0620
10874TIP3   OH254036   6.416   5.124  16.588 -0.1961  0.3563 -0.5954
10874TIP3    H154037   6.323   5.140  16.572  0.4548  4.4478 -1.3297
10874TIP3    H254038   6.449   5.091  16.504 -0.7184  0.2287 -0.7543
10875TIP3   OH254039   5.035   5.891  10.619  0.0908 -0.0582 -0.1977
10875TIP3    H154040   5.095   5.867  10.690  0.7033  2.2626  0.1517
10875TIP3    H254041   4.981   5.813  10.606  0.6763 -0.9288  2.0804
10876TIP3   OH254042   5.922   0.793  14.313  0.1289 -0.2656  0.5103
10876TIP3    H154043   5.845   0.791  14.370  0.1098 -1.3946  0.4605
10876TIP3    H254044   5.962   0.878  14.331 -1.4211  0.5814  0.1324
10877TIP3   OH254045   1.035   0.589  16.105 -0.2088 -0.0068 -0.0036
10877TIP3    H154046   1.107   0.527  16.098 -0.2829  0.0176 -1.0876
10877TIP3    H254047   0.958   0.535  16.122 -0.0793 -0.1083  0.2592
10878TIP3   OH254048   6.155   6.438  15.589  0.1185  0.2488  0.2959
10878TIP3    H154049   6.125   6.389  15.665 -1.1914 -1.3335 -1.1776
10878TIP3    H254050   6.249   6.451  15.605 -0.1830  0.2951  2.3173
10879TIP3   OH254051   2.948   1.782   2.595 -0.0450 -0.9763  0.2974
10879TIP3    H154052   2.986   1.695   2.584  0.2272 -0.6793 -1.3119
10879TIP3    H254053   2.961   1.802   2.688 -0.2020 -2.6693  0.7182
10880TIP3   OH254054   5.319   4.997  11.265  0.4812  0.2371  0.3565
10880TIP3    H154055   5.280   5.077  11.229 -0.8571  0.1122  1.4287
10880TIP3    H254056   5.301   4.930  11.199  0.7360  0.6119 -0.0999
10881TIP3   OH254057   0.442   2.925   1.840  0.2698  0.1980  0.5989
10881TIP3    H154058   0.521   2.979   1.835 -0.7776  1.7269 -2.0042
10881TIP3    H254059   0.370   2.988   1.838 -1.0242 -1.2232  0.6229
10882TIP3   OH254060   0.597   6.114  10.881  0.0702  0.3480  0.1301
10882TIP3    H154061   0.662   6.170  10.924 -0.2352  0.1419  0.8893
10882TIP3    H254062   0.642   6.080  10.803  1.4551 -1.0281  1.4372
10883TIP3   OH254063   1.456   6.152  12.124  0.2463 -0.1556  0.3051
10883TIP3    H154064   1.537   6.175  12.170  0.0264  0.8417  0.2111
10883TIP3    H254065   1.485   6.125  12.037  0.4513  0.4968  0.1705
10884TIP3   OH254066   0.557   4.173   2.369 -0.5132  0.2042  0.3119
10884TIP3    H154067   0.613   4.224   2.427 -0.3533  0.1844  0.1751
10884TIP3    H254068   0.577   4.081   2.390 -1.4639  0.1817  1.2048
10885TIP3   OH254069   6.277   5.133  16.157  0.0101  0.2207 -0.3673
10885TIP3    H154070   6.249   5.216  16.118 -1.5561  0.0417  0.2846
10885TIP3    H254071   6.300   5.077  16.083 -1.8436  0.2471 -1.0003
10886TIP3   OH254072   5.133   5.514   2.219  0.4088 -0.0714  0.6230
10886TIP3    H154073   5.056   5.557   2.254  0.8406  0.3296  1.0986
10886TIP3    H254074   5.161   5.570   2.146  1.3559  0.8630  1.6520
10887TIP3   OH254075   1.294   5.188   3.744 -0.5453 -0.0972  0.2362
10887TIP3    H154076   1.371   5.237   3.774  1.7509 -1.8841 -2.3263
10887TIP3    H254077   1.291   5.112   3.802 -1.5671  0.8439  1.4905
10888TIP3   OH254078   4.062   0.962   3.030 -0.0674 -1.1461 -0.5213
10888TIP3    H154079   4.013   1.001   2.958  0.4384  0.3807 -0.0697
10888TIP3    H254080   4.072   0.870   3.005 -1.8686 -1.1773 -1.3063
10889TIP3   OH254081   1.497   0.820   2.594 -0.0168 -0.0740 -0.3690
10889TIP3    H154082   1.492   0.890   2.659  0.2563 -2.2330  2.1889
10889TIP3    H254083   1.591   0.803   2.585 -0.0227  0.5178 -1.7642
10890TIP3   OH254084   2.859   5.395   5.183 -0.0795 -0.0656 -0.2316
10890TIP3    H154085   2.844   5.481   5.222 -1.8677 -1.2870  2.0122
10890TIP3    H254086   2.924   5.354   5.240  0.0126 -0.5735 -0.6934
10891TIP3   OH254087   4.265   0.485  10.780 -0.3277 -0.9185  0.6340
10891TIP3    H154088   4.236   0.574  10.762  0.1155 -0.7192  0.8598
10891TIP3    H254089   4.322   0.462  10.706  0.1263 -0.7415  0.9215
10892TIP3   OH254090   5.813   2.485   3.338  0.3213 -0.0871 -0.0319
10892TIP3    H154091   5.755   2.544   3.385  1.7098  0.7765  0.6787
10892TIP3    H254092   5.802   2.508   3.246  0.8828  1.3627  0.2344
10893TIP3   OH254093   4.953   3.842   1.743 -0.0310 -0.5389  0.3050
10893TIP3    H154094   4.992   3.795   1.817  0.8391 -1.6333 -0.8077
10893TIP3    H254095   5.002   3.811   1.667 -1.6101 -0.2315 -0.8691
10894TIP3   OH254096   3.991   3.012   3.910  0.1248 -0.0374 -0.2932
10894TIP3    H154097   3.936   3.089   3.896 -1.0211 -0.5267  1.2106
10894TIP3    H254098   3.929   2.940   3.923  1.1504 -0.9834 -0.4849
10895TIP3   OH254099   0.183   1.806  12.042 -0.0586 -0.0840  0.3511
10895TIP3    H154100   0.146   1.765  12.120 -1.8408 -0.6388 -0.7131
10895TIP3    H254101   0.118   1.872  12.017  0.1304 -0.3829 -1.0075
10896TIP3   OH254102   2.063   2.653  14.822  0.5415  0.2999  0.5757
10896TIP3    H154103   2.145   2.645  14.773  0.3678  1.4253  0.0664
10896TIP3    H254104   2.090   2.653  14.914  0.8404 -2.1830  0.5523
10897TIP3   OH254105   3.038   3.619  13.751 -0.6526 -0.5975  0.0326
10897TIP3    H154106   3.113   3.678  13.758 -0.1933 -1.1863  0.1446
10897TIP3    H254107   3.040   3.567  13.831 -0.6851 -1.1864 -0.3358
10898TIP3   OH254108   6.091   0.888   5.009  0.8029 -0.1501 -0.2930
10898TIP3    H154109   6.097   0.847   5.095 -1.0871 -0.8959 -0.4676
10898TIP3    H254110   6.076   0.815   4.949  0.0756  0.5409 -0.9728
10899TIP3   OH254111   2.539   2.081  15.831  0.1063 -0.0275  0.0825
10899TIP3    H154112   2.477   2.136  15.783 -0.6352 -1.5897 -0.8207
10899TIP3    H254113   2.610   2.141  15.855 -1.2745  1.6009  0.3240
10900TIP3   OH254114   1.227   2.964   1.264  0.8333  0.3951 -0.0609
10900TIP3    H154115   1.244   2.927   1.350  0.8685 -0.7914 -0.5620
10900TIP3    H254116   1.314   2.984   1.229  0.8583  0.2205 -0.0998
10901TIP3   OH254117   4.681   1.077   3.205 -0.0215  0.2497  0.8931
10901TIP3    H154118   4.771   1.046   3.217  0.8162  2.3051  0.3133
10901TIP3    H254119   4.672   1.087   3.110 -0.6504  0.6062  0.9850
10902TIP3   OH254120   3.588   5.849  14.789 -0.5085 -0.5980  0.0436
10902TIP3    H154121   3.664   5.899  14.817  0.5726 -1.8824 -0.5201
10902TIP3    H254122   3.566   5.884  14.703  0.7698 -1.6309 -0.7252
10903TIP3   OH254123   5.486   6.418   5.132 -0.3238 -0.1109 -0.0122
10903TIP3    H154124   5.395   6.415   5.161 -0.3778  1.2393  0.0181
10903TIP3    H254125   5.492   6.353   5.063 -1.6468  0.6560 -0.8952
10904TIP3   OH254126   4.250   5.662   3.320  0.5313 -0.3734  0.4158
10904TIP3    H154127   4.247   5.640   3.227  1.8189 -1.0793  0.5176
10904TIP3    H254128   4.168   5.709   3.336  0.2425 -0.3208 -1.0457
10905TIP3   OH254129   1.471   0.476   2.355 -0.0000 -0.2426  0.4456
10905TIP3    H154130   1.551   0.476   2.302 -0.1885  0.9453  0.1498
10905TIP3    H254131   1.443   0.384   2.356  1.1393 -0.6045  0.2137
10906TIP3   OH254132   4.031   0.554   3.953  0.2823 -0.0630 -0.0576
10906TIP3    H154133   4.034   0.568   3.858 -1.6771  0.0084 -0.1486
10906TIP3    H254134   4.059   0.463   3.965 -1.5811 -0.8100 -0.9557
10907TIP3   OH254135   0.334   4.413  16.243  0.3522  0.1204 -0.0568
10907TIP3    H154136   0.347   4.457  16.158  1.0901  0.0843  0.0358
10907TIP3    H254137   0.245   4.378  16.237  2.0147 -4.6042 -3.0500
10908TIP3   OH254138   3.822   6.431   4.671  0.1584  0.2636  0.1070
10908TIP3    H154139   3.875   6.455   4.594  0.3925 -0.5261  0.0081
10908TIP3    H254140   3.845   6.339   4.688 -1.5051 -0.2518 -0.2049
10909TIP3   OH254141   4.828   3.961  11.636 -0.4581 -0.3024 -0.2749
10909TIP3    H154142   4.874   3.882  11.665  0.5039  0.3895  0.1047
10909TIP3    H254143   4.794   4.000  11.717 -1.5774 -0.6997 -0.5294
10910TIP3   OH254144   3.063   4.344   0.596 -0.3202  0.1914  0.3766
10910TIP3    H154145   3.150   4.315   0.572 -0.5071 -2.1747  2.1963
10910TIP3    H254146   3.074   4.386   0.681 -0.8463  0.6600  0.2209
10911TIP3   OH254147   2.447   0.998  14.670  0.0519  0.0476 -0.0289
10911TIP3    H154148   2.365   0.950  14.663 -0.8554  1.4436  0.6112
10911TIP3    H254149   2.421   1.090  14.677  1.7249  0.6804 -1.3062
10912TIP3   OH254150   2.838   0.473   0.371 -0.2316 -0.4966 -0.5244
10912TIP3    H154151   2.828   0.393   0.422  1.9792 -0.0021  0.8414
10912TIP3    H254152   2.895   0.449   0.298  0.6595 -0.1530  0.0390
10913TIP3   OH254153   4.432   3.976  11.346 -0.1375  0.1220 -0.0247
10913TIP3    H154154   4.380   3.912  11.394 -0.1560 -0.6740 -1.0577
10913TIP3    H254155   4.370   4.048  11.328 -0.8484 -0.7139 -1.0390
10914TIP3   OH254156   6.753   3.116  12.691  0.2067 -0.5853  0.2730
10914TIP3    H154157   6.671   3.163  12.680  0.9835  0.4977 -1.4468
10914TIP3    H254158   6.730   3.024  12.678 -0.6583 -0.2387 -0.8277
10915TIP3   OH254159   1.714   1.676  15.962 -0.0950 -0.3666  0.0322
10915TIP3    H154160   1.655   1.656  16.034  0.4587 -1.4023  0.2216
10915TIP3    H254161   1.771   1.599  15.955 -0.5680 -0.6041 -1.9372
10916TIP3   OH254162   4.100   0.452  11.132 -0.0895 -0.0310 -0.2441
10916TIP3    H154163   4.091   0.377  11.072 -1.2686  0.4774 -0.7365
10916TIP3    H254164   4.188   0.485  11.114  0.1155 -0.7542 -0.6613
10917TIP3   OH254165   0.464   5.314  14.317 -0.5331  0.5385  0.1513
10917TIP3    H154166   0.542   5.265  14.293 -0.6948  0.0963  0.5201
10917TIP3    H254167   0.488   5.406  14.302 -0.2360  0.3554 -0.5577
10918TIP3   OH254168   0.554   3.443  13.456 -0.8897 -0.1609  0.8449
10918TIP3    H154169   0.637   3.449  13.502  1.7913 -0.2985 -3.4681
10918TIP3    H254170   0.506   3.522  13.481  2.9622  2.9210 -0.4982
10919TIP3   OH254171   5.991   3.647   1.331 -0.1426 -0.4835  0.8921
10919TIP3    H154172   5.896   3.634   1.339 -0.2171  0.3462  1.3953
10919TIP3    H254173   6.000   3.734   1.294  0.4218 -0.7973  0.2798
10920TIP3   OH254174   6.706   3.503  13.265  0.3959  0.4384  0.5466
10920TIP3    H154175   6.669   3.488  13.351  1.4074  1.1859  1.1385
10920TIP3    H254176   6.761   3.426  13.249 -0.5041 -0.1389  0.1505
10921TIP3   OH254177   2.798   3.778  13.722  0.1157 -0.4498  0.1175
10921TIP3    H154178   2.887   3.747  13.705  0.1845 -0.1396 -0.0863
10921TIP3    H254179   2.810   3.864  13.764 -0.0381 -1.2490  1.8987
10922TIP3   OH254180   5.715   3.164  16.353  0.3650 -0.0615  0.4072
10922TIP3    H154181   5.742   3.095  16.413  1.0546 -1.1607 -1.0954
10922TIP3    H254182   5.646   3.124  16.300 -0.9488  1.2074  1.0647
10923TIP3   OH254183   2.570   0.088   4.605 -0.1119 -0.2239 -0.0572
10923TIP3    H154184   2.566   0.129   4.519  1.0608  0.1459  0.0447
10923TIP3    H254185   2.574   0.161   4.666 -0.9676 -0.4854  0.3245
10924TIP3   OH254186   4.292   1.773  17.020  0.3695 -0.2031  0.1326
10924TIP3    H154187   4.248   1.723  16.951  1.1076 -0.2902 -0.2928
10924TIP3    H254188   4.353   1.830  16.973  0.6685 -0.0474  0.6981
10925TIP3   OH254189   1.028   4.995   1.872  0.1075 -0.0773  0.1529
10925TIP3    H154190   1.114   5.036   1.885 -0.9594  2.5326 -0.5142
10925TIP3    H254191   0.995   4.980   1.961  1.1266 -0.8874  0.4142
10926TIP3   OH254192   3.716   4.733   2.953  0.0934 -0.1089  0.6331
10926TIP3    H154193   3.797   4.685   2.938  1.0064  1.7939 -0.8570
10926TIP3    H254194   3.737   4.794   3.023 -0.1381  0.1918  0.4435
10927TIP3   OH254195   0.677   2.669  11.609 -0.8481  0.2448  0.4489
10927TIP3    H154196   0.621   2.592  11.603 -2.7312  1.4985  0.8752
10927TIP3    H254197   0.761   2.635  11.640 -1.2740 -1.7416 -0.4090
10928TIP3   OH254198   1.536   2.434  12.942  0.1959  0.0241 -0.0994
10928TIP3    H154199   1.538   2.414  13.035 -1.4032  1.6638  0.3375
10928TIP3    H254200   1.461   2.384  12.909  0.9317 -0.7871 -0.6103
10929TIP3   OH254201   1.064   4.633   4.016  0.0978  0.1565 -0.2845
10929TIP3    H154202   1.117   4.578   4.073 -0.3601 -1.5094 -1.4197
10929TIP3    H254203   0.997   4.670   4.074  0.3122 -0.6178  0.4703
10930TIP3   OH254204   5.408   1.475   1.936 -0.7901  0.6075 -0.4711
10930TIP3    H154205   5.500   1.493   1.917 -0.3702 -1.8839 -1.1801
10930TIP3    H254206   5.404   1.468   2.031 -0.2810  0.8774 -0.4252
10931TIP3   OH254207   2.408   0.850  13.482 -0.5557  0.4270 -0.2371
10931TIP3    H154208   2.402   0.841  13.387  0.5662 -0.4339 -0.2520
10931TIP3    H254209   2.371   0.936  13.501 -1.4379  0.3078 -1.3735
10932TIP3   OH254210   4.485   1.867   3.369 -0.3556  0.5104 -0.1308
10932TIP3    H154211   4.535   1.828   3.298 -0.0293 -2.5019  1.6025
10932TIP3    H254212   4.394   1.860   3.341 -0.3440 -1.9593  0.2142
10933TIP3   OH254213   2.108   5.572   4.686 -0.6008  0.6318  0.0579
10933TIP3    H154214   2.068   5.572   4.599 -0.1568  0.1877 -0.1493
10933TIP3    H254215   2.089   5.659   4.722 -1.5134  0.5209 -0.1453
10934TIP3   OH254216   5.815   1.082   0.790  0.1221 -0.3728 -0.8033
10934TIP3    H154217   5.732   1.037   0.804  0.8077 -1.3145  0.5316
10934TIP3    H254218   5.834   1.122   0.875  0.9888 -0.0920 -1.1243
10935TIP3   OH254219   1.020   2.167   1.821 -0.1364 -0.0661 -0.5679
10935TIP3    H154220   0.955   2.124   1.766  1.1133 -0.2778 -1.9689
10935TIP3    H254221   1.104   2.137   1.786  0.7266  0.8681  0.6173
10936TIP3   OH254222   3.637   0.868   1.590 -0.1819  0.3449 -0.0825
10936TIP3    H154223   3.664   0.945   1.639  0.5067  0.6110 -0.8564
10936TIP3    H254224   3.558   0.837   1.635 -0.6920  1.7198  0.0141
10937TIP3   OH254225   6.688   2.043  12.341 -0.1259 -0.3971  0.4547
10937TIP3    H154226   6.605   2.089  12.331  0.0445  0.6203  2.9553
10937TIP3    H254227   6.742   2.101  12.395  2.1308 -1.1671 -0.8295
10938TIP3   OH254228   2.168   6.524   3.842 -0.0585 -0.1356 -0.3975
10938TIP3    H154229   2.187   6.430   3.832 -1.5552 -0.7478  1.8372
10938TIP3    H254230   2.091   6.539   3.788  0.7395  0.0768 -1.5220
10939TIP3   OH254231   5.809   4.679   4.830 -0.3217  0.5855  0.6698
10939TIP3    H154232   5.725   4.715   4.800 -0.4501  0.3307  0.7184
10939TIP3    H254233   5.863   4.755   4.848 -0.6095  0.7536  0.8210
10940TIP3   OH254234   3.299   4.243   0.665 -0.6569 -0.2714  0.0803
10940TIP3    H154235   3.306   4.150   0.644 -0.6809 -0.6284  1.5091
10940TIP3    H254236   3.368   4.258   0.730 -0.6863  0.6919 -0.0945
10941TIP3   OH254237   5.245   2.874   2.230  0.3376  0.0316  0.1060
10941TIP3    H154238   5.285   2.788   2.223 -0.1251 -0.1584 -0.2027
10941TIP3    H254239   5.308   2.933   2.189  1.4104  0.0896  1.7373
10942TIP3   OH254240   4.346   1.663   2.017 -0.0108  0.3989 -0.2681
10942TIP3    H154241   4.436   1.694   2.008  1.2490 -1.8592  2.7954
10942TIP3    H254242   4.339   1.591   1.955  0.0018  1.0579 -1.0538
10943TIP3   OH254243   0.321   5.711  16.628 -0.4008 -0.6712 -0.2461
10943TIP3    H154244   0.280   5.750  16.551  0.3695 -0.8815 -0.7753
10943TIP3    H254245   0.393   5.659  16.593  1.2157  0.8031  0.7279
10944TIP3   OH254246   1.544   4.463   3.017 -0.4899  0.2067  0.2759
10944TIP3    H154247   1.557   4.462   3.111 -1.6199  0.9638  0.4525
10944TIP3    H254248   1.629   4.437   2.981  0.0247  0.1642  1.4847
10945TIP3   OH254249   2.608   4.694  13.189 -0.1574  0.6245  0.1224
10945TIP3    H154250   2.627   4.706  13.282 -0.7603  0.3381  0.2866
10945TIP3    H254251   2.597   4.599  13.180 -0.3693  0.6806 -0.1910
10946TIP3   OH254252   6.050   0.219  17.045 -0.0007  0.1644  0.0162
10946TIP3    H154253   5.992   0.182  17.111 -0.5290  0.2791 -0.3800
10946TIP3    H254254   6.138   0.197  17.076 -0.2420  0.2572  0.7772
10947TIP3   OH254255   5.376   4.219   3.363  0.2814 -0.1472 -0.0473
10947TIP3    H154256   5.336   4.142   3.403 -0.4897  0.7771  1.0185
10947TIP3    H254257   5.315   4.245   3.295 -0.4847  0.6654  0.9110
10948TIP3   OH254258   3.068   3.207   1.237 -0.1190 -0.1170 -0.0966
10948TIP3    H154259   3.101   3.193   1.326 -0.3710  1.3905  0.2559
10948TIP3    H254260   3.139   3.179   1.180 -0.2058 -1.7560  0.5430
10949TIP3   OH254261   3.527   6.194  10.548  0.3493  0.7203 -0.1156
10949TIP3    H154262   3.551   6.187  10.456 -3.6265  0.9524 -1.3723
10949TIP3    H254263   3.549   6.109  10.585  1.0266  0.2178 -1.5837
10950TIP3   OH254264   3.863   1.908   4.795  0.4326 -0.1595 -0.4826
10950TIP3    H154265   3.845   1.850   4.721  2.1585  0.0489 -1.1129
10950TIP3    H254266   3.869   1.995   4.757  1.4050 -0.0560 -0.1292
10951TIP3   OH254267   1.787   2.576  13.166 -0.2106  0.4831  0.7206
10951TIP3    H154268   1.713   2.631  13.142  0.1113  0.6956  0.1966
10951TIP3    H254269   1.841   2.631  13.223 -0.3017  0.4302  0.8588
10952TIP3   OH254270   6.043   0.745   6.496 -0.4211 -0.2512 -0.1724
10952TIP3    H154271   6.112   0.791   6.544 -0.5768 -0.3174  0.1145
10952TIP3    H254272   6.072   0.654   6.493  1.1995  0.2153 -2.9887
10953TIP3   OH254273   6.198   5.321  14.311  0.3965  0.6507  0.0072
10953TIP3    H154274   6.143   5.337  14.388 -0.7627  0.0762 -0.6848
10953TIP3    H254275   6.222   5.409  14.281  1.9561  0.8742  1.7617
10954TIP3   OH254276   4.203   0.245  11.528 -0.4488  0.4876  0.3098
10954TIP3    H154277   4.172   0.277  11.613  1.3059  0.2968  1.0643
10954TIP3    H254278   4.290   0.211  11.546 -0.5501 -0.7463 -1.3358
10955TIP3   OH254279   6.003   1.993  14.544 -0.7049  0.4583 -0.1682
10955TIP3    H154280   6.079   1.949  14.582 -1.7663 -1.8536 -0.5618
10955TIP3    H254281   5.962   2.037  14.619 -1.1704 -1.6444  0.9139
10956TIP3   OH254282   0.294   5.445  15.757  0.4959 -0.4802  0.0907
10956TIP3    H154283   0.235   5.462  15.684 -1.7687 -1.1805  1.6607
10956TIP3    H254284   0.353   5.520  15.759  1.3871 -0.9574 -3.0705
10957TIP3   OH254285   3.416   4.669   1.292 -0.2282  0.4427 -0.2443
10957TIP3    H154286   3.459   4.687   1.208  0.6541  1.1933  0.3484
10957TIP3    H254287   3.339   4.726   1.292  0.9508  2.1299  0.3489
10958TIP3   OH254288   1.792   0.622   6.668 -0.1908 -0.4174  0.7650
10958TIP3    H154289   1.730   0.646   6.598 -2.5950 -2.1169  2.1556
10958TIP3    H254290   1.757   0.664   6.746 -0.2092 -2.2215  1.7832
10959TIP3   OH254291   5.727   4.160  12.346 -0.0402 -0.4931  0.1386
10959TIP3    H154292   5.753   4.100  12.416  0.5182  0.0912  0.4420
10959TIP3    H254293   5.731   4.247  12.386 -0.3862 -0.2122 -0.4238
10960TIP3   OH254294   5.182   3.602   2.566  0.4229  0.3918  0.2077
10960TIP3    H154295   5.151   3.681   2.611  0.3188  1.5232 -1.7326
10960TIP3    H254296   5.136   3.530   2.609  0.9040  1.2883  2.3887
10961TIP3   OH254297   5.264   2.978   1.619 -0.0924  0.0146  0.5761
10961TIP3    H154298   5.309   3.044   1.672  0.9033  0.5183 -0.8431
10961TIP3    H254299   5.240   2.910   1.682 -0.1918  1.2217  1.8996
10962TIP3   OH254300   3.899   3.428   3.650 -0.1821 -0.0253 -0.0717
10962TIP3    H154301   3.819   3.380   3.628 -1.5057  2.4746 -1.2094
10962TIP3    H254302   3.959   3.412   3.578 -0.5023 -0.1992 -0.2974
10963TIP3   OH254303   0.867   5.993   1.129 -0.3349  0.1790 -0.1282
10963TIP3    H154304   0.900   5.917   1.082  1.1088  0.3008  0.6406
10963TIP3    H254305   0.913   5.992   1.212 -0.6306  1.6318  0.0825
10964TIP3   OH254306   0.956   6.138   3.947 -0.3283  0.2797 -0.1541
10964TIP3    H154307   0.978   6.083   4.022 -0.6955  2.6690  1.8158
10964TIP3    H254308   1.039   6.181   3.924 -0.2951 -0.1795 -0.9161
10965TIP3   OH254309   6.284   5.807   1.111  0.3049  0.2792 -0.6832
10965TIP3    H154310   6.348   5.791   1.041 -0.4541 -0.9406 -1.1335
10965TIP3    H254311   6.201   5.776   1.075 -0.2028  0.1331  0.5628
10966TIP3   OH254312   5.753   2.365   0.916  0.4102 -0.1553  0.0894
10966TIP3    H154313   5.725   2.278   0.945  2.1427 -0.4662  0.9391
10966TIP3    H254314   5.791   2.351   0.830  0.4592 -0.1964  0.1180
10967TIP3   OH254315   2.923   4.860  16.921 -0.0217 -0.4587 -0.7741
10967TIP3    H154316   2.855   4.836  16.983  0.1140  0.8784 -0.0750
10967TIP3    H254317   2.876   4.896  16.846 -0.1056  0.4778 -0.2856
10968TIP3   OH254318   0.034   4.810   3.899 -0.4917 -0.1711  0.2931
10968TIP3    H154319   0.012   4.755   3.974  0.7275 -3.3153 -1.4635
10968TIP3    H254320  -0.034   4.792   3.835 -0.1794  0.5472 -0.2509
10969TIP3   OH254321   4.936   2.412   0.055 -0.2242  0.5928 -0.2121
10969TIP3    H154322   4.959   2.322   0.032  1.1945  0.4193  1.6957
10969TIP3    H254323   4.987   2.431   0.133 -0.7195  2.9725 -0.3889
10970TIP3   OH254324   0.640   2.006   4.711  0.4637 -0.1071 -0.0246
10970TIP3    H154325   0.702   1.974   4.776  0.8865 -0.5463 -0.6202
10970TIP3    H254326   0.673   1.970   4.628 -0.9883 -0.9758 -0.2653
10971TIP3   OH254327   1.750   4.233  12.829 -0.7281 -0.0732 -0.0259
10971TIP3    H154328   1.806   4.288  12.774  0.8361 -2.1349 -0.6045
10971TIP3    H254329   1.695   4.186  12.766  1.4191 -2.8283 -0.0307
10972TIP3   OH254330   5.662   0.403   0.332  0.1874  0.3723  0.2518
10972TIP3    H154331   5.614   0.486   0.331 -2.1031 -0.7982  2.4524
10972TIP3    H254332   5.711   0.404   0.414 -0.2673 -0.6475  0.5483
10973TIP3   OH254333   3.643   5.625   3.848  0.3699 -0.2328  0.2931
10973TIP3    H154334   3.709   5.679   3.892  0.4774 -1.9703  2.4133
10973TIP3    H254335   3.573   5.617   3.912  0.0306 -1.9806 -0.2609
10974TIP3   OH254336   1.334   6.557   5.639  0.3591  0.0377 -0.2015
10974TIP3    H154337   1.258   6.534   5.584 -0.6376 -0.3533  1.2819
10974TIP3    H254338   1.323   6.650   5.658  1.0810  0.3401 -1.2038
10975TIP3   OH254339   6.265   6.076  14.458  0.0330 -0.1808  0.6988
10975TIP3    H154340   6.351   6.118  14.463  0.8768 -1.0667 -3.0615
10975TIP3    H254341   6.209   6.143  14.418 -0.1579 -0.6550  0.1637
10976TIP3   OH254342   4.015   2.690   4.993 -0.2669 -0.6843 -0.1452
10976TIP3    H154343   4.065   2.608   4.986  1.1299 -0.0230  1.4923
10976TIP3    H254344   3.988   2.694   5.084 -2.5533 -0.5305 -0.7887
10977TIP3   OH254345   6.476   0.426  16.922  0.1039 -0.1381 -0.0534
10977TIP3    H154346   6.391   0.421  16.965 -1.0552  0.0645 -2.1702
10977TIP3    H254347   6.530   0.478  16.982 -0.3310 -2.5493  2.6627
10978TIP3   OH254348   4.130   5.423   1.745  0.4201 -0.6571 -0.8958
10978TIP3    H154349   4.150   5.372   1.824 -0.0529  0.8340  0.2479
10978TIP3    H254350   4.215   5.453   1.714  0.4783  1.2891  0.8893
10979TIP3   OH254351   2.514   5.918   5.360  0.1443 -0.1616 -0.3193
10979TIP3    H154352   2.600   5.894   5.325  0.5293 -0.5709  0.8416
10979TIP3    H254353   2.502   6.010   5.336  0.7374 -0.2082 -0.8067
10980TIP3   OH254354   6.067   6.371   4.872  0.5480  0.3003  0.1695
10980TIP3    H154355   6.112   6.303   4.821 -0.5829 -1.4881  1.4488
10980TIP3    H254356   6.024   6.426   4.807 -1.6146 -2.4387 -0.8740
10981TIP3   OH254357   4.240   0.923  11.119 -0.0352  0.2664  0.0883
10981TIP3    H154358   4.202   0.835  11.118  0.6167 -0.0662  1.6563
10981TIP3    H254359   4.187   0.972  11.056 -0.0768 -1.3598 -1.2110
10982TIP3   OH254360   3.570   0.142   3.976 -0.4603  0.0414  0.6562
10982TIP3    H154361   3.508   0.194   4.027 -0.2236  0.1467  0.8393
10982TIP3    H254362   3.518   0.073   3.937 -0.6420 -0.0386  1.0433
10983TIP3   OH254363   3.324   5.367   0.302 -0.0662  0.2791  0.5137
10983TIP3    H154364   3.346   5.453   0.268 -0.2610  0.0105 -0.3200
10983TIP3    H254365   3.397   5.311   0.274  0.5698  0.3669  1.9226
10984TIP3   OH254366   5.378   1.616  15.055  0.1745 -0.1050 -0.2279
10984TIP3    H154367   5.336   1.690  15.010  3.1846 -0.0447 -3.3408
10984TIP3    H254368   5.434   1.658  15.121 -1.1283  0.0660  0.8120
10985TIP3   OH254369   3.634   3.333   1.339 -0.3769 -0.0399  0.0744
10985TIP3    H154370   3.603   3.367   1.423 -2.1525 -2.6698  0.6254
10985TIP3    H254371   3.729   3.334   1.346 -0.3706  2.9593  0.6868
10986TIP3   OH254372   6.545   5.415   4.016 -0.9128  0.1815 -0.3269
10986TIP3    H154373   6.610   5.482   4.039 -1.7879  0.9842 -0.1276
10986TIP3    H254374   6.591   5.357   3.956  1.1188 -1.3751  2.5197
10987TIP3   OH254375   3.937   3.207   1.704 -0.1490 -0.0130  0.3450
10987TIP3    H154376   3.982   3.124   1.716 -0.3170 -0.2209 -0.3780
10987TIP3    H254377   3.958   3.233   1.614 -0.5504  0.4439  0.3764
10988TIP3   OH254378   4.447   1.613  15.119  0.3037 -0.3484  0.7780
10988TIP3    H154379   4.475   1.674  15.188  0.4651  1.1322 -0.5296
10988TIP3    H254380   4.516   1.547  15.116  0.6689 -0.0150  1.5333
10989TIP3   OH254381   1.551   0.465   3.464  0.3469  0.1944  0.8546
10989TIP3    H154382   1.548   0.502   3.553 -0.4076 -0.6155  1.1786
10989TIP3    H254383   1.601   0.384   3.473  0.5962  0.3035  0.4617
10990TIP3   OH254384   2.639   2.646   3.564  0.6742 -0.6604  0.5923
10990TIP3    H154385   2.551   2.683   3.567  0.7253 -0.4849  0.1507
10990TIP3    H254386   2.635   2.581   3.494  1.7157  1.6689 -1.8257
10991TIP3   OH254387   4.843   0.302   0.336  0.7817 -0.0121 -0.1303
10991TIP3    H154388   4.865   0.209   0.334  1.0001  0.0102  0.6937
10991TIP3    H254389   4.749   0.304   0.355  0.7948 -0.0618 -0.0612
10992TIP3   OH254390   5.903   4.686  16.532  0.6669  0.7327 -0.2110
10992TIP3    H154391   5.817   4.690  16.490  0.8883  0.9077 -0.6508
10992TIP3    H254392   5.903   4.760  16.593  0.3443  0.4750  0.1078
10993TIP3   OH254393   5.060   2.188  13.538 -0.2270  0.0970 -0.1617
10993TIP3    H154394   4.978   2.195  13.588  0.1709  0.6672  0.4313
10993TIP3    H254395   5.079   2.094  13.537 -0.6425  0.0074  0.1064
10994TIP3   OH254396   3.897   0.104   4.479 -0.1101  0.5204  0.0030
10994TIP3    H154397   3.978   0.072   4.520 -0.5834 -0.5792  0.1252
10994TIP3    H254398   3.883   0.190   4.519  1.5393  1.2097 -0.7956
10995TIP3   OH254399   6.373   3.220   0.506 -0.0618 -0.3004 -0.1425
10995TIP3    H154400   6.420   3.237   0.588 -1.6231 -0.8769  0.9066
10995TIP3    H254401   6.349   3.307   0.474  1.4874 -0.0021 -0.6034
10996TIP3   OH254402   6.483   1.871  13.710 -0.4215 -0.6611 -0.2656
10996TIP3    H154403   6.501   1.809  13.639 -0.1274 -1.5010  0.5210
10996TIP3    H254404   6.441   1.946  13.667  0.0912 -0.9895 -1.3708
10997TIP3   OH254405   3.419   1.223  11.102  0.6482  0.1964  0.0700
10997TIP3    H154406   3.345   1.166  11.122  0.3610  0.4892 -0.1363
10997TIP3    H254407   3.399   1.258  11.015  1.2392 -0.0527 -0.1659
10998TIP3   OH254408   1.197   2.452   5.401 -0.5769  0.2434  0.7713
10998TIP3    H154409   1.283   2.494   5.389  0.5573 -2.3671 -1.2946
10998TIP3    H254410   1.209   2.395   5.478 -0.9522  0.9157  1.3417
10999TIP3   OH254411   0.155   2.542   0.011 -0.1420 -0.5479 -0.3304
10999TIP3    H154412   0.083   2.602  -0.009  1.5434  2.1394  1.1089
10999TIP3    H254413   0.191   2.519  -0.074 -2.5268 -1.8588 -1.0740
11000TIP3   OH254414   2.789   1.994  11.356 -0.6422 -0.0707  0.0868
11000TIP3    H154415   2.697   1.998  11.383 -1.3191  0.2117 -2.0855
11000TIP3    H254416   2.819   2.084  11.363 -1.0063  0.1170 -0.6882
11001TIP3   OH254417   2.630   4.571  15.434  0.3542 -0.2814  0.1037
11001TIP3    H154418   2.650   4.624  15.357 -0.9433  1.4957  0.9277
11001TIP3    H254419   2.699   4.504  15.436  1.2179  0.4859 -1.7824
11002TIP3   OH254420   1.473   3.629  14.541  0.5760 -0.2001 -0.0998
11002TIP3    H154421   1.455   3.700  14.603  0.9877  0.0485 -0.2537
11002TIP3    H254422   1.483   3.674  14.456 -1.0023 -0.6439 -0.5404
11003TIP3   OH254423   4.727   0.855   2.196  0.2457  0.4729  0.1248
11003TIP3    H154424   4.645   0.813   2.221 -0.0061 -0.2032 -1.7147
11003TIP3    H254425   4.751   0.814   2.113  1.6344  1.7614 -0.1573
11004TIP3   OH254426   0.411   0.765   2.332  0.2353  0.1016  0.4125
11004TIP3    H154427   0.354   0.779   2.408  0.0005 -0.1403  0.2828
11004TIP3    H254428   0.472   0.839   2.334 -0.2177  0.4803  0.4296
11005TIP3   OH254429   4.125   5.566  11.524  0.2267 -0.2026 -0.2399
11005TIP3    H154430   4.133   5.504  11.451 -0.2771  0.0175 -0.4894
11005TIP3    H254431   4.058   5.528  11.580 -1.9584  1.3143 -1.6688
11006TIP3   OH254432   1.297   2.754   2.373  0.2158  0.2369  0.5133
11006TIP3    H154433   1.232   2.803   2.424  0.3371  1.1335 -0.1497
11006TIP3    H254434   1.381   2.780   2.410  0.2888  0.6603  0.0620
11007TIP3   OH254435   4.165   2.943  12.591  0.0400  0.0403 -0.9016
11007TIP3    H154436   4.138   2.855  12.619  1.3971  0.1395  0.8233
11007TIP3    H254437   4.096   3.001  12.624  0.0447 -0.1781 -0.5128
11008TIP3   OH254438   2.401   1.988  16.261 -0.1638  0.2630  0.1411
11008TIP3    H154439   2.332   1.975  16.196 -0.9551 -0.8142  1.1491
11008TIP3    H254440   2.481   2.001  16.209 -0.8104 -0.3008 -1.0439
11009TIP3   OH254441   1.941   5.144  15.228 -0.4441 -0.6977  0.3840
11009TIP3    H154442   1.946   5.080  15.158 -0.5918  0.3314 -0.6088
11009TIP3    H254443   1.850   5.142  15.257 -1.1179  0.8247 -1.4212
11010TIP3   OH254444   6.050   5.662  15.762 -0.5374 -0.0546 -0.5341
11010TIP3    H154445   6.133   5.670  15.714  0.9711 -0.1611  1.8642
11010TIP3    H254446   5.995   5.731  15.727  2.0525  2.7462  0.5175
11011TIP3   OH254447   1.466   1.279   1.672 -0.1514 -0.0010  0.8367
11011TIP3    H154448   1.386   1.281   1.726 -0.9572  0.5773 -0.3262
11011TIP3    H254449   1.439   1.319   1.589  1.4296  0.4368  0.5051
11012TIP3   OH254450   4.558   1.336  12.139  0.0740  0.0139  0.4556
11012TIP3    H154451   4.522   1.372  12.058 -0.0300 -1.7208 -0.3098
11012TIP3    H254452   4.625   1.274  12.110 -2.1093 -3.0569  1.4652
11013TIP3   OH254453   6.469   4.020  11.699  0.3756 -0.0719  0.0553
11013TIP3    H154454   6.439   4.100  11.743  0.0818 -1.1016  1.8435
11013TIP3    H254455   6.408   4.007  11.627 -1.5219 -0.3163  1.6207
11014TIP3   OH254456   2.556   4.861   3.140 -0.7066  0.0277 -0.0090
11014TIP3    H154457   2.571   4.870   3.046 -0.7421 -0.1531 -0.0320
11014TIP3    H254458   2.516   4.945   3.166  0.8798  0.7659  0.1725
11015TIP3   OH254459   3.583   4.489  13.887  0.0581 -0.2575 -0.1813
11015TIP3    H154460   3.559   4.492  13.794  0.0180 -0.1537 -0.1679
11015TIP3    H254461   3.568   4.578  13.919 -0.4665 -0.4312  0.0601
11016TIP3   OH254462   0.201   5.570   0.717  0.1056  0.0397 -0.4482
11016TIP3    H154463   0.122   5.534   0.677 -0.2194 -0.5683  0.6968
11016TIP3    H254464   0.223   5.646   0.663  0.2000 -1.2295 -2.3039
11017TIP3   OH254465   4.663   2.905  15.029  0.0949  0.8209 -0.1666
11017TIP3    H154466   4.617   2.895  14.946  0.8779 -0.2048 -0.4920
11017TIP3    H254467   4.600   2.952  15.085 -1.0666  0.1089 -0.8229
11018TIP3   OH254468   6.750   5.888  16.478 -0.0062 -0.5033  0.1376
11018TIP3    H154469   6.758   5.982  16.493 -1.6712 -0.4250  0.8145
11018TIP3    H254470   6.683   5.860  16.540 -0.6210 -1.8599 -1.0752
11019TIP3   OH254471   2.828   4.475  16.269 -0.4619 -0.5487  0.0676
11019TIP3    H154472   2.902   4.442  16.321  1.6781  2.2189 -0.9573
11019TIP3    H254473   2.823   4.416  16.194  0.7227 -0.8046  0.1699
11020TIP3   OH254474   3.550   1.586   4.108 -0.6204  0.3003  0.1279
11020TIP3    H154475   3.610   1.519   4.074 -1.3166  0.0132 -0.5778
11020TIP3    H254476   3.580   1.668   4.069 -0.3145  0.2516  0.2636
11021TIP3   OH254477   6.197   0.816  15.081  0.3363  0.3029  0.1032
11021TIP3    H154478   6.139   0.858  15.017 -0.2231 -1.4762 -0.6032
11021TIP3    H254479   6.261   0.884  15.102 -0.6363  1.5687 -0.8524
11022TIP3   OH254480   1.931   2.893  12.276  0.2661  0.6743 -0.1852
11022TIP3    H154481   1.983   2.971  12.294  0.9948  0.5421 -1.5808
11022TIP3    H254482   1.992   2.833  12.232 -0.5352 -0.2986 -0.0156
11023TIP3   OH254483   5.485   6.323  15.438 -0.1360 -0.3799 -0.1841
11023TIP3    H154484   5.543   6.247  15.444 -0.3173 -0.5921 -1.0087
11023TIP3    H254485   5.398   6.286  15.424 -0.3385 -0.0334  0.1393
11024TIP3   OH254486   0.279   1.357   3.604  0.3178  0.2980  0.7376
11024TIP3    H154487   0.280   1.272   3.559 -2.3565  0.3045  0.5212
11024TIP3    H254488   0.249   1.337   3.692 -0.9442  1.0438  0.5030
11025TIP3   OH254489   3.716   5.225  13.160  0.6795  0.0896 -0.0093
11025TIP3    H154490   3.747   5.316  13.169  1.5638 -0.1517 -0.4438
11025TIP3    H254491   3.681   5.221  13.071 -0.3565  0.2761  0.3764
11026TIP3   OH254492   1.631   6.714   4.596 -0.5049 -0.0288  0.4123
11026TIP3    H154493   1.554   6.747   4.551  0.0279  1.9004  0.8361
11026TIP3    H254494   1.635   6.621   4.572 -2.7842 -0.1197  0.1814
11027TIP3   OH254495   0.838   4.753   2.416 -0.8344 -0.2037  0.1637
11027TIP3    H154496   0.851   4.731   2.508  0.0112 -1.3166 -0.2068
11027TIP3    H254497   0.906   4.705   2.369 -1.3378  0.2305 -1.0684
11028TIP3   OH254498   2.952   2.809   0.777 -0.0253 -0.3534  0.4627
11028TIP3    H154499   3.025   2.760   0.740  2.9198  2.5488  1.9045
11028TIP3    H254500   2.917   2.860   0.703  0.0582 -0.9967 -0.0273
11029TIP3   OH254501   4.419   0.142  13.641  0.0414  0.1553  0.1625
11029TIP3    H154502   4.382   0.164  13.726  1.2293  0.5033  0.6116
11029TIP3    H254503   4.513   0.154  13.652  0.2626 -0.2972 -1.0554
11030TIP3   OH254504   4.376   6.354  11.297 -0.2342  0.5220  0.2005
11030TIP3    H154505   4.403   6.337  11.387 -2.4297  0.2288  0.8699
11030TIP3    H254506   4.281   6.368  11.302 -1.4167 -4.2156 -2.5835
11031TIP3   OH254507   1.870   0.575  11.291 -0.2883 -0.0373  0.2912
11031TIP3    H154508   1.785   0.584  11.247 -0.3559 -0.9071  0.2244
11031TIP3    H254509   1.935   0.592  11.222 -0.3908 -1.5978 -0.2371
11032TIP3   OH254510   0.916   3.986   0.481  0.5486  0.4792  0.4870
11032TIP3    H154511   0.929   4.026   0.567 -0.1037  0.9274  0.3838
11032TIP3    H254512   0.983   4.025   0.425 -0.0770  1.4344  0.3899
11033TIP3   OH254513   6.479   3.982   1.293  0.1634 -0.4294  0.0893
11033TIP3    H154514   6.461   3.890   1.274  3.5284 -1.3188  0.7198
11033TIP3    H254515   6.488   3.986   1.388  2.1566  0.0548 -0.0778
11034TIP3   OH254516   4.307   2.441   0.862 -0.0873  0.4176  0.3033
11034TIP3    H154517   4.357   2.361   0.878 -0.9220  0.1516  1.7000
11034TIP3    H254518   4.269   2.464   0.947 -0.2908  2.0185 -0.1797
11035TIP3   OH254519   3.519   3.043  11.229  0.0384 -0.3285 -0.6942
11035TIP3    H154520   3.498   3.135  11.245  0.3384 -0.4207  0.3124
11035TIP3    H254521   3.614   3.040  11.224  0.1284 -0.7933  0.8314
11036TIP3   OH254522   5.628   2.107  15.610  0.0773  0.2705  0.4530
11036TIP3    H154523   5.709   2.151  15.633  1.4794 -1.1938 -1.3910
11036TIP3    H254524   5.653   2.015  15.596 -1.2891  0.2499 -2.8025
11037TIP3   OH254525   2.224   3.463  11.021  0.1792 -0.3771  0.0249
11037TIP3    H154526   2.196   3.398  11.087  1.1405 -0.5239  0.2979
11037TIP3    H254527   2.173   3.441  10.943 -0.7351 -0.4088  0.6122
11038TIP3   OH254528   6.495   4.622  12.668  0.6888  0.0735 -0.1595
11038TIP3    H154529   6.571   4.574  12.635  1.0123  0.9184 -0.6657
11038TIP3    H254530   6.506   4.711  12.635  0.7668  0.8603  1.8354
11039TIP3   OH254531   5.685   5.576  17.021 -0.0578  0.1441 -0.0667
11039TIP3    H154532   5.606   5.627  17.001 -0.9634 -1.5338 -0.9289
11039TIP3    H254533   5.661   5.522  17.096  0.7700  0.6744  0.5999
11040TIP3   OH254534   3.679   3.083  14.031 -0.3828  0.4179  0.1029
11040TIP3    H154535   3.609   3.021  14.010 -0.5582  0.5419  0.3168
11040TIP3    H254536   3.681   3.142  13.955 -2.6997  2.3886  1.4302
11041TIP3   OH254537   4.413   3.277   1.406 -0.1476 -0.3535  0.0879
11041TIP3    H154538   4.453   3.302   1.323  1.1514 -1.9520  0.1718
11041TIP3    H254539   4.482   3.287   1.471 -0.2484 -1.8635  0.4717
11042TIP3   OH254540   5.127   3.680  13.763 -0.0683  0.3384  0.1283
11042TIP3    H154541   5.114   3.731  13.683 -0.4157  0.7536  0.4518
11042TIP3    H254542   5.058   3.613  13.760  0.9498 -0.7404 -0.7697
11043TIP3   OH254543   4.882   3.694   1.052  0.0692 -0.3046  0.2206
11043TIP3    H154544   4.873   3.682   0.957 -1.8945  1.3039  0.1401
11043TIP3    H254545   4.965   3.742   1.062 -1.2646  2.5374 -1.0898
11044TIP3   OH254546   0.018   2.710  11.592  0.1118 -0.0551  0.0221
11044TIP3    H154547   0.109   2.681  11.589  0.2776 -0.0593  2.4900
11044TIP3    H254548   0.023   2.805  11.603  0.0196 -0.2939  2.9784
11045TIP3   OH254549   2.840   6.443  12.694 -0.2621 -0.0298 -0.0275
11045TIP3    H154550   2.840   6.387  12.771  0.5152 -1.3021 -0.9139
11045TIP3    H254551   2.894   6.518  12.718 -1.0729  0.2288  1.0742
11046TIP3   OH254552   2.695   0.831  14.577  0.0307  0.1653  0.7976
11046TIP3    H154553   2.615   0.868  14.614 -0.4862  1.5384 -1.4788
11046TIP3    H254554   2.729   0.900  14.519  0.8980 -1.6833 -1.0203
11047TIP3   OH254555   5.048   5.169  13.158  0.5441 -0.3251 -0.8014
11047TIP3    H154556   5.006   5.084  13.145 -0.4866  0.4016 -2.4974
11047TIP3    H254557   5.048   5.210  13.071  0.7017  1.5401  0.0254
11048TIP3   OH254558   6.204   2.856  16.303  0.0833  0.2029  0.2342
11048TIP3    H154559   6.291   2.874  16.338 -0.0549  2.8862 -0.5734
11048TIP3    H254560   6.216   2.858  16.208 -0.6782 -0.5053  0.1128
11049TIP3   OH254561   3.396   5.622  11.516 -0.1719  0.0032 -0.3606
11049TIP3    H154562   3.376   5.671  11.436  0.2371  0.8472  0.0485
11049TIP3    H254563   3.490   5.604  11.510 -0.3193 -0.7286 -0.5041
11050TIP3   OH254564   1.875   2.101  15.915 -0.6244  0.0189 -0.1472
11050TIP3    H154565   1.936   2.148  15.859  0.2606 -0.6769  0.1930
11050TIP3    H254566   1.911   2.112  16.003 -1.4276  0.2401  0.1635
11051TIP3   OH254567   5.736   4.126  14.352 -0.6907  0.2043 -0.1376
11051TIP3    H154568   5.693   4.210  14.366  0.3384  0.7977 -0.4574
11051TIP3    H254569   5.784   4.137  14.270  1.8361  0.3213  1.2510
11052TIP3   OH254570   0.599   2.768  15.512 -0.2752  0.1388  0.5317
11052TIP3    H154571   0.515   2.774  15.468 -1.5242 -2.5995  2.2643
11052TIP3    H254572   0.592   2.827  15.587 -0.0920  0.9708 -0.0991
11053TIP3   OH254573   0.618   3.528   2.522 -0.1010 -0.2740 -0.3506
11053TIP3    H154574   0.690   3.498   2.578 -0.0658  1.2281  0.4613
11053TIP3    H254575   0.552   3.459   2.529  1.4348 -2.0167 -1.6153
11054TIP3   OH254576   0.646   0.701   1.170 -0.4545  0.0450  0.2138
11054TIP3    H154577   0.678   0.759   1.240  3.6949 -0.7787 -0.7309
11054TIP3    H254578   0.676   0.743   1.089 -0.5128 -1.6344 -0.7111
11055TIP3   OH254579   1.631   3.732   4.716  0.3157 -0.1604  0.1564
11055TIP3    H154580   1.579   3.726   4.796 -0.9537 -1.3965 -0.7067
11055TIP3    H254581   1.678   3.815   4.724 -0.8326  0.3994  1.5597
11056TIP3   OH254582   2.079   1.076  11.094  0.2436  0.4479  0.4672
11056TIP3    H154583   2.084   1.158  11.045 -1.8144 -0.6930 -1.8327
11056TIP3    H254584   2.059   1.102  11.183  1.9595  2.5109  0.3253
11057TIP3   OH254585   1.522   3.416   5.545  0.5430 -0.2457 -0.2663
11057TIP3    H154586   1.455   3.395   5.479  0.9238 -2.1382 -0.0942
11057TIP3    H254587   1.603   3.379   5.510  0.9245 -0.5062  0.8673
11058TIP3   OH254588   4.029   3.112   6.214 -0.3503  0.2160 -0.2624
11058TIP3    H154589   3.989   3.066   6.140 -0.6730 -0.0079  0.0479
11058TIP3    H254590   4.052   3.042   6.275 -0.0505  0.3969 -0.1671
11059TIP3   OH254591   6.156   5.065  16.426  0.0798 -0.2004 -0.1262
11059TIP3    H154592   6.124   5.149  16.461  0.8032  0.6176 -1.3557
11059TIP3    H254593   6.195   5.088  16.342 -0.1457 -1.8667 -0.7110
11060TIP3   OH254594   3.737   3.676   5.942  0.3035 -0.1770  0.2222
11060TIP3    H154595   3.815   3.691   5.995  1.3758 -0.1957 -1.2917
11060TIP3    H254596   3.678   3.749   5.964  0.8494 -0.0087  1.1640
11061TIP3   OH254597   2.986   0.154  15.707  0.3932 -0.0191  0.5697
11061TIP3    H154598   3.004   0.244  15.733 -0.6905 -0.0043  1.3315
11061TIP3    H254599   2.904   0.132  15.751  0.8471 -1.5205  0.7260
11062TIP3   OH254600   1.544   2.705  15.048  0.1392  0.0198  0.1558
11062TIP3    H154601   1.636   2.715  15.023  0.2126 -0.3254  0.2828
11062TIP3    H254602   1.517   2.622  15.008 -0.5674  0.8586 -1.1958
11063TIP3   OH254603   3.948   3.895  10.845  0.4494  0.1944 -0.0504
11063TIP3    H154604   3.894   3.838  10.791  0.0956 -0.3866  0.8969
11063TIP3    H254605   3.888   3.933  10.909  0.6816  1.6139 -0.6259
11064TIP3   OH254606   6.180   6.098  14.077 -0.5546 -0.4453 -0.1402
11064TIP3    H154607   6.254   6.151  14.048  0.5174 -1.3160  0.9097
11064TIP3    H254608   6.145   6.146  14.152  0.3558 -1.1382  0.7504
11065TIP3   OH254609   6.201   0.367   1.621 -0.6910 -0.0757  0.8577
11065TIP3    H154610   6.248   0.319   1.689  0.2471  0.3641  0.5406
11065TIP3    H254611   6.267   0.424   1.582 -0.8530 -1.3127 -1.3585
11066TIP3   OH254612   1.462   3.274  16.587  0.3092 -0.3564  0.6921
11066TIP3    H154613   1.505   3.262  16.503  0.5773 -0.5725  0.8569
11066TIP3    H254614   1.419   3.359  16.581 -0.8519 -0.9751 -0.1728
11067TIP3   OH254615   4.856   0.459  14.526 -0.9935  0.3235 -0.0587
11067TIP3    H154616   4.800   0.492  14.596  0.2842  0.4856  0.9157
11067TIP3    H254617   4.932   0.420  14.571  0.3594  1.3475 -1.3472
11068TIP3   OH254618   4.964   4.883   0.115  0.5108  0.4016 -0.0692
11068TIP3    H154619   4.903   4.896   0.041 -0.3931  1.0760  0.7667
11068TIP3    H254620   4.957   4.789   0.134 -1.6428  0.7268  1.1130
11069TIP3   OH254621   1.221   3.818  15.304 -0.2590  0.3528 -0.2708
11069TIP3    H154622   1.142   3.765  15.314  1.3573 -1.8606  2.2047
11069TIP3    H254623   1.285   3.759  15.264  0.7765  1.3765 -0.1861
11070TIP3   OH254624   1.064   4.943  11.757 -0.2116 -0.0463  0.0675
11070TIP3    H154625   1.085   5.025  11.712  1.8455  0.7135  2.2174
11070TIP3    H254626   0.970   4.949  11.776 -0.2219  1.5339 -0.3634
11071TIP3   OH254627   0.749   2.431  10.361  0.6376 -0.1785  0.5935
11071TIP3    H154628   0.658   2.451  10.339  0.4257 -0.8678  0.8071
11071TIP3    H254629   0.780   2.507  10.410  0.7065  0.8091 -0.9015
11072TIP3   OH254630   0.808   1.282  11.026  0.2721  0.0403  0.2940
11072TIP3    H154631   0.750   1.358  11.027  1.0718  0.7374 -1.4951
11072TIP3    H254632   0.799   1.247  10.937  0.7116 -1.3366  0.7693
11073TIP3   OH254633   5.018   2.946   1.161  0.2113  0.1868 -0.2229
11073TIP3    H154634   5.096   2.891   1.172 -0.2785 -1.0108 -2.1900
11073TIP3    H254635   4.967   2.932   1.241  1.5576  0.2655  0.6768
11074TIP3   OH254636   5.827   3.610   5.421  0.1774  0.0703  0.3558
11074TIP3    H154637   5.774   3.617   5.500  1.3562  1.0621  1.0975
11074TIP3    H254638   5.868   3.696   5.412  0.0523 -0.0147 -1.3619
11075TIP3   OH254639   4.909   2.443  14.618  0.0736 -0.4080  0.1271
11075TIP3    H154640   4.994   2.452  14.661 -0.0082  0.3219  0.1565
11075TIP3    H254641   4.929   2.420  14.528  0.2641 -1.4058  0.4147
11076TIP3   OH254642   3.072   1.131   3.060 -0.4559  0.1184  0.0889
11076TIP3    H154643   2.979   1.110   3.054 -0.3749 -0.0122 -0.8591
11076TIP3    H254644   3.099   1.097   3.145 -0.9705 -1.1055 -0.2144
11077TIP3   OH254645   6.765   1.161  12.380 -0.0717 -0.4281 -0.5727
11077TIP3    H154646   6.833   1.153  12.312 -0.7363 -0.3146 -1.2691
11077TIP3    H254647   6.747   1.072  12.407  1.0729 -0.3953  0.3559
11078TIP3   OH254648   0.284   3.673   2.110 -0.5354  0.1393  0.2448
11078TIP3    H154649   0.312   3.765   2.112 -0.4377  0.1080  1.3103
11078TIP3    H254650   0.340   3.631   2.176 -0.8683 -0.6016  0.0582
11079TIP3   OH254651   2.848   3.957  11.396 -0.3057 -0.2049 -0.3563
11079TIP3    H154652   2.841   3.969  11.491  1.3894 -0.1922 -0.2035
11079TIP3    H254653   2.850   3.862  11.384  1.5903 -0.2369 -0.1430
11080TIP3   OH254654   1.809   3.016  13.948  0.5004  1.0871 -0.0715
11080TIP3    H154655   1.716   3.006  13.968  0.6992  0.9156  0.8622
11080TIP3    H254656   1.837   3.088  14.005  1.2180  0.2200  0.7101
11081TIP3   OH254657   1.729   3.886   5.760  0.6305 -0.5440  0.3316
11081TIP3    H154658   1.660   3.867   5.696  0.2252 -0.0609  0.6172
11081TIP3    H254659   1.697   3.845   5.841  0.9076 -0.7305  0.3461
11082TIP3   OH254660   2.404   0.552   1.805  0.5316 -0.0832  0.3240
11082TIP3    H154661   2.402   0.642   1.773  1.2943  0.1878  0.9764
11082TIP3    H254662   2.318   0.517   1.784  1.0746 -0.0577 -2.3032
11083TIP3   OH254663   2.829   3.869  16.416 -0.0965 -0.4853 -0.2013
11083TIP3    H154664   2.807   3.958  16.445 -0.8148 -0.3995 -0.9671
11083TIP3    H254665   2.924   3.868  16.414 -0.0656  1.0480 -2.4377
11084TIP3   OH254666   0.856   0.989  14.441  0.0467  0.2226 -0.7870
11084TIP3    H154667   0.917   1.061  14.458 -0.0667 -0.0682  1.1670
11084TIP3    H254668   0.778   1.012  14.493 -0.2992 -0.8981 -0.7873
11085TIP3   OH254669   5.170   5.398  14.401 -0.3213 -0.7018  0.4911
11085TIP3    H154670   5.264   5.395  14.419 -0.2925 -1.6913  0.2623
11085TIP3    H254671   5.151   5.313  14.361 -1.2835 -0.4469  0.3838
11086TIP3   OH254672   2.946   4.152  12.304  0.4587  0.7302  0.2197
11086TIP3    H154673   3.007   4.217  12.339 -0.6177  1.1657  1.3471
11086TIP3    H254674   2.933   4.090  12.376 -2.1903  1.9100  0.8852
11087TIP3   OH254675   1.300   3.645  12.380 -0.4346  0.1837  0.2774
11087TIP3    H154676   1.218   3.681  12.346 -0.2971  0.5913  0.3676
11087TIP3    H254677   1.347   3.614  12.302 -0.8712 -0.4769  0.2698
11088TIP3   OH254678   1.697   2.013   0.713 -0.0391 -0.5260 -0.0808
11088TIP3    H154679   1.734   1.926   0.697  0.5745 -0.1992 -0.4534
11088TIP3    H254680   1.602   2.000   0.704  0.0828 -1.0419 -0.7053
11089TIP3   OH254681   3.884   0.096  12.086  0.3487 -0.1233 -0.5496
11089TIP3    H154682   3.870   0.170  12.027  1.1573 -0.2300 -0.8854
11089TIP3    H254683   3.966   0.116  12.131 -1.2460  0.9752  2.0996
11090TIP3   OH254684   0.537   3.825   0.521 -0.2929 -0.1973  0.1680
11090TIP3    H154685   0.478   3.764   0.475 -0.8256 -0.3207  0.9902
11090TIP3    H254686   0.624   3.793   0.500 -0.5624 -1.6298  1.0382
11091TIP3   OH254687   5.143   6.161  13.511 -0.2030 -0.2432 -0.7042
11091TIP3    H154688   5.095   6.092  13.557  0.6569 -0.8945 -0.7543
11091TIP3    H254689   5.078   6.204  13.457 -1.2560  0.5085  1.0631
11092TIP3   OH254690   4.570   1.548   3.813  0.0727 -0.1073 -0.3410
11092TIP3    H154691   4.603   1.479   3.871  0.3058 -0.0830 -0.4426
11092TIP3    H254692   4.573   1.628   3.867  1.2548  0.1078 -0.6895
11093TIP3   OH254693   2.539   2.565   4.249 -0.0392  0.5525  0.7771
11093TIP3    H154694   2.604   2.528   4.308 -1.3529 -0.7840  1.4302
11093TIP3    H254695   2.458   2.518   4.268 -0.7408  0.7148 -1.4518
11094TIP3   OH254696   6.383   1.628  13.248  0.5779 -0.0460  0.1537
11094TIP3    H154697   6.348   1.539  13.238  0.5167 -0.3369  2.3243
11094TIP3    H254698   6.460   1.630  13.191  0.0721 -1.1858 -0.6114
11095TIP3   OH254699   3.586   1.867  11.517 -0.4522  0.2643 -0.1204
11095TIP3    H154700   3.512   1.927  11.524 -1.0200 -0.1385 -2.0391
11095TIP3    H254701   3.548   1.787  11.482  0.3980 -1.0648  1.8414
11096TIP3   OH254702   1.428   5.709   4.544 -0.0749  0.5393  0.1573
11096TIP3    H154703   1.415   5.629   4.594 -1.6110  0.9181  0.4020
11096TIP3    H254704   1.492   5.685   4.476  0.4664 -0.5174  1.0255
11097TIP3   OH254705   5.573   1.909  16.744  0.3209 -0.2201  0.2573
11097TIP3    H154706   5.594   1.898  16.837 -0.9533 -0.2038  0.5759
11097TIP3    H254707   5.533   1.825  16.719 -0.4571  0.1929  0.0703
11098TIP3   OH254708   1.944   1.175   2.201  0.5570 -0.3655 -0.6267
11098TIP3    H154709   1.872   1.229   2.168 -0.8736 -1.7416  0.1153
11098TIP3    H254710   1.982   1.226   2.272 -0.3990 -0.0693 -0.3144
11099TIP3   OH254711   1.185   4.997  16.434 -0.5510 -0.8778  0.5869
11099TIP3    H154712   1.152   4.985  16.523 -0.6744  1.9180  0.9850
11099TIP3    H254713   1.242   5.073  16.439 -1.7966  0.3621 -2.0247
11100TIP3   OH254714   4.277   1.613   4.522 -0.4148 -0.4301  0.1003
11100TIP3    H154715   4.248   1.648   4.606 -1.4046 -1.4478  0.2117
11100TIP3    H254716   4.369   1.590   4.536 -0.0032  1.2371  0.2827
11101TIP3   OH254717   6.601   4.782   2.176  0.5609 -0.2801 -0.5975
11101TIP3    H154718   6.659   4.857   2.162  0.2087  0.3339  0.9891
11101TIP3    H254719   6.541   4.811   2.245  0.8669 -2.2520  0.5719
11102TIP3   OH254720   0.327   4.041   1.581 -0.2223 -0.1200  0.9318
11102TIP3    H154721   0.284   4.109   1.530  1.9741  1.4440  1.0364
11102TIP3    H254722   0.286   3.960   1.552 -1.9431  1.0950 -0.2283
11103TIP3   OH254723   2.922   4.793  11.124  0.0101  0.0892 -0.8282
11103TIP3    H154724   2.903   4.820  11.034 -0.0206  1.1524 -0.5160
11103TIP3    H254725   2.882   4.706  11.131 -1.9652  0.8947 -1.1938
11104TIP3   OH254726   4.537   4.221   5.228  0.1664 -0.8869 -0.3397
11104TIP3    H154727   4.482   4.197   5.153  0.6090 -0.4448 -0.8100
11104TIP3    H254728   4.624   4.235   5.191  0.3024 -0.2738  0.1927
11105TIP3   OH254729   6.040   1.781  11.012  0.7071 -0.3605  0.0052
11105TIP3    H154730   6.135   1.782  10.998  0.7192  0.4391  0.1012
11105TIP3    H254731   6.003   1.808  10.928  0.5825 -0.1902  0.1146
11106TIP3   OH254732   3.524   6.121   5.386 -0.3104 -0.2619  0.5513
11106TIP3    H154733   3.447   6.126   5.330  0.1362 -0.6041 -0.1089
11106TIP3    H254734   3.518   6.197   5.443 -2.3993 -1.5209  2.1807
11107TIP3   OH254735   0.365   0.272  10.998 -0.0503 -0.3438 -0.6817
11107TIP3    H154736   0.389   0.361  11.025  1.4294 -0.7054 -0.7267
11107TIP3    H254737   0.272   0.278  10.976 -0.5072  0.6846  1.3603
11108TIP3   OH254738   3.896   6.198  16.942 -0.0287  0.1536 -0.0966
11108TIP3    H154739   3.802   6.214  16.948  0.0640  1.4242 -1.5059
11108TIP3    H254740   3.917   6.150  17.022 -1.9198 -0.4523  0.0936
11109TIP3   OH254741   4.228   2.677  15.740 -0.2074 -0.6925 -0.7356
11109TIP3    H154742   4.229   2.598  15.686  0.6691 -0.8783 -0.4727
11109TIP3    H254743   4.306   2.725  15.712  0.4345 -0.9433  0.5750
11110TIP3   OH254744   6.302   5.242   6.092 -0.5884  0.1857 -0.0671
11110TIP3    H154745   6.318   5.203   6.178 -0.8947  1.4433  0.5903
11110TIP3    H254746   6.208   5.259   6.089 -0.4576  0.9384 -0.2835
11111TIP3   OH254747   0.562   3.314   6.207 -0.0785  0.2210 -0.4096
11111TIP3    H154748   0.474   3.345   6.230  0.6061  0.4920  2.1669
11111TIP3    H254749   0.547   3.229   6.164 -1.5915  0.0761  0.3491
11112TIP3   OH254750   2.152   5.653  15.805  0.1746  0.6566  0.3577
11112TIP3    H154751   2.199   5.588  15.858  0.6953  2.3064  2.0036
11112TIP3    H254752   2.131   5.606  15.724  0.4536 -1.5884  1.4828
11113TIP3   OH254753   4.874   6.502  16.283 -0.2305 -0.1641 -0.6107
11113TIP3    H154754   4.921   6.423  16.257 -2.9415 -2.1793  0.1348
11113TIP3    H254755   4.816   6.521  16.209 -1.5143 -0.5463  0.2546
11114TIP3   OH254756   2.722   1.173   2.041  0.0168 -0.3123 -0.0795
11114TIP3    H154757   2.654   1.160   1.974  1.1044  1.7139 -1.6779
11114TIP3    H254758   2.685   1.240   2.099 -0.2517 -0.8917  0.4387
11115TIP3   OH254759   5.710   5.263  11.978  0.1340  0.1304  0.0884
11115TIP3    H154760   5.735   5.178  12.013  0.4456 -0.3156 -1.1647
11115TIP3    H254761   5.655   5.302  12.046  1.6506 -0.1911  1.5706
11116TIP3   OH254762   3.762   5.428  11.836  0.0231  0.1975  0.5672
11116TIP3    H154763   3.677   5.386  11.844 -0.3339  0.9405  0.8529
11116TIP3    H254764   3.770   5.481  11.915 -0.0059  1.4496 -0.2334
11117TIP3   OH254765   2.122   5.025  12.355 -0.4644 -0.5185  0.0577
11117TIP3    H154766   2.078   4.982  12.429  0.1669  0.3798  0.9809
11117TIP3    H254767   2.214   4.997  12.362 -0.5437 -1.0647 -0.8766
11118TIP3   OH254768   4.517   5.227   3.273 -0.6390 -0.1882  0.4507
11118TIP3    H154769   4.460   5.280   3.329 -0.3942  1.6734 -0.9496
11118TIP3    H254770   4.577   5.290   3.233 -1.5361 -1.1931 -2.7944
11119TIP3   OH254771   2.993   1.077   3.746 -0.0965 -0.5429 -0.4487
11119TIP3    H154772   2.999   1.022   3.825 -2.0947 -0.5539 -0.2564
11119TIP3    H254773   2.929   1.144   3.769 -0.6530 -0.5060 -2.0417
11120TIP3   OH254774   1.513   2.897   1.817  0.2047 -0.0227 -0.0253
11120TIP3    H154775   1.425   2.861   1.824  0.0151  0.5131  0.4060
11120TIP3    H254776   1.566   2.840   1.872 -0.1641  0.5412  0.9550
11121TIP3   OH254777   4.337   5.698   3.696 -0.4749 -0.3366  0.1882
11121TIP3    H154778   4.259   5.658   3.657 -0.0211  0.1195 -1.2577
11121TIP3    H254779   4.410   5.646   3.662  0.0577  1.1113 -0.9938
11122TIP3   OH254780   3.431   2.436  10.734 -0.6131 -0.2145  0.3616
11122TIP3    H154781   3.493   2.382  10.685  0.6230 -0.4946  2.1340
11122TIP3    H254782   3.443   2.524  10.699 -0.4517 -0.5658 -0.4774
11123TIP3   OH254783   1.991   3.599  10.529 -0.1000 -0.3777  0.3716
11123TIP3    H154784   1.981   3.534  10.599  1.6452 -0.6368  0.4252
11123TIP3    H254785   2.033   3.551  10.457  0.6220  0.5340  0.1677
11124TIP3   OH254786   0.752   4.976  13.780  0.7378 -0.1272 -0.5261
11124TIP3    H154787   0.755   4.961  13.874  0.4169 -0.9035 -0.6307
11124TIP3    H254788   0.710   5.062  13.771  2.2056  0.6949  0.0754
11125TIP3   OH254789   3.270   1.539  11.118 -0.6878 -0.1385  0.3706
11125TIP3    H154790   3.232   1.509  11.201 -0.2144  0.2254  0.7237
11125TIP3    H254791   3.362   1.513  11.124 -0.3475  1.0561  0.5353
11126TIP3   OH254792   4.666   6.614  15.666  0.2688 -0.1480 -0.0344
11126TIP3    H154793   4.601   6.623  15.735 -0.2581 -1.6746 -0.3111
11126TIP3    H254794   4.730   6.683  15.685 -0.7867  0.6026  0.9271
11127TIP3   OH254795   5.061   3.338   2.167  0.2954  0.2869  0.5982
11127TIP3    H154796   5.080   3.249   2.137 -0.0611  0.1413  0.7919
11127TIP3    H254797   5.139   3.388   2.145  0.2789  0.0514 -0.0199
11128TIP3   OH254798   4.441   6.149   2.278  0.8055  0.3540  0.5949
11128TIP3    H154799   4.499   6.124   2.349  0.1540 -0.1454  0.9597
11128TIP3    H254800   4.354   6.120   2.306  0.3804  1.0592  0.0486
11129TIP3   OH254801   2.945   2.352   2.483  0.0264 -0.0157  0.0671
11129TIP3    H154802   2.947   2.404   2.564 -0.2038  0.3470 -0.1571
11129TIP3    H254803   2.919   2.264   2.512 -0.5713  0.2396  0.3289
11130TIP3   OH254804   4.153   4.763  11.891 -0.2047  0.4460  0.4002
11130TIP3    H154805   4.198   4.748  11.809 -1.1579 -0.2055 -0.0262
11130TIP3    H254806   4.185   4.695  11.950 -0.0591  0.4614  0.3367
11131TIP3   OH254807   1.561   3.964   5.314  0.1107  0.1571  0.4916
11131TIP3    H154808   1.604   4.049   5.314  1.7108 -0.5777 -1.4168
11131TIP3    H254809   1.471   3.983   5.287  0.8689  1.1200 -1.5880
11132TIP3   OH254810   6.001   4.055   3.482  0.1018 -0.1284 -0.3953
11132TIP3    H154811   6.077   4.097   3.443 -0.0964  0.3869 -0.2306
11132TIP3    H254812   5.970   4.117   3.548  1.4185 -1.6860  1.8123
11133TIP3   OH254813   1.968   2.195   0.113  0.0815  0.1887 -0.6980
11133TIP3    H154814   1.966   2.267   0.049  0.8730 -0.1273 -1.0914
11133TIP3    H254815   1.906   2.131   0.079 -0.0058  0.3235 -0.7937
11134TIP3   OH254816   6.657   3.454  11.477  0.4369 -0.5059  1.0862
11134TIP3    H154817   6.568   3.427  11.455  0.6942  0.7766 -2.1290
11134TIP3    H254818   6.706   3.373  11.488 -0.7144 -1.2310  0.9667
11135TIP3   OH254819   1.078   0.834  16.205  0.4579 -0.5163  0.7175
11135TIP3    H154820   1.068   0.837  16.300  2.2468 -1.4837  0.9875
11135TIP3    H254821   1.071   0.741  16.184 -0.8007 -0.2247 -0.2340
11136TIP3   OH254822   4.168   3.375   1.337 -0.4062 -0.3881 -0.3057
11136TIP3    H154823   4.150   3.469   1.339 -0.1179 -0.3418  0.8489
11136TIP3    H254824   4.261   3.368   1.356 -0.3865 -0.9082 -0.5655
11137TIP3   OH254825   2.461   0.241   3.010  0.6177 -1.1164  0.3975
11137TIP3    H154826   2.403   0.310   3.042  0.1237 -1.1698 -0.3564
11137TIP3    H254827   2.502   0.205   3.089  0.3766 -0.4101  0.8502
11138TIP3   OH254828   6.103   2.100  16.211 -0.0922 -0.1911 -0.0466
11138TIP3    H154829   6.091   2.038  16.139 -2.2933 -1.8777  1.6153
11138TIP3    H254830   6.014   2.128  16.233  0.7843  3.4811 -0.5369
11139TIP3   OH254831   4.016   4.793   1.327 -0.1143  0.3436 -0.3611
11139TIP3    H154832   3.978   4.880   1.323 -2.9723 -0.7740  0.2134
11139TIP3    H254833   3.945   4.737   1.359  2.2356 -1.8536  1.3947
11140TIP3   OH254834   5.987   5.677   2.624  0.0625 -0.1213  0.2454
11140TIP3    H154835   5.952   5.644   2.707 -1.3272 -0.0350 -0.2800
11140TIP3    H254836   5.951   5.766   2.616  0.0728 -0.1759 -0.4959
11141TIP3   OH254837   0.401   1.675  14.296  0.1472 -0.1425  0.2731
11141TIP3    H154838   0.442   1.756  14.267  0.3212 -0.3377 -0.0319
11141TIP3    H254839   0.339   1.653  14.226 -1.6306  0.9695  1.4236
11142TIP3   OH254840   3.605   1.764   0.476  0.1241  0.0539  0.5773
11142TIP3    H154841   3.572   1.724   0.557 -0.3785  1.9336  1.3567
11142TIP3    H254842   3.695   1.790   0.496 -0.3878  1.6236  0.9980
11143TIP3   OH254843   4.988   3.331  12.547 -0.0976  0.0649  0.1435
11143TIP3    H154844   5.024   3.244  12.531 -1.1914 -0.1605 -1.2591
11143TIP3    H254845   5.043   3.367  12.617  0.9947 -1.3543  0.0615
11144TIP3   OH254846   1.928   0.786  12.642  0.0984 -0.0112 -0.3602
11144TIP3    H154847   1.913   0.879  12.625 -0.7102 -0.6117 -3.3798
11144TIP3    H254848   2.023   0.774  12.631  0.0881  0.2935 -0.7753
11145TIP3   OH254849   4.564   5.590  14.314 -0.2133  0.1387 -0.7269
11145TIP3    H154850   4.551   5.585  14.409  1.2315 -0.2280 -0.5304
11145TIP3    H254851   4.477   5.573  14.277 -0.6259 -0.5384  0.5110
11146TIP3   OH254852   1.972   2.068  16.443 -0.4212  0.0458 -0.3694
11146TIP3    H154853   1.921   2.013  16.503  0.6622 -0.6548 -0.0692
11146TIP3    H254854   2.047   2.097  16.495 -0.2665  0.7027 -0.9371
11147TIP3   OH254855   4.137   5.495  10.637  0.5385 -0.8035 -0.4275
11147TIP3    H154856   4.187   5.497  10.719  1.0067  0.6970 -0.7189
11147TIP3    H254857   4.049   5.525  10.663  0.8662  0.3228 -0.5635
11148TIP3   OH254858   4.049   3.005   2.621  0.1086 -0.4345 -0.5704
11148TIP3    H154859   4.107   2.946   2.669  0.4293  0.0178 -0.3972
11148TIP3    H254860   4.089   3.092   2.630  0.2906 -0.3713 -1.8297
11149TIP3   OH254861   3.255   6.441  16.969 -0.3325  0.0701 -0.3539
11149TIP3    H154862   3.238   6.535  16.976  0.1506  0.0595  1.4323
11149TIP3    H254863   3.171   6.400  16.986 -0.1209  0.1683  1.0863
11150TIP3   OH254864   4.704   2.028  14.140  0.2006 -0.2179  0.1636
11150TIP3    H154865   4.712   1.939  14.173  2.7548  0.0301  0.3693
11150TIP3    H254866   4.633   2.067  14.191 -0.1876 -1.7703  0.8450
11151TIP3   OH254867   0.700   1.674   0.839 -0.5167 -0.8466 -0.2309
11151TIP3    H154868   0.772   1.720   0.881  1.3517 -1.7076 -2.3052
11151TIP3    H254869   0.639   1.743   0.813  0.4906  0.1069 -0.1209
11152TIP3   OH254870   3.803   0.280  16.286 -0.1420 -0.2456  0.3302
11152TIP3    H154871   3.859   0.206  16.309 -0.8202 -0.6679  0.6439
11152TIP3    H254872   3.715   0.243  16.279 -0.6458  0.6815  1.3542
11153TIP3   OH254873   5.394   3.905  13.693  0.0863 -0.7128  0.1792
11153TIP3    H154874   5.400   3.911  13.788  1.3921 -1.7015  0.1894
11153TIP3    H254875   5.344   3.982  13.667 -0.7074 -0.6879  1.6942
11154TIP3   OH254876   0.049   3.044   4.948  0.8295  0.0004 -0.2190
11154TIP3    H154877   0.032   3.138   4.951 -0.9996 -0.3004 -0.2581
11154TIP3    H254878   0.077   3.027   4.858  0.6164  0.4143 -0.3645
11155TIP3   OH254879   5.295   4.515   2.682 -0.4995  0.2150  0.1087
11155TIP3    H154880   5.284   4.597   2.731  1.9526 -1.3622  3.7437
11155TIP3    H254881   5.379   4.525   2.638 -1.4702  0.5905 -1.7560
11156TIP3   OH254882   4.720   0.921   0.628 -0.2358 -0.4033 -0.2808
11156TIP3    H154883   4.745   1.004   0.588 -1.2207  0.1769  0.2733
11156TIP3    H254884   4.625   0.927   0.639 -0.0132 -0.4434  2.2943
11157TIP3   OH254885   4.241   2.759  16.758  0.2787  0.1852  0.1808
11157TIP3    H154886   4.193   2.755  16.675 -1.7740 -0.3875  1.2998
11157TIP3    H254887   4.255   2.852  16.773 -1.4501  0.4749  0.2614
11158TIP3   OH254888   2.000   3.694  16.759  0.5161 -0.0795 -0.7789
11158TIP3    H154889   1.928   3.755  16.748 -1.4417 -2.3338 -1.2700
11158TIP3    H254890   2.069   3.746  16.801 -1.5096  2.0773  0.1224
11159TIP3   OH254891   0.516   1.666  11.481  0.6983 -0.2085  0.3360
11159TIP3    H154892   0.581   1.662  11.411  0.8515 -1.6175  0.5378
11159TIP3    H254893   0.565   1.692  11.559  1.1596 -1.7653  0.6020
11160TIP3   OH254894   4.044   4.852  14.350  0.4062 -0.3684 -0.0992
11160TIP3    H154895   4.023   4.778  14.294 -1.2501 -0.1010  0.1008
11160TIP3    H254896   3.997   4.834  14.431 -0.2356  0.9987 -0.1409
11161TIP3   OH254897   5.392   5.397   2.120 -0.5383 -0.3728  0.2089
11161TIP3    H154898   5.366   5.327   2.181  1.5335 -0.0181  1.6039
11161TIP3    H254899   5.309   5.430   2.086 -1.7541 -1.3039  2.0428
11162TIP3   OH254900   3.235   0.004   5.125  0.4116 -0.3620  0.0398
11162TIP3    H154901   3.240  -0.061   5.055 -0.3431 -2.0598  1.4680
11162TIP3    H254902   3.173   0.069   5.093 -0.0230 -1.1706 -0.8204
11163TIP3   OH254903   6.038   5.470  15.178 -0.4274 -0.0525  0.4723
11163TIP3    H154904   6.124   5.504  15.154 -0.5338  0.1254  0.3402
11163TIP3    H254905   6.050   5.434  15.266 -0.1960 -0.1112  0.4182
11164TIP3   OH254906   6.697   0.785   0.669  0.2354 -0.3029  0.2105
11164TIP3    H154907   6.638   0.809   0.598  0.6611  2.0983  0.5826
11164TIP3    H254908   6.663   0.702   0.702 -2.7291  0.7772  0.1409
11165TIP3   OH254909   4.405   5.546   0.071 -0.1265 -0.0422 -0.8550
11165TIP3    H154910   4.402   5.640   0.083 -2.2091 -0.2028  0.4799
11165TIP3    H254911   4.336   5.528   0.007 -0.5337 -0.7447 -0.2311
11166TIP3   OH254912   5.158   3.195  16.966 -0.1634 -0.1922  0.5159
11166TIP3    H154913   5.131   3.141  16.892 -0.0382  1.1016 -0.5063
11166TIP3    H254914   5.080   3.245  16.990  0.4438  1.2752 -0.4349
11167TIP3   OH254915   2.223   2.983  16.300 -0.4600  0.4109 -0.3674
11167TIP3    H154916   2.151   2.983  16.236 -0.5288 -2.1795 -0.3967
11167TIP3    H254917   2.202   3.055  16.360 -1.4591  1.6269 -2.0790
11168TIP3   OH254918   3.402   4.869   2.143 -0.5380  0.6072 -0.0170
11168TIP3    H154919   3.363   4.949   2.177 -3.3238 -0.9076  0.6376
11168TIP3    H254920   3.385   4.872   2.049  0.7998  1.4732 -0.2567
11169TIP3   OH254921   2.569   4.673   1.885  0.3619  0.0561  0.0477
11169TIP3    H154922   2.625   4.740   1.845 -0.6453  0.9122  0.0058
11169TIP3    H254923   2.488   4.720   1.906  0.7346 -0.4027  2.8984
11170TIP3   OH254924   4.707   1.208  13.578 -0.0555  0.2622 -0.7011
11170TIP3    H154925   4.616   1.211  13.551 -0.1135  1.0522 -0.4361
11170TIP3    H254926   4.707   1.154  13.657 -0.1746 -0.3464 -1.1032
11171TIP3   OH254927   0.575   0.156  13.462 -0.4684  0.1080  0.1810
11171TIP3    H154928   0.536   0.237  13.431  0.1459  0.4157  0.1972
11171TIP3    H254929   0.667   0.178  13.479 -0.1358 -0.7542 -0.4463
11172TIP3   OH254930   1.988   5.251  13.806 -0.0968 -0.3338 -0.3002
11172TIP3    H154931   1.979   5.311  13.732 -0.8233 -0.1896 -0.1020
11172TIP3    H254932   1.932   5.176  13.784 -0.0302 -0.4563 -0.0608
11173TIP3   OH254933   2.698   4.006   0.684  0.2901 -0.0217  0.1246
11173TIP3    H154934   2.748   4.075   0.641  1.5255 -1.9013 -1.6415
11173TIP3    H254935   2.633   4.053   0.736  0.4330  2.4647 -1.7259
11174TIP3   OH254936   5.035   3.556  14.643 -0.0199  0.0217  0.4739
11174TIP3    H154937   4.949   3.517  14.629 -0.1540  0.4276  0.1212
11174TIP3    H254938   5.084   3.533  14.563  0.8745 -1.9190  1.5076
11175TIP3   OH254939   1.521   1.393   5.706 -0.0139  0.5419  0.3183
11175TIP3    H154940   1.477   1.386   5.791  1.1702  1.1534  1.0109
11175TIP3    H254941   1.611   1.418   5.728  0.4142  0.3236 -1.1053
11176TIP3   OH254942   3.455   4.800   4.042  0.7198  0.1598 -0.0844
11176TIP3    H154943   3.396   4.754   3.982 -3.2053  2.7806  1.2847
11176TIP3    H254944   3.465   4.740   4.116  0.9923 -0.9254 -0.9794
11177TIP3   OH254945   4.474   0.808   5.590  0.8751  0.0579 -0.1815
11177TIP3    H154946   4.537   0.793   5.660 -0.9702 -1.0130  1.3505
11177TIP3    H254947   4.527   0.815   5.511  2.9473  0.0429  1.1255
11178TIP3   OH254948   3.944   2.680  11.293  0.2430 -0.5333  0.3872
11178TIP3    H154949   3.996   2.751  11.254 -1.4246  1.6349  1.8803
11178TIP3    H254950   4.010   2.622  11.332  1.6875 -0.0924 -1.2510
11179TIP3   OH254951   6.000   3.558   2.605  0.1278 -0.7626 -0.2856
11179TIP3    H154952   6.058   3.584   2.534  1.6496  0.5308  1.3431
11179TIP3    H254953   5.992   3.637   2.660  0.6149 -2.2258  2.0167
11180TIP3   OH254954   1.931   5.644   4.493 -0.3693  0.1378 -0.2818
11180TIP3    H154955   1.887   5.608   4.416 -2.0310  1.1732  0.1456
11180TIP3    H254956   1.864   5.697   4.536  1.1677  1.3547  0.6887
11181TIP3   OH254957   2.789   5.978  17.145 -0.2863 -0.3294  0.1208
11181TIP3    H154958   2.828   5.893  17.162  0.7373  0.2598  0.8351
11181TIP3    H254959   2.695   5.965  17.159 -0.3252 -1.6729 -1.2192
11182TIP3   OH254960   0.909   2.317   0.494 -0.0172  0.2658  0.1160
11182TIP3    H154961   0.860   2.377   0.550  0.1435 -1.4072  2.1662
11182TIP3    H254962   1.000   2.330   0.517 -0.0041 -0.9784  0.8637
11183TIP3   OH254963   2.904   4.372   3.908 -0.2302  0.5340 -0.5366
11183TIP3    H154964   2.989   4.383   3.951 -0.4355 -0.4559  0.1375
11183TIP3    H254965   2.869   4.290   3.943 -1.3221  0.7596 -1.0517
11184TIP3   OH254966   0.139   6.743  14.357  0.0249 -0.2269 -0.2205
11184TIP3    H154967   0.119   6.732  14.264 -0.4322 -0.6156 -0.0766
11184TIP3    H254968   0.229   6.714  14.366  0.1066 -0.0825 -0.5635
11185TIP3   OH254969   2.687   1.857   0.283 -0.3729 -0.5584  0.1775
11185TIP3    H154970   2.606   1.900   0.252 -0.7301 -0.6439  0.9713
11185TIP3    H254971   2.680   1.768   0.250 -1.4891 -1.0919  1.7152
11186TIP3   OH254972   4.931   6.752  11.651 -0.5105 -0.0075  0.3405
11186TIP3    H154973   5.006   6.696  11.633  1.1843  1.9794  0.8811
11186TIP3    H254974   4.880   6.751  11.570  0.9719 -0.1168 -0.6186
11187TIP3   OH254975   0.543   5.201  11.764  0.4962  0.1251 -0.4588
11187TIP3    H154976   0.615   5.183  11.704  1.6155 -0.4780  0.9796
11187TIP3    H254977   0.491   5.121  11.765 -0.5532  0.7512 -1.9120
11188TIP3   OH254978   1.791   1.528   4.569  0.4024 -0.5469 -0.2750
11188TIP3    H154979   1.709   1.556   4.609  0.6694 -0.4125  0.1752
11188TIP3    H254980   1.766   1.455   4.512 -0.4320  1.0134 -2.0149
11189TIP3   OH254981   2.673   0.613   1.790 -0.4803 -0.3731  0.4471
11189TIP3    H154982   2.702   0.691   1.837 -1.9205  0.5962 -0.2117
11189TIP3    H254983   2.579   0.609   1.806 -0.7307 -0.9242 -1.0435
11190TIP3   OH254984   4.558   1.770  15.348  0.3038 -0.3604 -0.4131
11190TIP3    H154985   4.643   1.755  15.307 -0.7314 -0.1088 -2.7912
11190TIP3    H254986   4.547   1.865  15.346 -1.9751 -0.4724 -4.6814
11191TIP3   OH254987   1.565   2.112  12.368  0.1415  0.0655 -0.0172
11191TIP3    H154988   1.590   2.113  12.461 -1.8908 -1.2540  0.6276
11191TIP3    H254989   1.560   2.019  12.346 -1.2531  0.3150 -0.8688
11192TIP3   OH254990   6.053   5.199  14.089 -0.3123 -0.4072 -0.3223
11192TIP3    H154991   5.988   5.166  14.151 -1.7400  1.2644 -0.8133
11192TIP3    H254992   6.129   5.221  14.143 -1.0100 -0.2779  0.6412
11193TIP3   OH254993   4.974   3.202  14.911  0.0242 -0.2074 -0.0340
11193TIP3    H154994   4.972   3.119  14.959 -1.0038 -0.4837 -0.5366
11193TIP3    H254995   4.965   3.178  14.819  0.6974  0.4067 -0.2769
11194TIP3   OH254996   6.057   5.660  16.239  0.0956 -0.0300 -0.0239
11194TIP3    H154997   6.125   5.661  16.307  0.4865 -0.7448 -0.3956
11194TIP3    H254998   6.092   5.718  16.171 -0.3975  0.8652  0.4683
11195TIP3   OH254999   1.895   5.579   6.433 -0.3644 -0.3974 -0.3720
11195TIP3    H155000   1.822   5.517   6.432  0.0648 -0.9785  1.0672
11195TIP3    H255001   1.970   5.529   6.402 -0.5660  0.2176 -1.9112
11196TIP3   OH255002   5.863   1.294   1.852 -0.2878 -0.0017  0.0335
11196TIP3    H155003   5.881   1.292   1.758 -2.8115  0.2634 -0.5095
11196TIP3    H255004   5.882   1.205   1.882  0.1117 -0.2069 -0.7895
11197TIP3   OH255005   6.700   2.693  16.010  0.0894  0.1163  0.4716
11197TIP3    H155006   6.740   2.780  16.012  2.1887 -0.7087 -1.3069
11197TIP3    H255007   6.751   2.641  16.073 -0.4860 -0.0810  0.7791
11198TIP3   OH255008   1.723   5.091  16.384 -0.2107  0.0904 -0.4101
11198TIP3    H155009   1.707   5.120  16.473 -0.6417  1.3981 -0.8986
11198TIP3    H255010   1.678   5.007  16.378  1.5179 -1.0363  1.1906
11199TIP3   OH255011   0.974   5.517   0.684 -0.6563 -0.7425 -0.7967
11199TIP3    H155012   0.904   5.579   0.664  0.5615  0.8058 -0.4661
11199TIP3    H255013   1.036   5.527   0.612  0.7237  0.2689  0.4599
11200TIP3   OH255014   3.638   4.178  13.673 -0.0424 -0.1445 -0.5208
11200TIP3    H155015   3.660   4.166  13.580  0.0806 -1.2438 -0.3625
11200TIP3    H255016   3.722   4.182  13.717 -0.0678 -2.5544 -0.1291
11201TIP3   OH255017   6.191   5.950   2.543  0.3663  0.2573  0.6047
11201TIP3    H155018   6.101   5.949   2.576  0.7601 -0.7605  1.7432
11201TIP3    H255019   6.222   6.038   2.562 -0.3053  0.5426  0.4260
11202TIP3   OH255020   2.904   3.255  16.247  0.1729 -0.5576  0.0648
11202TIP3    H155021   2.971   3.242  16.180 -0.0791 -0.4562 -0.2082
11202TIP3    H255022   2.859   3.171  16.251  1.0964 -1.0287  1.1180
11203TIP3   OH255023   0.260   2.809   3.726  0.5531  0.0171 -0.0222
11203TIP3    H155024   0.312   2.805   3.806  0.4154 -0.4336  0.0500
11203TIP3    H255025   0.245   2.717   3.703  0.5846  0.1415 -0.5598
11204TIP3   OH255026   3.088   5.344  11.879 -0.0302  0.8561 -0.7378
11204TIP3    H155027   3.157   5.279  11.896 -0.8163  0.3392  0.6926
11204TIP3    H255028   3.114   5.420  11.931 -0.3681  0.7738 -0.4433
11205TIP3   OH255029   1.633   4.169   0.507  0.0393 -0.1825  0.3967
11205TIP3    H155030   1.581   4.219   0.444  0.8661  0.5900  0.3050
11205TIP3    H255031   1.568   4.124   0.562 -0.6900 -1.1702 -1.2128
11206TIP3   OH255032   0.026   6.635   3.267 -0.1704  0.5172 -0.3052
11206TIP3    H155033   0.010   6.567   3.202  0.2221  0.1778 -0.0543
11206TIP3    H255034   0.084   6.593   3.331  0.7730  1.3519 -0.5953
11207TIP3   OH255035   4.821   4.279  11.191 -0.2518  0.7726  0.3057
11207TIP3    H155036   4.907   4.237  11.181 -0.5182  0.6550 -2.1968
11207TIP3    H255037   4.823   4.352  11.129 -1.1144  2.3081  2.0058
11208TIP3   OH255038   1.069   2.729  13.153  0.5320  0.0818 -0.0512
11208TIP3    H155039   1.026   2.802  13.108  2.9205 -0.3260 -3.2808
11208TIP3    H255040   1.125   2.771  13.218  0.8663  1.1002 -0.9607
11209TIP3   OH255041   3.173   6.059  16.534 -0.0260  0.6938 -0.1796
11209TIP3    H155042   3.251   6.035  16.584  0.6027  0.4772 -1.2421
11209TIP3    H255043   3.156   5.983  16.478 -0.8367  0.8550 -0.1675
11210TIP3   OH255044   6.000   6.766  12.122 -0.6037  0.5440  0.4675
11210TIP3    H155045   6.075   6.823  12.108 -0.2648  0.1463  0.6443
11210TIP3    H255046   5.924   6.823  12.110 -0.2693  1.1170  1.0121
11211TIP3   OH255047   1.642   2.798  13.685  0.1244  0.2431  0.0219
11211TIP3    H155048   1.623   2.886  13.716  1.3089  0.6502 -0.3348
11211TIP3    H255049   1.599   2.792  13.599  1.8823  1.3176 -0.9982
11212TIP3   OH255050   4.558   4.137   0.871 -0.5063 -0.2704 -0.2940
11212TIP3    H155051   4.532   4.229   0.883 -1.9680 -0.6887 -0.0295
11212TIP3    H255052   4.568   4.104   0.961  1.8734  0.0826 -0.3692
11213TIP3   OH255053   0.135   4.051  11.135 -0.6304  0.2411  0.5717
11213TIP3    H155054   0.175   4.060  11.048  0.1953 -3.6110  0.3584
11213TIP3    H255055   0.042   4.068  11.120 -0.1132  2.6585 -0.3461
11214TIP3   OH255056   5.184   5.477   2.649  0.5588 -0.2580  0.0306
11214TIP3    H155057   5.123   5.404   2.641 -0.1919  0.1659  1.5038
11214TIP3    H255058   5.270   5.436   2.647  0.2812 -0.8588 -2.1651
11215TIP3   OH255059   3.084   3.666   2.719  0.2410 -0.6687  0.2054
11215TIP3    H155060   3.135   3.587   2.705  0.3998 -0.7721  1.2720
11215TIP3    H255061   2.993   3.639   2.707  0.3711 -0.7108 -0.7112
11216TIP3   OH255062   4.894   6.119  10.675  0.3942  0.4066  0.1470
11216TIP3    H155063   4.835   6.115  10.600 -0.3431  0.3562  0.7156
11216TIP3    H255064   4.947   6.040  10.669  0.1113  0.2373 -0.1354
11217TIP3   OH255065   5.804   1.503   3.810  0.2133  0.0184  0.6919
11217TIP3    H155066   5.878   1.481   3.866 -0.4182  1.4669  2.1535
11217TIP3    H255067   5.731   1.453   3.845 -0.0959  0.6238  0.9223
11218TIP3   OH255068   4.882   6.212  15.890  0.0219  0.0519 -0.2833
11218TIP3    H155069   4.840   6.264  15.822  1.1002  0.6322 -0.5309
11218TIP3    H255070   4.891   6.124  15.852 -3.4077 -0.9093  0.7740
11219TIP3   OH255071   2.577   5.576   3.929  0.2155 -0.1148 -0.2131
11219TIP3    H155072   2.631   5.649   3.899 -0.4149  0.6433  0.4516
11219TIP3    H255073   2.492   5.592   3.888  0.4392 -1.2336 -1.1591
11220TIP3   OH255074   1.710   2.663   3.580  0.5141  0.4618  0.1033
11220TIP3    H155075   1.689   2.737   3.523 -0.0756  1.1145  1.1421
11220TIP3    H255076   1.642   2.665   3.647  0.1703 -1.3683 -0.1594
11221TIP3   OH255077   0.446   5.962   4.228  0.1590 -0.6084 -0.5483
11221TIP3    H155078   0.367   5.925   4.189 -1.3286  0.4300  1.3151
11221TIP3    H255079   0.415   6.011   4.305  2.5924  0.0109  0.1427
11222TIP3   OH255080   3.577   3.691   3.784 -0.1331 -0.4860 -0.2306
11222TIP3    H155081   3.528   3.763   3.823 -0.8603 -1.2631  0.3168
11222TIP3    H255082   3.662   3.693   3.827  0.4077  0.9515 -1.2739
11223TIP3   OH255083   2.886   0.011   3.664  0.3788  0.0985  1.1016
11223TIP3    H155084   2.861   0.100   3.686 -0.4808  0.0111  0.5137
11223TIP3    H255085   2.971   0.019   3.621 -1.1355  1.0197 -1.9972
11224TIP3   OH255086   5.928   6.170  11.886  0.7407  0.6034 -0.3601
11224TIP3    H155087   5.975   6.242  11.846  1.5999  0.5984  0.6163
11224TIP3    H255088   5.956   6.092  11.838  0.2762  0.8291 -1.0097
11225TIP3   OH255089   5.340   3.630  11.548 -0.9480 -0.4447 -0.0531
11225TIP3    H155090   5.266   3.645  11.607 -1.3625  1.1180 -0.9239
11225TIP3    H255091   5.331   3.696  11.480 -0.4389 -2.1586 -1.8662
11226TIP3   OH255092   1.477   2.163  13.638 -0.3805 -0.5213  1.0378
11226TIP3    H155093   1.433   2.206  13.565 -0.7648 -2.0915  0.3019
11226TIP3    H255094   1.569   2.186  13.627 -0.4417 -0.6923  0.0751
11227TIP3   OH255095   1.071   6.162   4.918 -0.0675  0.0139 -0.4700
11227TIP3    H155096   1.140   6.203   4.866 -0.5431 -0.7460 -1.7266
11227TIP3    H255097   1.032   6.097   4.860  1.5340 -3.2672  1.7933
11228TIP3   OH255098   4.824   1.135  14.088  0.1518 -0.4504  0.5929
11228TIP3    H155099   4.777   1.052  14.079  1.6993 -1.4733  1.3870
11228TIP3    H255100   4.802   1.184  14.009  0.2586 -2.1865 -0.5687
11229TIP3   OH255101   0.954   3.998  12.905 -0.5165  0.0164 -0.3596
11229TIP3    H155102   0.894   3.925  12.918 -0.8548  0.3970  0.2575
11229TIP3    H255103   1.041   3.960  12.911 -0.6809 -0.6184 -1.6861
11230TIP3   OH255104   6.312   2.792   4.224  0.3384  0.1069 -0.1718
11230TIP3    H155105   6.306   2.697   4.217 -0.4932  0.2508 -2.9998
11230TIP3    H255106   6.384   2.808   4.284 -0.3968 -2.2726  1.4821
11231TIP3   OH255107   5.073   0.545   4.671  0.3850  0.0064 -0.0076
11231TIP3    H155108   5.068   0.506   4.758  0.2406 -2.1454 -0.9189
11231TIP3    H255109   5.019   0.624   4.676 -2.3152 -1.7819  1.0090
11232TIP3   OH255110   5.384   0.061  15.029 -0.0452 -0.0430  0.6903
11232TIP3    H155111   5.456   0.010  14.991 -0.1837  0.9218 -1.0238
11232TIP3    H255112   5.419   0.095  15.111  1.2412 -0.1360  0.2009
11233TIP3   OH255113   6.289   1.996   0.915 -0.4923 -0.3161  0.2414
11233TIP3    H155114   6.229   1.930   0.881 -1.1534  0.5760 -0.3521
11233TIP3    H255115   6.360   1.999   0.851 -0.8533  0.0919 -0.1502
11234TIP3   OH255116   1.178   5.711  12.390 -0.1411  0.0291 -0.5176
11234TIP3    H155117   1.273   5.699  12.392 -0.1878 -0.4321  1.1175
11234TIP3    H255118   1.165   5.799  12.355  0.9295  0.3056 -0.2577
11235TIP3   OH255119   6.728   1.973  16.195  0.1015  0.2244 -0.1821
11235TIP3    H155120   6.693   2.046  16.246 -0.4004 -0.2517  0.1703
11235TIP3    H255121   6.723   2.002  16.104 -0.9254  0.2892 -0.1130
11236TIP3   OH255122   1.794   6.039   2.526  0.5304  0.0984 -0.1298
11236TIP3    H155123   1.883   6.064   2.500  0.1403 -0.4361 -2.1556
11236TIP3    H255124   1.771   5.968   2.467 -1.1690  0.0680  0.5205
11237TIP3   OH255125   5.410   2.115  16.630 -0.1405 -0.0338 -0.4025
11237TIP3    H155126   5.426   2.186  16.692  2.0279 -0.1686 -0.7322
11237TIP3    H255127   5.437   2.036  16.676  2.5143 -0.0327 -1.7571
11238TIP3   OH255128   4.102   1.097  12.080  0.4153  0.2136 -0.5534
11238TIP3    H155129   4.039   1.028  12.060  0.7006 -0.9517  2.1076
11238TIP3    H255130   4.187   1.059  12.057  0.3322  1.1991 -2.6838
11239TIP3   OH255131   3.653   4.900  13.654 -0.3999 -0.4427 -0.1552
11239TIP3    H155132   3.609   4.930  13.575  0.0769  1.9932  0.4013
11239TIP3    H255133   3.744   4.931  13.644 -0.1620 -0.7231  1.0098
11240TIP3   OH255134   6.625   3.622  16.415 -0.4213  0.2447 -0.1293
11240TIP3    H155135   6.540   3.647  16.451 -1.0235 -2.9282  1.0205
11240TIP3    H255136   6.684   3.621  16.490  0.1632  0.4980 -0.5714
11241TIP3   OH255137   3.054   5.680   5.729 -0.1821 -0.1440  0.5193
11241TIP3    H155138   2.969   5.687   5.772 -0.4883 -1.8850  0.2623
11241TIP3    H255139   3.084   5.591   5.750  1.6768  0.5028  0.7866
11242TIP3   OH255140   5.513   4.279  12.750 -0.2626 -0.1472 -0.3335
11242TIP3    H155141   5.579   4.235  12.803 -0.8378  0.7686  1.2227
11242TIP3    H255142   5.444   4.213  12.737 -0.7074 -0.0328  1.2085
11243TIP3   OH255143   2.060   0.055   2.102 -0.5562 -0.4250 -0.2129
11243TIP3    H155144   2.060   0.132   2.159  1.9092 -1.5367  1.4645
11243TIP3    H255145   1.990  -0.001   2.136 -0.2915 -0.2781  0.5910
11244TIP3   OH255146   4.991   2.945   2.306  0.2376  0.1109  0.3384
11244TIP3    H155147   5.072   2.920   2.262  0.0327  0.3270 -0.1752
11244TIP3    H255148   4.980   2.880   2.375  0.9313  0.1752  0.5174
11245TIP3   OH255149   6.208   4.825   1.261 -0.3534  0.6924 -0.1641
11245TIP3    H155150   6.191   4.759   1.328  1.7636 -0.6143 -0.8366
11245TIP3    H255151   6.298   4.810   1.234 -0.4751  2.5346 -1.8412
11246TIP3   OH255152   2.061   1.335  11.961 -0.4598  0.4169 -0.1138
11246TIP3    H155153   2.035   1.425  11.977 -0.4615  0.7304 -1.6502
11246TIP3    H255154   1.989   1.298  11.910 -0.3556 -0.3872  0.3040
11247TIP3   OH255155   2.761   5.992  11.474  0.8393 -0.4881  0.4102
11247TIP3    H155156   2.822   6.059  11.445 -0.6683  0.6214 -0.3465
11247TIP3    H255157   2.798   5.958  11.555  2.1565  0.5286  0.2559
11248TIP3   OH255158   3.496   2.022   4.614  0.3530 -0.5595  0.8638
11248TIP3    H155159   3.450   2.053   4.537  0.1821 -1.0425  0.7703
11248TIP3    H255160   3.577   2.073   4.616  1.0479 -1.5499 -0.4605
11249TIP3   OH255161   1.857   6.390  13.805  0.5373  0.6218 -0.4070
11249TIP3    H155162   1.894   6.319  13.857  0.4880  2.7041  2.7071
11249TIP3    H255163   1.763   6.375  13.806  0.6680 -0.5131 -1.8420
11250TIP3   OH255164   4.177   2.883   5.957 -0.3020  0.4891 -0.2391
11250TIP3    H155165   4.262   2.840   5.962 -0.4753 -0.1151 -1.9750
11250TIP3    H255166   4.197   2.974   5.938 -0.0300  0.1382 -1.7685
11251TIP3   OH255167   5.331   4.995  16.706 -0.2105  0.1183  0.9210
11251TIP3    H155168   5.240   5.017  16.689 -0.4062 -0.4116  1.2972
11251TIP3    H255169   5.343   5.009  16.800 -0.1874 -0.8410  1.0670
11252TIP3   OH255170   5.284   1.805   5.837 -0.1318  0.5336 -0.1973
11252TIP3    H155171   5.296   1.897   5.813 -1.8284  0.0377 -3.6586
11252TIP3    H255172   5.190   1.798   5.857  0.2528 -0.2247  1.4572
11253TIP3   OH255173   5.107   5.553   3.642 -0.0910 -0.1539  0.3974
11253TIP3    H155174   5.018   5.524   3.623 -0.8605  1.6772  0.9622
11253TIP3    H255175   5.115   5.638   3.599  2.0241 -1.0382 -1.1178
11254TIP3   OH255176   5.982   4.614   1.144  0.3452  0.4464  0.2086
11254TIP3    H155177   5.918   4.672   1.185  0.0698  0.3588 -0.0960
11254TIP3    H255178   6.053   4.608   1.208  0.2358  0.8740  0.3724
11255TIP3   OH255179   2.521   5.008   2.125 -0.7098 -0.4218  0.1555
11255TIP3    H155180   2.607   4.972   2.102  1.2014  2.3576  2.3545
11255TIP3    H255181   2.498   5.063   2.050 -0.6486 -1.2329 -0.4786
11256TIP3   OH255182   1.175   0.402  14.834  0.0690  0.1979 -0.2007
11256TIP3    H155183   1.250   0.454  14.863  0.0068  0.6603 -0.8421
11256TIP3    H255184   1.207   0.312  14.831  0.5918  0.3923 -0.4552
11257TIP3   OH255185   3.190   6.212  16.014 -0.5660  0.1499  0.4306
11257TIP3    H155186   3.188   6.308  16.008  0.3396  0.2024  0.8979
11257TIP3    H255187   3.148   6.182  15.933 -0.0484  0.9364 -0.1425
11258TIP3   OH255188   1.832   0.791   4.650  0.3283  0.0317 -0.3842
11258TIP3    H155189   1.811   0.715   4.705  1.6095 -1.0627 -1.3259
11258TIP3    H255190   1.796   0.769   4.564  0.1852  0.7844 -0.5263
11259TIP3   OH255191   6.270   0.535   3.496 -0.2763  0.0558  0.2585
11259TIP3    H155192   6.310   0.459   3.537  0.1395  0.2297  0.1842
11259TIP3    H255193   6.239   0.503   3.411  1.5717  0.3843 -0.5825
11260TIP3   OH255194   5.499   5.535   4.641  0.6232  0.1397 -0.4855
11260TIP3    H155195   5.563   5.601   4.668 -1.6126  2.2945 -0.0526
11260TIP3    H255196   5.442   5.525   4.717 -1.2517  0.4971 -1.7929
11261TIP3   OH255197   1.814   2.090   0.952  0.1487  0.1045 -0.7594
11261TIP3    H155198   1.793   2.178   0.984 -0.4538 -0.2918 -0.0453
11261TIP3    H255199   1.760   2.080   0.874 -1.7223 -0.5493  0.5374
11262TIP3   OH255200   5.302   3.949  16.432 -0.5396  0.2113  0.0054
11262TIP3    H155201   5.210   3.965  16.453 -0.7563  0.4909 -1.1014
11262TIP3    H255202   5.346   4.030  16.454 -0.7633  0.5019 -0.5954
11263TIP3   OH255203   2.675   2.292   0.610  0.1341 -0.3149 -0.1712
11263TIP3    H155204   2.596   2.238   0.596 -0.4893  0.6164 -0.3411
11263TIP3    H255205   2.734   2.236   0.660 -1.5000 -0.3009  1.9097
11264TIP3   OH255206   6.761   3.208  15.149  0.2726  0.4891 -0.3794
11264TIP3    H155207   6.737   3.145  15.081  3.5870 -1.7102  0.3086
11264TIP3    H255208   6.818   3.271  15.104  0.7732  0.2490 -0.0832
11265TIP3   OH255209   2.032   2.474  14.078 -0.3456 -0.1142  0.5551
11265TIP3    H155210   1.944   2.441  14.064 -0.4365  0.3075  0.1003
11265TIP3    H255211   2.020   2.558  14.123 -0.1527 -0.2799  0.9260
11266TIP3   OH255212   1.534   3.498   5.924 -0.2030  0.0326 -0.1499
11266TIP3    H155213   1.624   3.490   5.893  0.2800  0.3299  1.1208
11266TIP3    H255214   1.526   3.589   5.953 -0.9201  0.0133 -0.2570
11267TIP3   OH255215   6.569   6.684   2.880 -0.0737 -0.2237  0.0443
11267TIP3    H155216   6.554   6.594   2.907 -2.3602 -1.3249 -4.0822
11267TIP3    H255217   6.508   6.736   2.933  0.7986 -1.0934  1.9862
11268TIP3   OH255218   0.691   3.679   1.280 -0.4883 -0.2126 -0.0572
11268TIP3    H155219   0.609   3.662   1.232 -1.5629  0.1011  1.5870
11268TIP3    H255220   0.726   3.759   1.240  0.0399 -1.3544 -2.0193
11269TIP3   OH255221   4.229   3.230   4.232  1.1378  0.1697  0.5474
11269TIP3    H155222   4.156   3.201   4.287  0.8943 -0.1804  0.0475
11269TIP3    H255223   4.267   3.149   4.198  0.3829  0.3980 -0.9549
11270TIP3   OH255224   5.875   1.614   2.921 -0.5318 -0.4245  0.4791
11270TIP3    H155225   5.896   1.660   3.002 -3.5647  1.0172  0.5762
11270TIP3    H255226   5.864   1.523   2.947  1.4294 -0.5441  1.0625
11271TIP3   OH255227   4.605   0.375  11.578 -0.7641  0.2852  0.4000
11271TIP3    H155228   4.600   0.426  11.658 -0.8636  0.8647  0.0303
11271TIP3    H255229   4.677   0.314  11.593 -0.2188  0.9636  0.6052
11272TIP3   OH255230   5.471   0.456   3.608 -0.3599  0.7120  0.4291
11272TIP3    H155231   5.546   0.416   3.652  0.3094  0.9387 -0.4823
11272TIP3    H255232   5.509   0.513   3.541 -1.3470  0.6580 -0.2095
11273TIP3   OH255233   3.577   4.200   1.953 -0.2849  0.0100 -0.0938
11273TIP3    H155234   3.533   4.123   1.919  0.0344 -0.6140  0.8760
11273TIP3    H255235   3.525   4.274   1.921 -0.6997 -0.6064 -0.8634
11274TIP3   OH255236   5.653   3.528  12.991 -0.1481 -0.1140  0.5159
11274TIP3    H155237   5.680   3.511  12.901  1.1313  4.4428 -0.2148
11274TIP3    H255238   5.698   3.462  13.043 -0.3387 -2.4270 -2.0552
11275TIP3   OH255239   5.579   0.791  12.812  0.7593 -0.3223 -0.8694
11275TIP3    H155240   5.507   0.751  12.764  0.3568  0.5608 -1.0168
11275TIP3    H255241   5.555   0.780  12.904  1.2369 -1.4748 -0.8677
11276TIP3   OH255242   5.492   5.057  13.455  1.0456 -0.3804  0.5412
11276TIP3    H155243   5.490   5.108  13.374  0.3473  1.9566  1.9220
11276TIP3    H255244   5.566   5.094  13.504  0.8079 -1.0255  1.4109
11277TIP3   OH255245   5.189   0.686  16.646  0.1877 -0.1032 -0.0205
11277TIP3    H155246   5.204   0.718  16.557  1.7647  0.2797  0.3513
11277TIP3    H255247   5.097   0.658  16.646  0.0690  0.1588 -1.6713
11278TIP3   OH255248   4.946   0.554  13.036  0.6257 -0.5173  0.2686
11278TIP3    H155249   5.040   0.538  13.028  0.6869 -0.1014  0.1678
11278TIP3    H255250   4.909   0.468  13.055  0.7060 -1.2446 -2.3939
11279TIP3   OH255251   1.955   6.548   3.681  1.0264  0.2791 -0.3332
11279TIP3    H155252   1.904   6.501   3.615  0.4583  1.8627 -1.0873
11279TIP3    H255253   1.893   6.564   3.752  0.3650  2.2720 -1.2825
11280TIP3   OH255254   2.507   3.579  14.659  0.0156  0.1500 -0.0255
11280TIP3    H155255   2.446   3.648  14.683 -1.0451 -0.8804  0.3391
11280TIP3    H255256   2.587   3.625  14.634 -0.0835  1.4427  1.8477
11281TIP3   OH255257   0.480   0.148  17.132  0.1178  0.6291  0.1010
11281TIP3    H155258   0.450   0.064  17.097  0.4088  1.2305 -1.7039
11281TIP3    H255259   0.563   0.165  17.086  0.3996  1.5953  0.9231
11282TIP3   OH255260   3.042   4.836  13.766 -0.0887  0.8082  0.8448
11282TIP3    H155261   2.997   4.901  13.819  0.7400  0.5997  1.8324
11282TIP3    H255262   2.996   4.754  13.785  0.9097  0.5200  2.1663
11283TIP3   OH255263   6.631   0.473   4.967 -0.2920 -0.4330 -0.1290
11283TIP3    H155264   6.693   0.448   4.898 -0.3745 -0.1117 -0.3211
11283TIP3    H255265   6.571   0.398   4.973  1.1596 -1.5632  1.3164
11284TIP3   OH255266   5.789   1.452  12.524 -0.2697 -0.0355  0.0757
11284TIP3    H155267   5.807   1.370  12.480  0.0601  0.4440 -0.6927
11284TIP3    H255268   5.749   1.508  12.457 -1.5036  0.0748  0.8603
11285TIP3   OH255269   4.501   3.787  16.037 -0.3361  0.5079 -0.1468
11285TIP3    H155270   4.532   3.838  15.962 -2.2296  2.0676  0.0589
11285TIP3    H255271   4.406   3.798  16.036 -0.8852 -3.0199 -0.0252
11286TIP3   OH255272   1.009   6.011  15.360  0.2521 -0.1519 -0.1789
11286TIP3    H155273   0.991   5.923  15.328  0.9056 -0.3122 -0.1329
11286TIP3    H255274   0.924   6.045  15.388 -0.1139 -0.4959 -0.8622
11287TIP3   OH255275   4.610   1.565   3.413  0.1921  0.0952  0.3537
11287TIP3    H155276   4.685   1.507   3.406  0.2268  0.1612  0.1873
11287TIP3    H255277   4.617   1.623   3.338 -0.0386  0.0865  0.3247
11288TIP3   OH255278   4.177   4.380  12.468  0.0102 -0.0332 -0.1177
11288TIP3    H155279   4.212   4.339  12.547  0.1142 -2.1527 -1.1921
11288TIP3    H255280   4.222   4.465  12.464  1.1214 -0.4999  1.2856
11289TIP3   OH255281   0.168   1.077  13.410 -0.9752  0.4239  0.2591
11289TIP3    H155282   0.247   1.114  13.371 -2.1454  0.6748 -2.0815
11289TIP3    H255283   0.120   1.153  13.444 -0.9540  0.4499  0.2309
11290TIP3   OH255284   0.866   3.524  12.933 -0.2710 -0.7124  0.6637
11290TIP3    H155285   0.961   3.516  12.926 -0.0398  0.1824  2.4114
11290TIP3    H255286   0.832   3.455  12.875  1.4519 -2.0842  1.2067
11291TIP3   OH255287   0.392   3.099   0.784  0.6753  0.0210  0.0958
11291TIP3    H155288   0.317   3.063   0.833  1.3237 -0.6161  0.6478
11291TIP3    H255289   0.431   3.163   0.844  1.0166 -0.1974  0.1099
11292TIP3   OH255290   1.091   4.613  13.303  0.5415  0.2309 -0.4648
11292TIP3    H155291   1.157   4.551  13.336  0.1415  0.3816  0.6525
11292TIP3    H255292   1.022   4.613  13.369 -1.8948 -1.8625 -2.7878
11293TIP3   OH255293   4.072   6.427   3.560 -0.6655  0.3079  0.0128
11293TIP3    H155294   4.028   6.346   3.585  0.4231 -0.5065 -0.6112
11293TIP3    H255295   4.154   6.426   3.609 -0.3070  0.6482 -0.5608
11294TIP3   OH255296   6.607   0.536   2.052  0.4137 -0.0972 -0.8198
11294TIP3    H155297   6.536   0.597   2.069  0.4939  0.4163 -2.2674
11294TIP3    H255298   6.685   0.591   2.044  0.5325 -0.3955 -1.8718
11295TIP3   OH255299   6.694   5.312   0.962 -0.1649  0.4784 -0.0038
11295TIP3    H155300   6.662   5.376   1.025  0.0950 -0.2355  0.8739
11295TIP3    H255301   6.676   5.227   1.002  1.6258  0.0313 -0.0557
11296TIP3   OH255302   3.760   1.957   3.244  0.0081 -0.2844 -0.3829
11296TIP3    H155303   3.846   1.997   3.228  0.7346 -1.2328  0.9431
11296TIP3    H255304   3.714   2.021   3.298  0.3592 -0.3145 -0.0459
11297TIP3   OH255305   0.925   6.735  16.113  0.4794 -0.4954 -0.5709
11297TIP3    H155306   0.904   6.813  16.062 -0.7054 -0.9546 -0.8161
11297TIP3    H255307   0.987   6.766  16.179  1.1425  0.3412 -1.5567
11298TIP3   OH255308   1.403   0.061   0.285 -0.2760  0.1572  0.2702
11298TIP3    H155309   1.324   0.043   0.337  0.5006 -1.2705  1.0358
11298TIP3    H255310   1.474   0.060   0.350  0.3904  1.3036 -0.4212
11299TIP3   OH255311   4.639   1.778   5.210 -0.0946 -0.5106 -0.3356
11299TIP3    H155312   4.562   1.751   5.160 -1.8320 -1.0941  2.4469
11299TIP3    H255313   4.632   1.729   5.292  1.8991  1.3124  1.0172
11300TIP3   OH255314   0.957   2.855  10.955  0.5446 -0.0477  0.1873
11300TIP3    H155315   0.922   2.814  10.876  0.0676  1.1875 -0.2618
11300TIP3    H255316   1.050   2.834  10.954  0.5631  0.0418 -0.7630
11301TIP3   OH255317   1.670   4.856  11.835 -0.1169 -0.1079 -0.5327
11301TIP3    H155318   1.701   4.870  11.745 -1.3069  0.0688 -0.9284
11301TIP3    H255319   1.750   4.845  11.886  0.6986  2.0016 -1.2458
11302TIP3   OH255320   2.932   6.106  12.787 -0.4003  0.0129 -0.7054
11302TIP3    H155321   2.847   6.130  12.825 -1.3541 -1.1512 -2.0148
11302TIP3    H255322   2.995   6.126  12.856 -1.8901 -0.5037  0.8760
11303TIP3   OH255323   1.197   2.837   3.271  0.5116  0.3899 -0.2272
11303TIP3    H155324   1.207   2.902   3.202  3.2708  0.1762 -0.1513
11303TIP3    H255325   1.284   2.798   3.280 -0.4951 -1.6911  1.3226
11304TIP3   OH255326   2.761   3.413  13.822 -0.8325  0.1180 -0.0596
11304TIP3    H155327   2.816   3.374  13.754 -0.3978  0.2293  0.2280
11304TIP3    H255328   2.746   3.342  13.884 -1.6062 -0.1120 -0.4941
11305TIP3   OH255329   2.331   5.069   5.539  0.8043 -0.5619 -0.2815
11305TIP3    H155330   2.367   5.003   5.479 -0.3825 -1.2317 -0.2899
11305TIP3    H255331   2.388   5.145   5.528  2.2447 -1.5963 -0.2239
11306TIP3   OH255332   0.318   3.486   1.882  1.0244 -0.2148  0.1150
11306TIP3    H155333   0.339   3.398   1.915  3.0639  0.3330  0.4446
11306TIP3    H255334   0.313   3.540   1.961 -0.1704  0.0040 -0.0932
11307TIP3   OH255335   2.962   3.226  12.107 -0.1369 -0.1706 -0.2510
11307TIP3    H155336   2.981   3.320  12.109 -0.9887  0.0017  0.4244
11307TIP3    H255337   2.942   3.207  12.016 -2.4493  0.8540 -0.0341
11308TIP3   OH255338   4.176   4.472   0.586  0.3271  0.0325 -0.3017
11308TIP3    H155339   4.084   4.492   0.566  0.5012  0.2570 -0.8992
11308TIP3    H255340   4.183   4.487   0.681 -0.3749 -0.4873 -0.1543
11309TIP3   OH255341   1.292   5.293  16.790  0.0451 -0.1346 -0.1455
11309TIP3    H155342   1.373   5.245  16.804  0.1448  0.2812  0.8003
11309TIP3    H255343   1.311   5.354  16.718  1.5408  2.0193  1.9323
11310TIP3   OH255344   4.432   1.863  11.895  0.3773 -0.3841  0.3994
11310TIP3    H155345   4.336   1.868  11.895  0.3593 -0.6511  1.2209
11310TIP3    H255346   4.456   1.877  11.803 -0.2614  2.6430  0.6032
11311TIP3   OH255347   3.064   6.666  15.169 -0.3705 -0.2837 -0.2501
11311TIP3    H155348   3.039   6.748  15.212  0.2982 -1.1659  1.9471
11311TIP3    H255349   3.133   6.692  15.107  0.5873  0.7072  1.1763
11312TIP3   OH255350   4.719   3.516   4.716  0.1665  0.0330 -0.1402
11312TIP3    H155351   4.708   3.467   4.797  2.1706 -1.1291 -0.5057
11312TIP3    H255352   4.804   3.558   4.725  0.0275  0.6107 -1.3012
11313TIP3   OH255353   3.002   4.623   3.482 -0.1428 -0.2950  0.0520
11313TIP3    H155354   2.982   4.644   3.391 -1.0809  1.8885  0.6784
11313TIP3    H255355   3.098   4.620   3.485 -0.0434  0.9445 -0.7985
11314TIP3   OH255356   2.078   1.492   5.611  0.2359  0.2872 -0.2572
11314TIP3    H155357   2.073   1.586   5.594  0.3249  0.4880  0.7599
11314TIP3    H255358   2.162   1.465   5.575  0.0676  0.5366 -0.8349
11315TIP3   OH255359   5.068   5.256   2.202  0.2354  0.0739 -0.1789
11315TIP3    H155360   5.089   5.349   2.213 -2.1571  0.6250  0.2837
11315TIP3    H255361   5.087   5.217   2.287 -0.3423  0.4988  0.1535
11316TIP3   OH255362   4.705   3.248   3.882  0.0330 -0.2400 -0.3023
11316TIP3    H155363   4.714   3.214   3.971 -1.4103  2.2124  0.8792
11316TIP3    H255364   4.788   3.294   3.865  1.2161 -2.4967 -1.1894
11317TIP3   OH255365   5.831   5.910  15.214  0.0537 -0.1195 -0.0875
11317TIP3    H155366   5.794   5.822  15.203  0.7269 -0.2890 -1.0603
11317TIP3    H255367   5.921   5.896  15.241  0.3390  0.2629 -0.8193
11318TIP3   OH255368   2.954   0.521  15.470 -0.0379  0.1471 -0.7200
11318TIP3    H155369   2.884   0.488  15.526 -1.3143  1.8134 -1.2402
11318TIP3    H255370   2.984   0.601  15.514  2.2373 -0.9699 -0.0332
11319TIP3   OH255371   2.061   3.810   6.425 -0.0618 -0.1911 -0.4472
11319TIP3    H155372   2.024   3.856   6.501 -1.7676 -0.4111 -1.1219
11319TIP3    H255373   2.156   3.815   6.439 -0.3374 -0.6839  1.9620
11320TIP3   OH255374   5.856   6.222   1.180 -0.1242  0.3320  0.0032
11320TIP3    H155375   5.849   6.127   1.192  0.2559  0.4045  0.9497
11320TIP3    H255376   5.915   6.233   1.106  2.0892 -0.1988  1.5616
11321TIP3   OH255377   3.363   3.386  14.599 -0.1479  0.4895 -0.5337
11321TIP3    H155378   3.416   3.314  14.567  0.9988  1.3486 -0.6375
11321TIP3    H255379   3.354   3.445  14.524  0.3846  1.2676 -0.0028
11322TIP3   OH255380   0.926   0.296  14.659 -0.6409  0.1399 -0.2415
11322TIP3    H155381   1.003   0.251  14.623  0.0322  1.5548 -0.6214
11322TIP3    H255382   0.943   0.301  14.753 -0.1985  0.5663 -0.3420
11323TIP3   OH255383   3.315   3.629  15.549  0.0860  0.4515 -0.2191
11323TIP3    H155384   3.232   3.583  15.563  0.4887 -0.2396 -0.0515
11323TIP3    H255385   3.351   3.589  15.469  0.9026 -0.2275  0.4690
11324TIP3   OH255386   3.055   2.734   0.010  0.1384 -0.0658  0.5984
11324TIP3    H155387   3.032   2.781  -0.069 -0.8507  0.6637  1.2868
11324TIP3    H255388   3.126   2.676  -0.015  0.0968  0.4371 -0.7161
11325TIP3   OH255389   3.964   3.896   5.017  0.1465 -0.7719  0.0664
11325TIP3    H155390   4.037   3.953   4.994 -0.9690 -0.2435 -2.4320
11325TIP3    H255391   3.907   3.896   4.940 -1.6505 -2.5228  1.2783
11326TIP3   OH255392   4.288   0.880  12.407 -0.0309 -0.7983 -0.6095
11326TIP3    H155393   4.327   0.849  12.488 -0.7235 -0.1070 -0.0015
11326TIP3    H255394   4.197   0.897  12.429  0.1160  0.8299 -1.1232
11327TIP3   OH255395   6.454   0.299  13.188 -0.1741 -0.3647  0.6504
11327TIP3    H155396   6.498   0.238  13.129 -1.1047 -1.1031  0.6895
11327TIP3    H255397   6.440   0.378  13.135  1.0760 -0.1538  0.6116
11328TIP3   OH255398   2.511   3.146  16.633 -0.3805  0.2191 -0.4327
11328TIP3    H155399   2.459   3.066  16.641 -1.5030  0.9928  0.4327
11328TIP3    H255400   2.454   3.215  16.670 -0.0948  1.7037 -2.6059
11329TIP3   OH255401   6.671   4.163  12.324  0.8772  0.3698 -0.0912
11329TIP3    H155402   6.616   4.104  12.375 -1.0396  0.9445 -1.3712
11329TIP3    H255403   6.760   4.145  12.353  0.3361 -2.7645 -0.0681
11330TIP3   OH255404   0.606   2.819   4.931 -0.7907  0.1933 -0.2077
11330TIP3    H155405   0.647   2.739   4.898  2.0528  0.9611  1.1669
11330TIP3    H255406   0.600   2.877   4.855  2.1779  0.5767 -0.2560
11331TIP3   OH255407   3.661   0.303  12.457 -0.3516 -0.2934 -0.6333
11331TIP3    H155408   3.715   0.336  12.385 -0.9084  0.5407 -0.6785
11331TIP3    H255409   3.699   0.343  12.536 -0.0592 -0.7988 -0.5135
11332TIP3   OH255410   3.285   0.435   3.338 -0.9113 -0.2331 -0.1533
11332TIP3    H155411   3.243   0.520   3.353  1.6281  0.8711  1.3374
11332TIP3    H255412   3.354   0.454   3.274 -1.9695 -1.7866 -1.8379
11333TIP3   OH255413   3.998   0.304  13.280  0.0209  0.7310  0.2481
11333TIP3    H155414   3.988   0.230  13.220 -0.9496 -1.6882  3.1270
11333TIP3    H255415   3.908   0.336  13.293 -0.1861 -0.5328  2.3323
11334TIP3   OH255416   5.629   6.092  15.404 -0.6500 -0.8085 -0.1947
11334TIP3    H155417   5.616   6.020  15.342 -0.2699  0.1053 -1.3646
11334TIP3    H255418   5.723   6.097  15.416 -0.7252 -1.0393  0.5586
11335TIP3   OH255419   5.122   6.689  16.573 -0.2055  0.3776  0.4797
11335TIP3    H155420   5.195   6.710  16.632 -0.8856 -0.0969  1.5153
11335TIP3    H255421   5.079   6.615  16.614  0.1451 -0.9235 -1.3678
11336TIP3   OH255422   0.380   5.158   4.050 -0.0754  0.2511  0.2306
11336TIP3    H155423   0.287   5.166   4.071  0.0171  1.7197  0.1837
11336TIP3    H255424   0.382   5.150   3.955 -0.1191  0.9639  0.1682
11337TIP3   OH255425   4.773   0.885  16.634 -0.1386  0.2069  0.5002
11337TIP3    H155426   4.862   0.894  16.667  1.0584  0.5174 -2.5173
11337TIP3    H255427   4.742   0.803  16.672  1.7099 -0.3252  0.9880
11338TIP3   OH255428   0.109   0.091  14.003 -0.1901  0.4281 -1.1367
11338TIP3    H155429   0.037   0.131  13.954 -1.4822 -1.0097 -0.5135
11338TIP3    H255430   0.076   0.005  14.027  1.5704 -0.0759 -0.3608
11339TIP3   OH255431   1.948   2.695  16.000  0.0373  0.0367 -0.4882
11339TIP3    H155432   1.934   2.618  16.055  1.1601 -0.6295 -1.0929
11339TIP3    H255433   1.868   2.747  16.009 -1.1836 -1.7142 -0.9250
11340TIP3   OH255434   6.363   2.423  14.118  0.0638 -0.6168  0.1959
11340TIP3    H155435   6.307   2.497  14.141  3.2225  1.7783  0.8948
11340TIP3    H255436   6.396   2.390  14.202  0.9305 -0.8708 -0.2246
11341TIP3   OH255437   4.642   4.435   4.422 -0.2094 -0.6181 -0.3110
11341TIP3    H155438   4.623   4.529   4.424 -1.6231 -0.8914  1.4243
11341TIP3    H255439   4.558   4.394   4.406 -0.1569 -1.6708  1.7621
11342TIP3   OH255440   6.181   3.106  10.717 -0.5995  0.3478 -0.0647
11342TIP3    H155441   6.133   3.060  10.649 -1.6568  0.2497  0.7224
11342TIP3    H255442   6.258   3.142  10.673 -0.9299 -0.2542 -1.1569
11343TIP3   OH255443   1.987   3.335   1.838 -0.2609 -0.6624 -0.4601
11343TIP3    H155444   1.967   3.417   1.885 -0.5395  0.1740 -1.9655
11343TIP3    H255445   1.938   3.342   1.756 -2.0481 -3.3426  0.2580
11344TIP3   OH255446   5.277   6.782  12.415 -0.5206  0.0746 -0.1708
11344TIP3    H155447   5.260   6.691  12.435  0.9976 -0.4727 -1.1528
11344TIP3    H255448   5.350   6.806  12.473  1.4379 -0.4327 -2.3095
11345TIP3   OH255449   4.934   0.902  13.003  0.0938 -0.3111  0.3921
11345TIP3    H155450   4.841   0.923  13.015 -0.0455 -0.8018  0.2055
11345TIP3    H255451   4.939   0.870  12.913  0.6305  0.6976  0.0531
11346TIP3   OH255452   0.165   0.055  15.881 -0.1078  0.1643  0.0407
11346TIP3    H155453   0.114   0.061  15.962  0.4358  0.9687  0.3313
11346TIP3    H255454   0.172  -0.039  15.865 -0.6814  0.0120  0.6316
11347TIP3   OH255455   1.712   2.848   2.086 -0.2634 -0.1531 -0.0270
11347TIP3    H155456   1.620   2.831   2.108  0.5721 -1.3329  3.1468
11347TIP3    H255457   1.719   2.943   2.087 -1.3948 -0.0462 -0.1792
11348TIP3   OH255458   5.738   5.035   4.161  0.1154  0.6247  0.0291
11348TIP3    H155459   5.768   5.003   4.076 -0.3016  1.6463 -0.5255
11348TIP3    H255460   5.643   5.030   4.156  0.1106 -0.3316  0.8609
11349TIP3   OH255461   2.885   2.792  14.530  0.3809  0.3129  0.2487
11349TIP3    H155462   2.852   2.779  14.619 -0.2349  0.8196  0.1029
11349TIP3    H255463   2.894   2.887  14.521 -0.7361  0.3544 -0.6260
11350TIP3   OH255464   3.732   2.996   4.399  0.5179  0.2647  0.6435
11350TIP3    H155465   3.652   2.946   4.379  1.3299 -0.7357 -0.2245
11350TIP3    H255466   3.703   3.087   4.403 -0.2492  0.2331 -2.3138
11351TIP3   OH255467   1.510   6.702  12.853  0.1490 -0.0029 -0.0699
11351TIP3    H155468   1.568   6.634  12.819 -1.1409 -0.7585 -0.7951
11351TIP3    H255469   1.433   6.656  12.884 -0.1093  0.9967  0.8814
11352TIP3   OH255470   2.797   5.382   1.746 -0.0567  0.2210  0.0825
11352TIP3    H155471   2.786   5.476   1.733 -0.7791  0.2506  0.7937
11352TIP3    H255472   2.708   5.347   1.742  0.0472 -0.2314  1.1946
11353TIP3   OH255473   3.198   2.223  15.863  0.2765 -0.2127 -0.2014
11353TIP3    H155474   3.210   2.154  15.928 -2.0034 -0.5782 -0.1055
11353TIP3    H255475   3.174   2.300  15.914 -1.3807 -0.4651 -0.5404
11354TIP3   OH255476   3.699   6.705   2.374 -0.5367  0.5120  0.1302
11354TIP3    H155477   3.623   6.693   2.431 -0.1374 -1.1507  0.3764
11354TIP3    H255478   3.703   6.799   2.359 -2.0899  0.7329  0.8629
11355TIP3   OH255479   0.226   1.634  17.138 -0.3548 -0.3519  0.5248
11355TIP3    H155480   0.185   1.548  17.146 -2.0648  0.5971  4.1589
11355TIP3    H255481   0.154   1.693  17.117  0.4005  0.5047  0.2631
11356TIP3   OH255482   5.087   1.981   1.678  0.0163  0.1228  0.2967
11356TIP3    H155483   5.057   1.915   1.615  0.3087  0.2897 -0.0206
11356TIP3    H255484   5.070   2.064   1.634  0.6374  0.2288  0.2513
11357TIP3   OH255485   4.885   6.013   2.625 -0.2006  0.0918  0.1276
11357TIP3    H155486   4.891   6.072   2.700 -0.3859 -0.2460  0.4082
11357TIP3    H255487   4.947   5.942   2.644 -0.5143 -0.1824  0.1332
11358TIP3   OH255488   2.575   4.679   6.329  0.1092 -0.1286  0.0524
11358TIP3    H155489   2.547   4.672   6.420 -0.5359 -0.9376 -0.1936
11358TIP3    H255490   2.496   4.661   6.278 -0.0082  2.1348 -0.6992
11359TIP3   OH255491   6.373   5.342   3.437  0.1561  0.4570  0.0218
11359TIP3    H155492   6.407   5.303   3.517 -1.3815 -0.1102  0.4212
11359TIP3    H255493   6.330   5.423   3.465  0.1898  0.5957 -0.3148
11360TIP3   OH255494   5.395   0.892   4.545 -0.3497  0.4005 -0.1778
11360TIP3    H155495   5.469   0.953   4.536  0.6429 -0.6599  0.4628
11360TIP3    H255496   5.436   0.809   4.571 -1.9379  0.3619  2.5421
11361TIP3   OH255497   2.965   5.458   6.051 -0.4826 -0.4603  0.2455
11361TIP3    H155498   2.913   5.405   5.991 -1.3680  0.8182 -0.1757
11361TIP3    H255499   3.016   5.516   5.994 -0.0307 -0.4138  0.6936
11362TIP3   OH255500   3.269   5.070  16.702  0.2084  0.5533 -0.7957
11362TIP3    H155501   3.281   5.014  16.625 -0.5922  1.3196 -1.4951
11362TIP3    H255502   3.174   5.076  16.712  0.3055  0.5826  0.1761
11363TIP3   OH255503   4.590   0.247   0.056 -0.2521  0.3280  0.1545
11363TIP3    H155504   4.588   0.301  -0.024 -0.8752  0.6652  0.3902
11363TIP3    H255505   4.523   0.285   0.112 -0.1708 -0.2299  0.6388
11364TIP3   OH255506   5.093   3.283   5.078  0.0429 -0.0516 -0.0357
11364TIP3    H155507   5.047   3.276   5.161  2.4580 -1.2403  1.3101
11364TIP3    H255508   5.162   3.348   5.093 -0.8458  1.3876 -1.8445
11365TIP3   OH255509   4.067   1.725   2.104 -0.0925  0.1539  0.4454
11365TIP3    H155510   4.073   1.638   2.065 -0.6332  0.5125 -0.4758
11365TIP3    H255511   4.150   1.767   2.082 -0.0262  0.0372  0.4701
11366TIP3   OH255512   2.600   4.467   2.406  0.4898  0.7408 -0.1823
11366TIP3    H155513   2.608   4.406   2.480  1.3571  1.1833  0.0991
11366TIP3    H255514   2.687   4.505   2.396 -0.0477  2.0002 -0.3016
11367TIP3   OH255515   6.502   4.811   5.753 -0.5057  0.0854 -0.7511
11367TIP3    H155516   6.508   4.819   5.848 -1.5868  0.1345 -0.6717
11367TIP3    H255517   6.591   4.789   5.725  0.5948  3.2026 -0.0764
11368TIP3   OH255518   0.268   0.470  10.737 -0.3477  0.7194  0.1956
11368TIP3    H155519   0.319   0.396  10.770 -3.7965 -1.1046  1.9875
11368TIP3    H255520   0.298   0.481  10.647 -0.0012 -3.2866 -0.3581
11369TIP3   OH255521   6.722   0.272  13.414  0.4449  1.1167  0.0009
11369TIP3    H155522   6.728   0.329  13.491 -1.0573  0.0503  0.9728
11369TIP3    H255523   6.801   0.218  13.419  0.4558  1.1786  0.7039
11370TIP3   OH255524   1.257   0.154   2.336 -0.4146 -0.3989  0.1016
11370TIP3    H155525   1.335   0.204   2.358 -1.8711  1.8562  0.4720
11370TIP3    H255526   1.277   0.112   2.252  0.7630  1.1028 -0.3976
11371TIP3   OH255527   4.993   5.912  15.002  0.4972 -0.2711  0.5534
11371TIP3    H155528   5.017   5.868  14.920  3.4173  0.0144  1.1404
11371TIP3    H255529   4.989   6.005  14.980 -2.0273 -0.3951  0.1191
11372TIP3   OH255530   1.110   1.614   4.409  0.3067  0.6975  0.8377
11372TIP3    H155531   1.030   1.664   4.396 -0.1765 -0.0813  0.7645
11372TIP3    H255532   1.102   1.578   4.497  1.1518  1.6239  1.3142
11373TIP3   OH255533   6.208   1.101   1.501  0.7887 -0.0039 -0.1702
11373TIP3    H155534   6.130   1.078   1.551 -0.5729  0.8767 -1.7983
11373TIP3    H255535   6.191   1.070   1.412  2.8921 -0.9812 -0.3053
11374TIP3   OH255536   1.593   6.449   4.523  0.5502 -0.8224 -0.1822
11374TIP3    H155537   1.566   6.374   4.576  1.3004  0.1297  1.6573
11374TIP3    H255538   1.682   6.428   4.496  0.5045 -0.9016 -0.2713
11375TIP3   OH255539   5.030   1.167   1.759 -0.0147  0.0657 -0.6087
11375TIP3    H155540   5.030   1.259   1.732 -0.1850 -0.2950 -1.9197
11375TIP3    H255541   4.949   1.156   1.808  0.4836  0.8409  0.4204
11376TIP3   OH255542   2.326   3.329   2.951  0.1268 -0.3178 -0.1978
11376TIP3    H155543   2.291   3.286   2.872  0.1832 -0.0095 -0.3922
11376TIP3    H255544   2.382   3.262   2.991 -0.1833 -0.5984 -0.2239
11377TIP3   OH255545   1.670   2.856   3.117  0.0416  0.4188  0.5926
11377TIP3    H155546   1.738   2.833   3.054 -0.7831  1.3501 -0.7063
11377TIP3    H255547   1.593   2.807   3.088  0.2916 -1.1940  2.4697
11378TIP3   OH255548   4.705   1.716   2.148  0.1870  0.4007  0.1207
11378TIP3    H155549   4.678   1.756   2.231 -0.0423  0.1332  0.1794
11378TIP3    H255550   4.740   1.630   2.173 -1.8903 -0.6163 -0.2218
11379TIP3   OH255551   5.667   0.910   0.498  0.2817 -0.0255  0.0544
11379TIP3    H155552   5.672   0.893   0.592  1.8354  1.2432  0.2378
11379TIP3    H255553   5.676   1.005   0.489 -2.3841  0.2195 -1.2596
11380TIP3   OH255554   1.668   0.492  14.726  0.0135  0.2424 -0.5273
11380TIP3    H155555   1.728   0.535  14.788 -0.0721  1.1767 -1.0647
11380TIP3    H255556   1.670   0.400  14.751 -1.1664  0.7750  1.8299
11381TIP3   OH255557   0.173   1.535  11.853 -0.7085  0.6707 -0.0421
11381TIP3    H155558   0.246   1.550  11.793  0.7219 -0.5632  1.3079
11381TIP3    H255559   0.175   1.611  11.912 -2.1375  1.9024 -1.4660
11382TIP3   OH255560   2.745   4.750  11.948  0.1115  0.4878 -0.0429
11382TIP3    H155561   2.718   4.673  11.999  0.3550  0.1055 -0.4869
11382TIP3    H255562   2.724   4.825  12.005 -2.5319  0.2814 -0.6478
11383TIP3   OH255563   5.259   1.316  17.236 -0.0040 -0.0358  0.0612
11383TIP3    H155564   5.235   1.225  17.219  2.1095 -0.6630  0.0993
11383TIP3    H255565   5.216   1.365  17.166 -0.7335 -1.1226 -0.2865
11384TIP3   OH255566   0.880   4.247  13.009 -0.1764 -0.3564  0.3770
11384TIP3    H155567   0.920   4.164  12.980  1.9147  1.6602 -3.3965
11384TIP3    H255568   0.791   4.245  12.972  0.4136 -0.3545 -1.1254
11385TIP3   OH255569   2.094   0.352  12.352  0.1720 -0.6347  0.6026
11385TIP3    H155570   2.037   0.278  12.332 -1.5583  0.9034 -0.4553
11385TIP3    H255571   2.054   0.426  12.307  1.9501  0.9234  1.4554
11386TIP3   OH255572   4.942   6.499   4.820 -0.4240 -0.1275  0.0153
11386TIP3    H155573   4.870   6.436   4.818  0.0577 -0.6652 -1.6109
11386TIP3    H255574   5.021   6.445   4.827 -0.1358  0.4558  1.8003
11387TIP3   OH255575   5.502   0.786   5.011  0.7675  0.2708  0.5401
11387TIP3    H155576   5.586   0.742   5.014  0.5251 -0.2207  0.3188
11387TIP3    H255577   5.507   0.853   5.080  1.2343  0.0686  0.7074
11388TIP3   OH255578   0.806   5.660   0.362  0.1209 -0.1762 -0.0514
11388TIP3    H155579   0.797   5.566   0.376 -0.1027 -0.0278  0.9144
11388TIP3    H255580   0.866   5.689   0.430  1.0432  0.2280 -1.0106
11389TIP3   OH255581   5.819   6.102   5.891  0.6170 -0.6153  0.4327
11389TIP3    H155582   5.892   6.041   5.899 -1.4486 -3.2282  0.8638
11389TIP3    H255583   5.848   6.181   5.936  3.2500 -1.4147  0.2723
11390TIP3   OH255584   4.161   1.977  12.714  0.3323 -0.4669  0.5651
11390TIP3    H155585   4.074   1.990  12.752  0.3318 -2.3731  1.3311
11390TIP3    H255586   4.221   2.020  12.775  0.0718 -0.7391  1.0139
11391TIP3   OH255587   6.538   0.018  14.174 -0.3641  0.2104  0.0877
11391TIP3    H155588   6.616   0.071  14.189  0.4028 -0.7060 -0.5741
11391TIP3    H255589   6.493   0.018  14.259 -1.0082  2.8422 -0.1725
11392TIP3   OH255590   0.412   6.214  14.895  0.4002  0.5948  0.9602
11392TIP3    H155591   0.409   6.131  14.847  0.7633  0.9572  0.2935
11392TIP3    H255592   0.449   6.192  14.980 -0.5558 -0.1175  1.2099
11393TIP3   OH255593   2.864   1.790   1.867 -0.0200  0.0779  0.0054
11393TIP3    H155594   2.784   1.831   1.899  1.1655  2.1386  0.5001
11393TIP3    H255595   2.875   1.712   1.922 -1.8608 -0.4790 -0.3500
11394TIP3   OH255596   1.785   1.296  10.889 -0.4099 -0.4741  0.0235
11394TIP3    H155597   1.791   1.356  10.814  0.1386  0.0220  0.4571
11394TIP3    H255598   1.708   1.243  10.870 -2.0282  1.5662  0.4821
11395TIP3   OH255599   4.900   6.514  16.544  0.1394  0.5974 -0.0866
11395TIP3    H155600   4.903   6.495  16.450 -1.6236  0.0562 -0.0676
11395TIP3    H255601   4.895   6.609  16.548 -0.6456  0.5857 -0.5846
11396TIP3   OH255602   5.779   5.675   5.181  0.1698  0.2901  0.0859
11396TIP3    H155603   5.758   5.590   5.220  1.0746  0.4955  1.0683
11396TIP3    H255604   5.700   5.699   5.132 -0.3403 -0.8041  0.3387
11397TIP3   OH255605   4.416   2.591  13.926 -0.5580  0.1624 -0.1233
11397TIP3    H155606   4.490   2.539  13.956 -0.1054  0.9815  0.2335
11397TIP3    H255607   4.341   2.557  13.975  0.1505  1.4082  1.9552
11398TIP3   OH255608   0.226   6.006   3.939 -0.0254  1.3221 -0.0931
11398TIP3    H155609   0.284   6.006   3.862 -1.1119  0.1933 -0.9359
11398TIP3    H255610   0.198   6.097   3.947  0.5311  1.5590 -0.6998
11399TIP3   OH255611   2.551   1.196  12.330  0.0624 -0.3538 -0.0880
11399TIP3    H155612   2.558   1.260  12.259  0.1722 -2.4495 -2.0880
11399TIP3    H255613   2.641   1.189  12.363  0.0177  0.6217  0.2871
11400TIP3   OH255614   4.730   2.343   5.000  0.2883 -0.2523  0.2888
11400TIP3    H155615   4.722   2.267   5.057  1.4596 -0.0832  0.7144
11400TIP3    H255616   4.722   2.418   5.058  0.7657 -0.0706  0.1284
11401TIP3   OH255617   5.887   0.936   4.442  0.5977  0.2594  0.2062
11401TIP3    H155618   5.961   0.887   4.406  1.7206  0.4627  2.0959
11401TIP3    H255619   5.820   0.869   4.457  1.2523 -0.3318  0.5679
11402TIP3   OH255620   6.353   2.339   0.192  0.0570 -0.3003  0.5121
11402TIP3    H155621   6.423   2.401   0.173 -0.2516  0.0701  0.5764
11402TIP3    H255622   6.324   2.362   0.280 -1.9656  1.3198 -0.4959
11403TIP3   OH255623   1.792   1.612   2.391 -0.4731  0.8552 -0.0749
11403TIP3    H155624   1.778   1.573   2.305 -1.6006  0.3555  0.3099
11403TIP3    H255625   1.720   1.675   2.401 -0.2238  1.0718  0.4031
11404TIP3   OH255626   4.326   6.533  13.798 -0.5022 -0.0810  0.0653
11404TIP3    H155627   4.238   6.565  13.816 -1.4176 -1.2905 -1.9432
11404TIP3    H255628   4.350   6.573  13.714  1.0618  0.5679  0.7790
11405TIP3   OH255629   2.369   3.891   0.463  0.3673 -0.9768  0.0345
11405TIP3    H155630   2.399   3.803   0.440  1.5584 -0.7353  0.5877
11405TIP3    H255631   2.277   3.892   0.438  0.0579 -2.7107  0.9356
11406TIP3   OH255632   1.047   4.999  16.166  0.1716  0.4708 -0.2702
11406TIP3    H155633   1.062   4.909  16.197 -1.0205 -0.1517 -1.4079
11406TIP3    H255634   1.081   5.054  16.236  1.5037 -0.8509  0.1856
11407TIP3   OH255635   3.170   0.401  13.218 -0.4582 -0.2383 -0.3172
11407TIP3    H155636   3.166   0.331  13.153 -0.8379 -1.7989  1.3383
11407TIP3    H255637   3.079   0.429  13.230 -0.6372 -1.2504  0.8678
11408TIP3   OH255638   4.756   6.223   1.007  0.6234  0.0636  0.0169
11408TIP3    H155639   4.765   6.315   0.981  1.7708  0.2760  1.0774
11408TIP3    H255640   4.821   6.177   0.954  0.1172 -0.1361 -0.4415
11409TIP3   OH255641   0.110   3.283  11.452  0.0802 -0.4468 -0.1413
11409TIP3    H155642   0.065   3.233  11.384  2.1453 -0.7483 -1.3488
11409TIP3    H255643   0.144   3.361  11.408 -1.0787  0.9063  1.2227
11410TIP3   OH255644   3.087   3.258  11.212  0.4961 -0.2376  0.4714
11410TIP3    H155645   3.147   3.193  11.248  0.3777  0.0041  1.1286
11410TIP3    H255646   3.000   3.221  11.226  0.4185  0.1503  1.0392
11411TIP3   OH255647   3.558   3.226  15.433  0.1698 -0.7998 -0.1915
11411TIP3    H155648   3.500   3.187  15.498 -2.1074 -0.3514 -1.8109
11411TIP3    H255649   3.508   3.300  15.398  2.5893  0.8956 -0.2725
11412TIP3   OH255650   5.496   6.389   2.060 -0.4922 -0.2692  0.6109
11412TIP3    H155651   5.412   6.432   2.048  0.4315  1.4985  0.0509
11412TIP3    H255652   5.536   6.391   1.973  0.8532  0.5878  1.2097
11413TIP3   OH255653   5.281   1.278   2.245  0.4320 -0.3957 -0.3129
11413TIP3    H155654   5.238   1.300   2.162 -0.2216  0.7228  0.2962
11413TIP3    H255655   5.278   1.360   2.296  0.8029 -1.0670  0.8237
11414TIP3   OH255656   4.587   2.412   1.497  0.2603  0.2564 -0.3111
11414TIP3    H155657   4.517   2.445   1.553  0.1491  1.0211 -0.8917
11414TIP3    H255658   4.543   2.380   1.419  0.4989  0.0167 -0.3504
11415TIP3   OH255659   3.316   2.936   4.083 -0.8519 -0.1482  0.0841
11415TIP3    H155660   3.224   2.922   4.058 -0.8326 -1.3837  0.6463
11415TIP3    H255661   3.360   2.855   4.059  0.2856  0.7534 -0.9612
11416TIP3   OH255662   2.555   4.604  14.798 -0.2372  0.2360 -0.3628
11416TIP3    H155663   2.626   4.662  14.825 -1.3909  1.5576 -0.0405
11416TIP3    H255664   2.521   4.569  14.880 -0.2632 -0.0315 -0.4868
11417TIP3   OH255665   3.309   1.947   6.161 -0.2017  0.9435 -0.3965
11417TIP3    H155666   3.257   2.020   6.193  1.0691  0.9262  1.9924
11417TIP3    H255667   3.381   1.940   6.224  1.5866 -0.2667 -2.4237
11418TIP3   OH255668   5.932   6.446   3.847  0.0415  0.4790  0.1906
11418TIP3    H155669   5.969   6.384   3.910  1.6850  1.2410  0.0206
11418TIP3    H255670   5.962   6.414   3.762 -1.1468  0.1468 -0.1200
11419TIP3   OH255671   0.638   4.727   4.410  0.7335  0.5074  0.0620
11419TIP3    H155672   0.730   4.700   4.414  1.5072  2.0402 -3.3589
11419TIP3    H255673   0.596   4.663   4.353  0.9710  2.3565 -2.3916
11420TIP3   OH255674   0.030   6.365   2.794 -0.0598 -0.0369  0.0394
11420TIP3    H155675   0.085   6.397   2.723  0.5084  1.0826  0.9429
11420TIP3    H255676  -0.031   6.304   2.752  1.3707 -0.7415 -1.1087
11421TIP3   OH255677   5.525   0.096   4.192  0.4882  0.4461  0.6859
11421TIP3    H155678   5.451   0.050   4.154  0.0747  0.5537  1.3446
11421TIP3    H255679   5.506   0.189   4.178  0.9111  0.4518  0.1092
11422TIP3   OH255680   6.715   2.291   0.344  0.0818  0.2444 -0.1891
11422TIP3    H155681   6.776   2.342   0.397  1.9657 -1.4000 -0.6442
11422TIP3    H255682   6.683   2.222   0.403 -1.3717  1.0734  0.0375
11423TIP3   OH255683   6.391   5.458  13.206 -0.0212  0.2375 -0.0811
11423TIP3    H155684   6.356   5.394  13.267 -2.0482  0.8028 -0.5719
11423TIP3    H255685   6.476   5.423  13.180 -0.3864 -1.4366  0.8509
11424TIP3   OH255686   5.927   3.635  14.552 -0.2462  0.2831  0.8772
11424TIP3    H155687   5.913   3.688  14.631 -0.6982  0.1090  0.9152
11424TIP3    H255688   5.872   3.558  14.565 -0.7579  0.5104  0.1421
11425TIP3   OH255689   2.380   6.152   2.104 -0.0914 -0.1657  0.1401
11425TIP3    H155690   2.355   6.110   2.187  1.3207  2.8576  2.2828
11425TIP3    H255691   2.313   6.218   2.090  1.0349  1.0461  0.3078
11426TIP3   OH255692   3.328   4.210  15.040 -0.6208 -0.6254  0.0378
11426TIP3    H155693   3.413   4.184  15.074 -1.4320 -0.6921  2.1425
11426TIP3    H255694   3.340   4.300  15.011  0.4614 -1.0487 -0.9418
11427TIP3   OH255695   4.289   5.626   0.770 -0.4431 -0.0047 -0.5733
11427TIP3    H155696   4.236   5.705   0.784 -0.4658 -0.1111 -0.0491
11427TIP3    H255697   4.359   5.655   0.711 -0.7990  0.2573 -0.8732
11428TIP3   OH255698   0.085   0.902   0.203  0.0078 -0.4086 -0.5418
11428TIP3    H155699   0.115   0.823   0.157  1.6512  0.4142 -0.9804
11428TIP3    H255700  -0.008   0.908   0.182  0.1520 -1.4788 -1.6464
11429TIP3   OH255701   4.090   2.082  13.274 -0.4687 -0.4740  0.5800
11429TIP3    H155702   4.108   2.012  13.211 -3.8018  0.8290 -2.1042
11429TIP3    H255703   4.086   2.037  13.358  0.2516 -3.0375 -0.6327
11430TIP3   OH255704   1.363   3.869  14.662 -0.0186 -0.3005 -0.0127
11430TIP3    H155705   1.341   3.839  14.750  1.4956 -3.2598 -0.5243
11430TIP3    H255706   1.438   3.927  14.674  0.6079 -1.2239  0.6430
11431TIP3   OH255707   3.481   0.738   2.534 -0.0157 -0.3733 -0.0399
11431TIP3    H155708   3.437   0.703   2.611  0.3410 -0.7612 -0.0060
11431TIP3    H255709   3.562   0.776   2.568  0.1578 -0.5747 -0.2284
11432TIP3   OH255710   4.933   1.327   4.765  0.3701 -0.0737 -0.1317
11432TIP3    H155711   4.961   1.279   4.843  2.1762 -0.2042 -0.8080
11432TIP3    H255712   4.892   1.260   4.710  1.4331 -0.5340 -0.3862
11433TIP3   OH255713   3.649   3.917   4.469 -0.0469  0.1450 -0.1626
11433TIP3    H155714   3.740   3.890   4.475 -1.0516 -4.0151 -0.9773
11433TIP3    H255715   3.610   3.889   4.553 -1.0377 -0.3514 -0.7654
11434TIP3   OH255716   5.079   0.760   1.916 -0.1157  0.3173  0.4338
11434TIP3    H155717   5.128   0.842   1.908 -1.0206  0.8465  0.2784
11434TIP3    H255718   5.068   0.730   1.826 -2.0116  1.3661  0.2719
11435TIP3   OH255719   4.976   5.113   0.803 -0.4516 -0.2424 -0.1320
11435TIP3    H155720   5.013   5.084   0.886 -0.8998 -0.9458 -0.1731
11435TIP3    H255721   5.015   5.200   0.788 -1.3498  0.4547  1.4361
11436TIP3   OH255722   3.626   5.137   3.109 -0.5198  0.3434  0.1019
11436TIP3    H155723   3.648   5.222   3.150 -1.0899  1.3936 -1.6740
11436TIP3    H255724   3.711   5.094   3.098  0.0043  1.5052 -0.6635
11437TIP3   OH255725   6.410   1.706   1.164  0.2404 -0.2707 -0.0208
11437TIP3    H155726   6.444   1.792   1.139  0.4303 -0.4767 -0.4940
11437TIP3    H255727   6.420   1.653   1.085  1.3406 -1.0993  0.6434
11438TIP3   OH255728   4.460   5.207  11.741  0.4575 -0.1590 -0.3689
11438TIP3    H155729   4.372   5.191  11.775  0.5013  1.5586  0.7150
11438TIP3    H255730   4.446   5.241  11.653  0.0516 -0.3457 -0.3797
11439TIP3   OH255731   1.432   0.126  17.109  0.4513  0.3707  0.0835
11439TIP3    H155732   1.394   0.193  17.053 -2.6887 -2.3822 -1.5030
11439TIP3    H255733   1.366   0.111  17.177  0.4361 -1.8986 -0.3567
11440TIP3   OH255734   1.883   2.619   2.530 -0.1323  0.1735 -0.6647
11440TIP3    H155735   1.908   2.619   2.437  1.0267 -1.3978 -0.3805
11440TIP3    H255736   1.813   2.685   2.535  0.6493  1.2140 -2.4048
11441TIP3   OH255737   3.156   5.236   1.552  0.2576 -0.3500 -0.0147
11441TIP3    H155738   3.204   5.216   1.633 -2.0660 -0.0568  1.5311
11441TIP3    H255739   3.205   5.308   1.512  0.9042  0.1929  1.6690
11442TIP3   OH255740   3.540   4.387   1.389 -0.6951 -0.3034 -0.0966
11442TIP3    H155741   3.588   4.399   1.307 -0.4001  0.4975  0.1853
11442TIP3    H255742   3.464   4.444   1.382 -2.5667 -2.7433 -1.2166
11443TIP3   OH255743   3.447   2.420  13.693  0.0951  0.5091  0.1568
11443TIP3    H155744   3.498   2.501  13.694 -0.8201  1.1011  0.5410
11443TIP3    H255745   3.478   2.372  13.616  0.6731  1.2087 -0.0500
11444TIP3   OH255746   5.523   2.406   6.713 -1.1355  0.3181  0.0003
11444TIP3    H155747   5.480   2.491   6.712 -1.3423  0.2097 -0.3930
11444TIP3    H255748   5.605   2.421   6.760  1.0923  1.8597 -3.8978
11445TIP3   OH255749   5.507   3.210  15.343 -0.2969  0.1491 -0.5693
11445TIP3    H155750   5.468   3.230  15.428  0.1097 -0.3573 -0.2577
11445TIP3    H255751   5.452   3.140  15.307  0.0389 -0.2406 -0.3347
11446TIP3   OH255752   6.153   4.022   1.001 -0.4693  0.0072  0.4722
11446TIP3    H155753   6.164   4.103   1.051  0.6578 -0.8937  1.7857
11446TIP3    H255754   6.198   4.037   0.918 -1.1635  1.0622  0.2773
11447TIP3   OH255755   3.995   4.097   0.421  0.4515 -0.3695  0.3257
11447TIP3    H155756   3.963   4.109   0.511  1.3892  1.5533  0.4599
11447TIP3    H255757   4.034   4.010   0.421  0.6436 -0.3203  1.8543
11448TIP3   OH255758   3.466   2.668   5.544 -0.0443  0.5495  0.0942
11448TIP3    H155759   3.483   2.645   5.452 -0.4213  1.1187 -0.1248
11448TIP3    H255760   3.525   2.740   5.562 -0.2703  0.7156  0.1720
11449TIP3   OH255761   5.224   1.486  12.275  0.0488  0.1486  0.2386
11449TIP3    H155762   5.173   1.440  12.342  0.4956 -2.2650 -0.9436
11449TIP3    H255763   5.305   1.510  12.319 -0.2336 -0.1351  0.9321
11450TIP3   OH255764   0.657   0.701   0.592  0.1883  0.3110 -0.6156
11450TIP3    H155765   0.604   0.769   0.550 -0.2918  2.1554  2.6080
11450TIP3    H255766   0.738   0.746   0.617  1.2334 -1.1923 -1.1949
11451TIP3   OH255767   6.718   0.249  10.966 -0.4779  0.2022 -0.3328
11451TIP3    H155768   6.746   0.294  11.046  0.4469  1.1157 -1.1535
11451TIP3    H255769   6.792   0.192  10.944 -0.6537  0.0986 -0.6485
11452TIP3   OH255770   3.277   1.619   1.717 -0.0590 -0.1069  0.0403
11452TIP3    H155771   3.240   1.695   1.673  0.8193  0.6314  0.5178
11452TIP3    H255772   3.279   1.644   1.810 -3.2144 -2.1685  0.8133
11453TIP3   OH255773   3.240   0.124  13.500 -0.4808  0.1262  0.6213
11453TIP3    H155774   3.212   0.090  13.585 -1.7055  0.7962  0.4998
11453TIP3    H255775   3.237   0.048  13.442  1.0839 -0.5007  1.3216
11454TIP3   OH255776   2.016   4.676   0.074 -0.3653  0.0787 -0.2562
11454TIP3    H155777   1.948   4.634   0.127 -0.7329  1.8902  0.8021
11454TIP3    H255778   1.968   4.714   0.001 -0.1757 -0.4357 -0.6546
11455TIP3   OH255779   5.121   1.977  14.245  0.1031  0.2802  0.2095
11455TIP3    H155780   5.086   1.931  14.321 -0.3733 -0.6562 -0.5599
11455TIP3    H255781   5.204   2.014  14.275  0.3115 -0.7573  0.9578
11456TIP3   OH255782   4.069   6.067   2.862  0.9676 -0.1302 -0.1074
11456TIP3    H155783   4.053   6.049   2.769 -0.2408 -1.8098  0.3817
11456TIP3    H255784   4.056   6.162   2.870 -1.5283 -0.3034 -1.1971
11457TIP3   OH255785   0.711   1.934   0.491 -0.4059  0.6281  0.4639
11457TIP3    H155786   0.756   1.850   0.484 -1.1730  0.0242  2.2318
11457TIP3    H255787   0.779   1.999   0.472  0.8207 -0.3116  1.4490
11458TIP3   OH255788   6.559   0.983   5.704  0.2914  0.4075  0.5261
11458TIP3    H155789   6.587   1.001   5.614 -1.9722 -0.5569 -0.4275
11458TIP3    H255790   6.504   1.058   5.728  0.0110  0.1407  0.7196
11459TIP3   OH255791   3.985   5.681   1.078  0.3727 -0.3590 -0.3686
11459TIP3    H155792   4.052   5.718   1.136  0.0470 -0.0474 -0.1896
11459TIP3    H255793   3.909   5.738   1.090  0.7296  0.5516 -2.1438
11460TIP3   OH255794   6.670   6.552  14.290  0.3296  0.6948  0.1684
11460TIP3    H155795   6.631   6.639  14.277 -0.5126  0.1228 -1.3437
11460TIP3    H255796   6.595   6.493  14.299  0.8746 -0.0423 -0.0260
11461TIP3   OH255797   1.735   4.913  12.712  0.2802  0.0666  0.0225
11461TIP3    H155798   1.680   4.930  12.636  0.7157  2.0643  0.0995
11461TIP3    H255799   1.692   4.840  12.757 -3.2913  2.5103  0.9649
11462TIP3   OH255800   2.389   5.983   5.051 -0.3846 -0.0491  0.0164
11462TIP3    H155801   2.465   6.025   5.011 -1.4752  0.5134 -1.5568
11462TIP3    H255802   2.378   6.027   5.135  0.6529  0.2893 -0.0220
11463TIP3   OH255803   4.898   1.798   3.643 -0.3945  0.3422  0.3975
11463TIP3    H155804   4.850   1.716   3.649  0.6188 -0.3922 -0.9543
11463TIP3    H255805   4.951   1.801   3.723  0.1662 -0.7447  0.0939
11464TIP3   OH255806   5.356   6.746  15.916 -0.2897 -0.5883  0.7957
11464TIP3    H155807   5.408   6.750  15.835 -0.7593  0.5491  0.5283
11464TIP3    H255808   5.393   6.815  15.971 -0.7399 -0.5669  1.0749
11465TIP3   OH255809   0.294   5.907  15.032 -0.2144  1.1692 -0.5474
11465TIP3    H155810   0.209   5.902  15.075  0.8216 -0.8646  1.4374
11465TIP3    H255811   0.315   5.817  15.010  2.0757  1.4141  0.3945
11466TIP3   OH255812   5.106   4.330  13.875  0.8856 -0.1889 -0.2107
11466TIP3    H155813   5.142   4.397  13.816  0.4669 -0.1815 -0.4580
11466TIP3    H255814   5.073   4.262  13.817 -0.0899  0.1050 -0.0072
11467TIP3   OH255815   2.698   4.525   4.115 -0.2908  0.0681 -0.0113
11467TIP3    H155816   2.741   4.491   4.037 -0.5662 -0.5158  0.0911
11467TIP3    H255817   2.709   4.620   4.108  0.3584 -0.0286 -0.3639
11468TIP3   OH255818   6.458   3.632   4.746 -0.2238  0.0353 -0.6902
11468TIP3    H155819   6.377   3.672   4.716 -0.3334  0.9675  0.7564
11468TIP3    H255820   6.435   3.540   4.759 -1.1109  0.3319 -0.1021
11469TIP3   OH255821   4.132   3.429   1.735  0.8281 -0.3567  0.4218
11469TIP3    H155822   4.111   3.340   1.764 -1.4336  0.0731  0.3029
11469TIP3    H255823   4.047   3.473   1.732  1.7146  1.3547 -1.0742
11470TIP3   OH255824   1.489   2.181   4.096 -0.1956 -0.1783 -0.1119
11470TIP3    H155825   1.395   2.188   4.114 -0.2351 -0.2536 -0.2906
11470TIP3    H255826   1.521   2.118   4.160 -0.3602 -0.5464 -0.3893
11471TIP3   OH255827   3.282   6.556   0.044 -0.1130  0.0206  1.0950
11471TIP3    H155828   3.241   6.619  -0.015 -1.2957  0.6068  2.5080
11471TIP3    H255829   3.353   6.518  -0.008 -0.8701  0.7883 -0.5691
11472TIP3   OH255830   4.418   1.053  14.454 -0.2155 -0.2796 -0.7798
11472TIP3    H155831   4.327   1.062  14.484 -0.1282  0.7716 -0.7909
11472TIP3    H255832   4.428   1.123  14.390  0.6850 -0.2152 -0.5742
11473TIP3   OH255833   1.439   0.610  11.732 -0.2279  0.0604  0.1854
11473TIP3    H155834   1.406   0.548  11.668  2.6510 -0.6920 -0.7142
11473TIP3    H255835   1.423   0.568  11.817  0.5375 -1.3566 -0.3455
11474TIP3   OH255836   0.093   1.046   2.522 -0.0270  0.4442 -0.0171
11474TIP3    H155837   0.122   0.957   2.502 -0.4310  0.2670  0.1829
11474TIP3    H255838   0.073   1.084   2.436  0.1720  0.3512 -0.1047
11475TIP3   OH255839   3.428   1.913  12.785 -0.2756  0.4202 -0.2630
11475TIP3    H155840   3.499   1.875  12.733 -0.0524  0.8996 -0.3211
11475TIP3    H255841   3.423   2.004  12.754 -0.5852  0.5250  0.0910
11476TIP3   OH255842   4.905   0.182   4.952  0.2026 -0.2085  0.0018
11476TIP3    H155843   4.942   0.108   4.999  0.5587 -0.5346 -0.7782
11476TIP3    H255844   4.819   0.195   4.991  0.0998 -1.0914  0.0739
11477TIP3   OH255845   0.811   4.713   4.075 -0.2400 -0.2975  0.2079
11477TIP3    H155846   0.760   4.745   4.149  1.3663  0.1713  1.1526
11477TIP3    H255847   0.800   4.780   4.008 -0.0811  0.2892  0.7593
11478TIP3   OH255848   5.759   5.867   2.104  0.9128  0.3019  0.3844
11478TIP3    H155849   5.719   5.954   2.102  0.7921  0.2686 -2.0531
11478TIP3    H255850   5.836   5.878   2.161 -0.8543  1.0948  2.8019
11479TIP3   OH255851   5.194   2.955  16.280  0.0051 -0.0957 -0.2669
11479TIP3    H155852   5.252   3.012  16.331  1.0684  0.7546 -2.2688
11479TIP3    H255853   5.107   2.972  16.314  0.7915 -0.7761  2.2841
11480TIP3   OH255854   2.954   2.888   1.019  0.7169  0.0551  0.4945
11480TIP3    H155855   2.959   2.842   0.935  2.7381 -2.1396  1.7026
11480TIP3    H255856   3.045   2.901   1.045  0.1520 -0.0132  2.6927
11481TIP3   OH255857   1.503   3.600  14.954 -0.0785  0.2902 -0.9259
11481TIP3    H155858   1.425   3.651  14.934 -1.1348 -1.2387 -0.9081
11481TIP3    H255859   1.523   3.555  14.872 -0.1500 -0.4845 -0.5350
11482TIP3   OH255860   6.130   3.944   6.012 -0.6215  0.0144  0.3688
11482TIP3    H155861   6.154   4.034   6.035  1.5217 -0.3645 -0.1172
11482TIP3    H255862   6.036   3.947   5.995 -0.7178  2.0017  1.0844
11483TIP3   OH255863   0.658   1.858   6.029  0.5773  0.5636  0.0095
11483TIP3    H155864   0.574   1.840   5.987  1.5832  1.2058 -2.4268
11483TIP3    H255865   0.634   1.901   6.112 -1.4861  0.8906 -0.6832
11484TIP3   OH255866   1.913   5.722   2.129  0.0506 -0.2313 -0.2913
11484TIP3    H155867   1.923   5.682   2.042 -0.4830 -0.9545 -0.0287
11484TIP3    H255868   2.003   5.733   2.161  0.2111 -1.4085 -0.2925
11485TIP3   OH255869   4.445   0.909   4.325 -0.6173  0.0086 -0.2190
11485TIP3    H155870   4.463   0.959   4.246 -1.9012  0.4029 -0.2826
11485TIP3    H255871   4.350   0.918   4.338 -0.6369 -1.1624  0.6026
11486TIP3   OH255872   1.907   5.436   0.404  0.2031 -0.1902 -0.1196
11486TIP3    H155873   1.918   5.462   0.496  0.4419  0.6272 -0.3770
11486TIP3    H255874   1.912   5.517   0.355 -1.4945 -0.4123 -0.7373
11487TIP3   OH255875   6.237   5.211   3.745  0.0997  0.0114  0.5538
11487TIP3    H155876   6.312   5.174   3.791  0.3961 -0.1409 -0.0352
11487TIP3    H255877   6.229   5.158   3.666 -0.8116 -0.1581  0.7498
11488TIP3   OH255878   5.434   4.999  12.031 -0.1715 -0.3745 -0.0641
11488TIP3    H155879   5.453   4.922  11.977  1.4083 -0.3710  0.4470
11488TIP3    H255880   5.446   5.073  11.972 -1.7833 -0.4789 -0.5819
11489TIP3   OH255881   6.235   5.363   2.558  0.0898 -0.5323 -0.0857
11489TIP3    H155882   6.319   5.321   2.539  1.2673  1.1299  1.1532
11489TIP3    H255883   6.239   5.446   2.512  0.7041  1.1242  2.7127
11490TIP3   OH255884   2.278   6.713   0.762  0.3121  0.1506  0.1855
11490TIP3    H155885   2.334   6.662   0.703 -0.3662  1.3081 -1.5240
11490TIP3    H255886   2.337   6.740   0.833  1.1613 -1.2329  0.0530
11491TIP3   OH255887   4.088   0.717  15.253  0.3841  0.6546 -0.7442
11491TIP3    H155888   3.997   0.746  15.261  0.2910  0.6816 -1.7848
11491TIP3    H255889   4.084   0.622  15.263  0.3102  0.7003 -0.3106
11492TIP3   OH255890   3.992   0.068   1.811  0.3524  0.8417  0.8491
11492TIP3    H155891   3.908   0.115   1.812 -0.4039 -0.4016  2.9417
11492TIP3    H255892   4.018   0.064   1.903  1.4350 -0.9717  0.5085
11493TIP3   OH255893   4.483   2.491   1.961 -0.7174 -0.0302  0.1141
11493TIP3    H155894   4.428   2.566   1.986 -2.5975 -0.7484 -1.6053
11493TIP3    H255895   4.443   2.416   2.006  0.7065 -0.1729  1.2204
11494TIP3   OH255896   2.743   5.611  16.466 -0.8654  0.2909  0.3428
11494TIP3    H155897   2.670   5.624  16.526 -0.9416  0.3153  0.2447
11494TIP3    H255898   2.809   5.674  16.494 -0.6198 -0.1830  0.8455
11495TIP3   OH255899   5.290   2.525  16.663 -0.3754  0.3682  0.3917
11495TIP3    H155900   5.246   2.496  16.583 -1.5826 -2.2635  1.8436
11495TIP3    H255901   5.382   2.507  16.647 -0.5232  0.4507 -0.6305
11496TIP3   OH255902   0.940   4.965  13.284 -0.5553  0.2967  0.1833
11496TIP3    H155903   0.900   5.050  13.263 -1.1197  0.0639  0.2873
11496TIP3    H255904   0.945   4.920  13.200  1.8935  1.2955 -0.2890
11497TIP3   OH255905   4.289   2.644   0.211  0.2095 -0.1974 -1.0350
11497TIP3    H155906   4.376   2.615   0.186  0.2611 -0.6311 -0.3773
11497TIP3    H255907   4.300   2.681   0.299 -0.2597 -0.2532 -0.9483
11498TIP3   OH255908   3.182   2.167   1.354 -0.0227  0.2583  0.0825
11498TIP3    H155909   3.259   2.113   1.339  1.3870  1.8767  1.0991
11498TIP3    H255910   3.164   2.208   1.270  0.7603  0.5203  0.0385
11499TIP3   OH255911   2.933   6.586   4.585 -0.4996  0.3070 -0.1663
11499TIP3    H155912   2.982   6.563   4.506  0.2344 -1.1615  0.6573
11499TIP3    H255913   3.000   6.624   4.643 -1.2930  2.6746 -0.7104
11500TIP3   OH255914   3.412   1.821  12.209  0.2531  0.1492  0.5133
11500TIP3    H155915   3.321   1.799  12.228 -0.2160  2.7681  1.8004
11500TIP3    H255916   3.419   1.819  12.114 -0.5904 -1.9108  0.4524
11501TIP3   OH255917   0.476   5.251  15.943 -0.3131  0.2791 -0.1576
11501TIP3    H155918   0.434   5.328  15.981  1.0357  1.1999 -0.4768
11501TIP3    H255919   0.455   5.255  15.850 -2.1221 -1.0052  0.1494
11502TIP3   OH255920   0.728   0.229   4.789  0.3172  0.1042 -0.3765
11502TIP3    H155921   0.696   0.267   4.707 -0.3641  0.6113  0.1126
11502TIP3    H255922   0.809   0.276   4.807  0.4288  0.0454 -0.7195
11503TIP3   OH255923   4.113   4.379  11.721 -0.3618  0.0417 -0.9321
11503TIP3    H155924   4.126   4.456  11.665 -1.2050  0.3746 -0.6852
11503TIP3    H255925   4.199   4.339  11.727 -0.3605 -0.3743 -3.0077
11504TIP3   OH255926   3.038   1.523  12.104  0.5974  0.7885  0.4792
11504TIP3    H155927   3.047   1.599  12.048 -1.1152  0.9579  0.3977
11504TIP3    H255928   3.029   1.449  12.044  0.0442  0.8034  0.5451
11505TIP3   OH255929   1.652   1.872   4.666 -0.0193  0.5854  0.3361
11505TIP3    H155930   1.627   1.903   4.752 -0.4083  1.5747 -0.1175
11505TIP3    H255931   1.580   1.899   4.608  0.5197  0.4972 -0.3963
11506TIP3   OH255932   1.109   5.832  12.905 -0.0603  0.5864 -0.3510
11506TIP3    H155933   1.197   5.849  12.936 -0.1122 -0.6516  0.5409
11506TIP3    H255934   1.120   5.807  12.813  0.7582 -1.4115  0.2387
11507TIP3   OH255935   4.806   5.402   4.074  0.6248  0.4945 -0.8987
11507TIP3    H155936   4.833   5.329   4.130 -0.7580  0.8684  0.2996
11507TIP3    H255937   4.888   5.446   4.053  1.2322  0.1505  0.5763
11508TIP3   OH255938   3.590   4.541   2.364  0.2147 -0.0811  0.1946
11508TIP3    H155939   3.552   4.487   2.295 -0.0258  1.1599 -0.6824
11508TIP3    H255940   3.515   4.574   2.413  0.2482  0.7185 -0.2683
11509TIP3   OH255941   4.637   4.009  14.478 -0.3527 -0.1477  0.1520
11509TIP3    H155942   4.706   3.987  14.416 -0.5801 -0.3314 -0.0367
11509TIP3    H255943   4.684   4.029  14.559  0.0173  1.0899 -0.3384
11510TIP3   OH255944   2.700   6.230  14.318 -0.1841  0.1010 -0.4397
11510TIP3    H155945   2.686   6.217  14.412 -0.1096  0.9446 -0.3112
11510TIP3    H255946   2.632   6.292  14.292 -0.6884 -0.7073 -1.1040
11511TIP3   OH255947   5.935   4.065  12.032  0.0910  0.6547  0.0453
11511TIP3    H155948   5.966   4.140  11.980  0.8806 -1.2874 -2.4905
11511TIP3    H255949   5.840   4.074  12.033 -0.0744  0.2429 -2.8120
11512TIP3   OH255950   4.797   1.634  14.973 -0.1553  0.4456  0.0111
11512TIP3    H155951   4.879   1.652  14.927 -0.5679 -0.6238 -1.2082
11512TIP3    H255952   4.780   1.542  14.957 -2.6863  1.0828 -1.6329
11513TIP3   OH255953   1.666   2.446  10.561 -0.6295  0.3554  0.0493
11513TIP3    H155954   1.613   2.511  10.608 -1.3755 -0.1457 -0.0836
11513TIP3    H255955   1.629   2.361  10.588  0.2314 -0.0115  0.1023
11514TIP3   OH255956   2.824   6.530  14.777  0.0446 -0.4780 -0.5439
11514TIP3    H155957   2.743   6.565  14.740  0.2997 -1.0015 -1.6219
11514TIP3    H255958   2.844   6.453  14.724  0.7200 -0.9437  0.3485
11515TIP3   OH255959   6.622   5.078   1.751 -0.1490 -0.0975  0.2794
11515TIP3    H155960   6.606   5.165   1.716  1.4056  0.1990  0.2430
11515TIP3    H255961   6.537   5.050   1.786 -0.7879  1.1993 -0.1843
11516TIP3   OH255962   4.695   1.954  11.206  0.3304 -0.4602  0.0503
11516TIP3    H155963   4.671   2.040  11.171  1.0417 -0.1507  0.3191
11516TIP3    H255964   4.778   1.968  11.250  0.4005 -1.2687  0.1876
11517TIP3   OH255965   0.397   0.920  15.904  0.4444 -0.4633  0.2469
11517TIP3    H155966   0.464   0.948  15.841 -1.9918  3.4492 -1.0046
11517TIP3    H255967   0.434   0.942  15.990  0.4568  3.0340 -0.4843
11518TIP3   OH255968   0.627   6.116  12.978  0.3697  0.0270  0.1311
11518TIP3    H155969   0.697   6.092  13.038 -1.5913 -0.7675  2.2589
11518TIP3    H255970   0.614   6.210  12.992 -0.7363 -0.3323  1.8024
11519TIP3   OH255971   0.543   0.318   5.836  0.2065  0.0498  0.2516
11519TIP3    H155972   0.476   0.286   5.896  0.1216  0.4577  0.3739
11519TIP3    H255973   0.560   0.408   5.863 -2.1407  1.4210 -2.2902
11520TIP3   OH255974   1.542   2.574  15.390 -0.1463  0.0487  0.1506
11520TIP3    H155975   1.508   2.484  15.387  1.0189 -0.4458 -3.7106
11520TIP3    H255976   1.479   2.625  15.340 -0.6516  1.4550  2.0856
11521TIP3   OH255977   4.775   4.048   3.560  0.6689 -0.1113  0.1330
11521TIP3    H155978   4.788   4.121   3.620  0.6069  1.9336 -2.2007
11521TIP3    H255979   4.682   4.027   3.566  0.3500  1.1094 -0.3259
11522TIP3   OH255980   2.829   2.768  13.148 -0.2233 -0.2303  0.0110
11522TIP3    H155981   2.830   2.863  13.153 -1.1309 -0.2223  0.1512
11522TIP3    H255982   2.877   2.739  13.226 -1.5035  0.0958  0.9446
11523TIP3   OH255983   3.715   5.307   5.812  0.3078  0.8359 -0.2407
11523TIP3    H155984   3.714   5.399   5.786  2.4158  2.0556  3.3040
11523TIP3    H255985   3.789   5.270   5.763  1.1199  1.7460  0.2560
11524TIP3   OH255986   3.900   4.393   5.266  0.0141 -0.7048  0.0351
11524TIP3    H155987   3.899   4.451   5.191 -2.9935 -0.5702  0.0602
11524TIP3    H255988   3.835   4.430   5.326  2.2905 -0.7903  2.7742
11525TIP3   OH255989   1.954   5.623   1.553 -0.0111  0.1340  0.3203
11525TIP3    H155990   1.863   5.651   1.548  0.1815  0.9917  1.4072
11525TIP3    H255991   1.950   5.532   1.583 -0.4652  0.8865  2.7469
11526TIP3   OH255992   5.688   4.333  13.913  0.1033  0.3007  0.3247
11526TIP3    H155993   5.697   4.398  13.843 -0.7708  0.6636  0.5258
11526TIP3    H255994   5.691   4.384  13.994  1.9061 -0.2075  0.6094
11527TIP3   OH255995   6.504   5.675  14.135  0.1681 -0.6259 -0.0568
11527TIP3    H155996   6.596   5.665  14.113  0.0461  1.6010 -1.9675
11527TIP3    H255997   6.494   5.767  14.157 -1.9190 -0.3338 -1.8517
11528TIP3   OH255998   2.414   3.217   3.302 -0.0395 -0.0096  0.1634
11528TIP3    H155999   2.399   3.153   3.371  3.1163 -0.4182  0.6088
11528TIP3    H256000   2.392   3.302   3.342 -3.1552 -0.5909 -0.0774
11529TIP3   OH256001   4.098   0.849  12.756 -0.7283 -0.5337 -0.7315
11529TIP3    H156002   4.114   0.760  12.723 -3.0537 -0.4458 -2.3828
11529TIP3    H256003   4.160   0.903  12.707 -0.5324 -1.0445 -1.0689
11530TIP3   OH256004   0.893   6.233  16.702 -0.1596  0.0362 -0.2401
11530TIP3    H156005   0.976   6.248  16.657 -1.1719  2.2051 -1.5526
11530TIP3    H256006   0.874   6.316  16.746 -0.9665 -0.8778  1.2289
11531TIP3   OH256007   3.529   2.431  10.981  0.7425  0.3580  0.1045
11531TIP3    H156008   3.494   2.416  10.893  0.3879 -0.2790  0.3432
11531TIP3    H256009   3.596   2.498  10.969  2.2019 -1.2163 -1.0062
11532TIP3   OH256010   0.595   2.972  13.310 -0.1972  0.2348  0.6739
11532TIP3    H156011   0.604   2.947  13.218 -0.4746 -0.4581  0.8323
11532TIP3    H256012   0.543   3.053  13.308 -2.3489 -1.0717  0.3416
11533TIP3   OH256013   4.686   6.580  16.100 -0.3651  0.6611  0.0592
11533TIP3    H156014   4.610   6.553  16.048 -1.1480  1.5049  0.7185
11533TIP3    H256015   4.677   6.676  16.106  1.3540  0.9113 -0.7615
11534TIP3   OH256016   2.137   4.951   0.901 -0.3466  0.6289 -0.5041
11534TIP3    H156017   2.220   4.908   0.918 -0.7247 -0.0658 -0.3728
11534TIP3    H256018   2.137   4.966   0.806  0.1967  1.2135 -0.4162
11535TIP3   OH256019   1.421   1.650  14.143  0.3020  0.3304  0.4252
11535TIP3    H156020   1.462   1.678  14.061  1.2021  3.2186  1.7307
11535TIP3    H256021   1.335   1.691  14.141 -0.5518 -1.4020  0.0238
11536TIP3   OH256022   2.614   1.755   2.544 -0.2630  0.0080  0.1603
11536TIP3    H156023   2.618   1.689   2.475  1.4345  0.8901 -0.6552
11536TIP3    H256024   2.702   1.755   2.582 -0.6312  0.8600  1.0744
11537TIP3   OH256025   2.615   0.976   0.607 -0.2630 -0.3559  0.0965
11537TIP3    H156026   2.563   0.935   0.538 -1.0668  0.3674  0.2529
11537TIP3    H256027   2.569   0.954   0.688  0.0441 -0.2591  0.2991
11538TIP3   OH256028   5.561   5.415   0.213  0.7519  0.3303 -0.1632
11538TIP3    H156029   5.652   5.387   0.220  0.7978  0.3409 -0.6590
11538TIP3    H256030   5.538   5.447   0.301  0.8054 -0.8930  0.3159
11539TIP3   OH256031   4.691   4.444  11.511  0.7639  0.1376  0.4383
11539TIP3    H156032   4.761   4.390  11.547  0.8044 -0.0694  0.0585
11539TIP3    H256033   4.654   4.391  11.440 -1.3352 -0.7674  2.0918
11540TIP3   OH256034   1.759   0.067  13.840  0.2135  0.0421 -0.0820
11540TIP3    H156035   1.759   0.123  13.917 -1.4786 -0.8494  0.6382
11540TIP3    H256036   1.733   0.124  13.768 -0.5163  0.4094  0.4602
11541TIP3   OH256037   1.623   1.231  13.212 -0.6225 -0.0186 -0.3276
11541TIP3    H156038   1.677   1.156  13.187 -1.7005 -0.4906 -1.3210
11541TIP3    H256039   1.686   1.302  13.226  0.2998 -0.6847 -0.9521
11542TIP3   OH256040   0.070   6.272  12.612  0.0041  0.3854 -0.2539
11542TIP3    H156041   0.154   6.312  12.633 -0.8953  1.8608  0.7334
11542TIP3    H256042   0.005   6.339  12.635 -1.5747 -1.4570  1.0419
11543TIP3   OH256043   4.509   3.336  13.915 -0.4257  0.3610 -0.8516
11543TIP3    H156044   4.511   3.398  13.988 -4.3350  0.4763 -0.6027
11543TIP3    H256045   4.524   3.251  13.956  2.2492  0.7683 -0.7898
11544TIP3   OH256046   4.522   3.455   4.532  0.8762 -1.0383 -0.1099
11544TIP3    H156047   4.433   3.479   4.556  1.0936  0.5902 -0.8020
11544TIP3    H256048   4.576   3.492   4.602  1.3236  1.8148 -1.8110
11545TIP3   OH256049   1.243   6.659   0.510  0.0762  0.2271 -0.1030
11545TIP3    H156050   1.313   6.626   0.452  1.8704  1.3302  1.3479
11545TIP3    H256051   1.189   6.713   0.453  0.7705 -0.1327 -1.1411
11546TIP3   OH256052   0.872   2.507   4.433  0.1970  0.8792  0.0122
11546TIP3    H156053   0.901   2.589   4.473 -0.3944  0.9184  0.3654
11546TIP3    H256054   0.953   2.467   4.400  0.3199  2.3162 -1.5386
11547TIP3   OH256055   3.932   1.297   5.977 -0.2546  0.0784 -0.4271
11547TIP3    H156056   3.947   1.205   5.954  2.5505  0.1928  0.5285
11547TIP3    H256057   3.872   1.293   6.052  0.5094 -1.0519  0.1552
11548TIP3   OH256058   0.995   0.669  13.992  0.0924  0.3858  0.3181
11548TIP3    H156059   1.076   0.694  14.035 -1.2249  0.3072  3.0731
11548TIP3    H256060   0.989   0.574  14.007 -0.6862  0.4636  0.5425
11549TIP3   OH256061   4.348   1.000  12.146  0.5693 -0.0256 -0.4886
11549TIP3    H156062   4.317   0.956  12.225  0.4877  0.1590 -0.4168
11549TIP3    H256063   4.424   1.051  12.174 -0.7535  1.8063 -0.0320
11550TIP3   OH256064   6.233   0.822   5.983 -0.0899 -0.7780  0.4067
11550TIP3    H156065   6.309   0.829   6.040 -0.9001  0.5958  1.3847
11550TIP3    H256066   6.158   0.818   6.042 -1.0911  2.2347 -0.4311
11551TIP3   OH256067   0.428   0.623  12.885 -0.2704  0.2005  0.1301
11551TIP3    H156068   0.356   0.563  12.863 -0.6057  0.7487 -0.3008
11551TIP3    H256069   0.416   0.640  12.979  0.8985 -1.7889  0.6917
11552TIP3   OH256070   5.160   3.315  14.237  0.3365  0.4003  0.2114
11552TIP3    H156071   5.243   3.309  14.190  0.0100 -2.0903 -0.1598
11552TIP3    H256072   5.094   3.291  14.172 -0.3898 -0.2682  1.1716
11553TIP3   OH256073   2.520   2.225   0.976 -0.1582 -0.0199  0.1850
11553TIP3    H156074   2.521   2.320   0.967 -0.3349  0.0284  0.6314
11553TIP3    H256075   2.606   2.202   1.011  0.0819 -0.0815 -0.4420
11554TIP3   OH256076   0.282   2.798   0.223  0.2636 -0.2244 -0.0385
11554TIP3    H156077   0.202   2.841   0.195 -1.4504 -2.1969  1.5491
11554TIP3    H256078   0.351   2.864   0.209 -1.2633  0.8855 -3.1886
11555TIP3   OH256079   2.616   6.568  13.088  0.6850  0.0479 -0.5558
11555TIP3    H156080   2.595   6.486  13.133 -0.9538  2.3010  3.2440
11555TIP3    H256081   2.696   6.599  13.131 -0.5369  1.9391  0.4816
11556TIP3   OH256082   5.769   3.436   4.222  0.1787  0.0367  0.2964
11556TIP3    H156083   5.837   3.370   4.211  1.6882  1.4087  1.0325
11556TIP3    H256084   5.785   3.474   4.308 -1.0188  0.9702  0.1420
11557TIP3   OH256085   0.604   1.246  12.372  0.2303 -0.8418  0.4941
11557TIP3    H156086   0.587   1.189  12.297 -1.5276 -0.7642  0.7821
11557TIP3    H256087   0.549   1.323  12.356  0.4698 -0.4655  1.4553
11558TIP3   OH256088   3.841   1.998   1.135 -0.4065 -0.5233 -0.1449
11558TIP3    H156089   3.785   1.927   1.166  0.7874 -1.5787 -0.3154
11558TIP3    H256090   3.802   2.077   1.172 -0.1464 -1.5304  2.4903
11559TIP3   OH256091   1.985   6.264   6.659  0.2451 -1.0494 -0.2333
11559TIP3    H156092   1.916   6.315   6.702  1.3163 -0.1020  0.4134
11559TIP3    H256093   2.066   6.300   6.694  1.0650 -2.6431 -0.4154
11560TIP3   OH256094   6.584   5.614  10.875  0.1065  0.4685  0.2233
11560TIP3    H156095   6.493   5.594  10.897 -0.1082  0.7769 -0.3623
11560TIP3    H256096   6.632   5.601  10.957 -0.2171 -1.1958  0.1878
11561TIP3   OH256097   3.901   5.082   5.141 -0.2716  0.2922 -0.0588
11561TIP3    H156098   3.941   5.160   5.103  0.9656  0.3153  1.2361
11561TIP3    H256099   3.856   5.040   5.068  1.8598  0.4250 -1.5120
11562TIP3   OH256100   6.632   6.102  15.731  0.2711 -0.6233  0.1351
11562TIP3    H156101   6.608   6.017  15.768  0.2777 -0.3947  0.6789
11562TIP3    H256102   6.673   6.149  15.804 -0.0688 -0.0169 -0.0561
11563TIP3   OH256103   6.778   2.043  11.332 -0.2091  0.2765 -0.8991
11563TIP3    H156104   6.852   1.994  11.298 -1.3772 -1.5361 -0.9614
11563TIP3    H256105   6.794   2.048  11.426  0.0769  0.0687 -0.9362
11564TIP3   OH256106   4.466   6.230  16.477 -0.4191 -0.0752  0.3232
11564TIP3    H156107   4.557   6.228  16.506  0.1165  0.7311 -1.1890
11564TIP3    H256108   4.415   6.243  16.557  0.5395 -3.2132  1.5967
11565TIP3   OH256109   2.219   4.426  12.358 -0.7924  0.7624  0.0033
11565TIP3    H156110   2.188   4.336  12.361 -0.9299  0.8215  3.3426
11565TIP3    H256111   2.141   4.477  12.336 -0.7480  0.1523 -1.7441
11566TIP3   OH256112   3.767   4.107  16.387  0.5219 -0.3254  0.0477
11566TIP3    H156113   3.691   4.154  16.352  0.4474 -0.6885 -0.2848
11566TIP3    H256114   3.813   4.171  16.441  2.4652  1.2755 -3.2524
11567TIP3   OH256115   0.020   5.477   6.005  0.6124 -0.2714 -0.1960
11567TIP3    H156116   0.000   5.557   5.957  1.7538 -1.7005 -3.3428
11567TIP3    H256117  -0.065   5.437   6.022  0.1497 -0.1948 -2.0877
11568TIP3   OH256118   1.570   1.377   5.394 -0.0985 -0.3028  0.6421
11568TIP3    H156119   1.559   1.388   5.489  2.0924 -1.9595  1.1815
11568TIP3    H256120   1.660   1.405   5.378  0.0474 -1.4562 -0.6863
11569TIP3   OH256121   0.899   1.127   4.631  0.2068  0.4404  0.2306
11569TIP3    H156122   0.897   1.207   4.579  1.2634  0.0689 -0.4120
11569TIP3    H256123   0.980   1.083   4.604  0.4378 -0.0901  1.6953
11570TIP3   OH256124   4.409   6.604   3.922  0.1197  0.4505  0.2909
11570TIP3    H156125   4.484   6.546   3.914  0.2296  0.8107 -2.1004
11570TIP3    H256126   4.336   6.546   3.944  0.3753 -0.5325 -1.2792
11571TIP3   OH256127   1.781   0.550   5.240  0.0398 -0.9554 -0.2503
11571TIP3    H156128   1.807   0.537   5.331 -2.3465 -1.5383  0.4198
11571TIP3    H256129   1.724   0.476   5.220 -0.3035 -0.2942 -1.8914
11572TIP3   OH256130   4.999   2.043   5.392  0.1923 -0.1467  0.9420
11572TIP3    H156131   4.989   2.002   5.306 -3.0423 -0.6290  1.4199
11572TIP3    H256132   5.038   1.974   5.446  0.8653 -0.3309  0.2542
11573TIP3   OH256133   6.509   2.863  14.198 -1.0739  0.2548  0.3774
11573TIP3    H156134   6.560   2.892  14.274  1.5222 -1.2232 -0.6717
11573TIP3    H256135   6.430   2.824  14.236  0.7607 -1.6925  2.5367
11574TIP3   OH256136   3.469   0.734  10.712  0.4559 -0.2354  0.4001
11574TIP3    H156137   3.519   0.814  10.729  0.2235  0.0338 -0.1227
11574TIP3    H256138   3.534   0.670  10.684  0.5378  0.0633 -0.1200
11575TIP3   OH256139   5.767   0.978   3.423  0.8402 -0.1746  0.4142
11575TIP3    H156140   5.787   1.035   3.349 -2.4898 -0.4253 -0.8495
11575TIP3    H256141   5.749   1.037   3.496  0.3809  0.2841 -0.0633
11576TIP3   OH256142   5.380   0.673  10.953 -0.0923 -0.3178 -0.2522
11576TIP3    H156143   5.302   0.711  10.913  0.3996  1.1760  0.1359
11576TIP3    H256144   5.347   0.604  11.010 -1.0053 -0.6186 -1.1079
11577TIP3   OH256145   1.472   0.952  11.175  0.2550 -0.0538  0.0585
11577TIP3    H156146   1.403   1.019  11.174  1.0027  0.7384  0.6765
11577TIP3    H256147   1.484   0.928  11.083  1.2084  1.9603 -0.3899
11578TIP3   OH256148   4.531   1.448   1.070  0.1164  0.2138  0.1708
11578TIP3    H156149   4.618   1.480   1.045  0.6974 -0.2266  1.5676
11578TIP3    H256150   4.478   1.527   1.079  0.0024  0.4288 -1.8996
11579TIP3   OH256151   3.324   6.236   0.641  0.3124 -0.4493  0.2848
11579TIP3    H156152   3.279   6.194   0.568  2.9736  0.1926 -1.8836
11579TIP3    H256153   3.341   6.165   0.703 -1.1764 -1.1821 -0.1000
11580TIP3   OH256154   2.767   3.356   4.769  0.0974 -0.1568  0.1324
11580TIP3    H156155   2.813   3.424   4.818  1.1476 -0.5813 -0.2476
11580TIP3    H256156   2.780   3.276   4.821  0.5637 -0.4575 -0.4420
11581TIP3   OH256157   1.150   1.027  15.940 -0.1470  0.1242 -0.0550
11581TIP3    H156158   1.166   1.030  16.035  0.2243  0.3202 -0.1211
11581TIP3    H256159   1.236   1.047  15.901 -0.2556 -0.1502 -0.4328
11582TIP3   OH256160   4.123   5.488   3.610  0.0226  0.3497 -0.2263
11582TIP3    H156161   4.069   5.485   3.689  1.7822 -0.8714  1.0423
11582TIP3    H256162   4.083   5.424   3.551  0.3340 -0.9440  0.9062
11583TIP3   OH256163   5.334   3.250   2.721 -0.2593 -0.6052  0.0406
11583TIP3    H156164   5.248   3.209   2.736 -0.6815  0.3330  0.2488
11583TIP3    H256165   5.332   3.275   2.629 -1.1334  1.4466  0.5688
11584TIP3   OH256166   1.729   5.215  12.431  0.9229 -0.2801  0.0962
11584TIP3    H156167   1.744   5.122  12.448  1.5334  0.1427  2.1899
11584TIP3    H256168   1.634   5.223  12.420  0.7580 -1.0348  0.8990
11585TIP3   OH256169   6.288   5.730   4.823  0.0373 -0.2070 -0.0229
11585TIP3    H156170   6.238   5.811   4.826  0.1103 -0.1595 -0.0994
11585TIP3    H256171   6.358   5.747   4.760  0.0932 -0.3058  0.0121
11586TIP3   OH256172   2.417   0.244   5.153  0.1515  0.5510  0.0359
11586TIP3    H156173   2.346   0.185   5.128 -0.3254  1.1746 -0.1062
11586TIP3    H256174   2.454   0.205   5.232  0.3152 -0.3189 -0.4529
11587TIP3   OH256175   2.739   6.785   2.755 -0.5558  0.6730  0.1997
11587TIP3    H156176   2.824   6.740   2.753 -0.2562  1.1548  1.5794
11587TIP3    H256177   2.686   6.737   2.691  0.2367 -0.6777  0.5098
11588TIP3   OH256178   6.009   1.304  15.911  0.3086 -0.0642  0.1141
11588TIP3    H156179   5.992   1.258  15.829 -1.9297 -1.2068  1.1420
11588TIP3    H256180   6.012   1.397  15.887 -0.0831 -0.4024 -1.2920
11589TIP3   OH256181   0.853   6.549  15.919 -0.5405  0.9428  0.3111
11589TIP3    H156182   0.889   6.628  15.959  2.2568  0.3911 -0.8347
11589TIP3    H256183   0.804   6.580  15.843 -0.9627  1.6754  0.8825
11590TIP3   OH256184   0.937   6.722  14.370 -0.4940 -0.0859  0.6147
11590TIP3    H156185   0.962   6.814  14.373  0.1884 -0.2955  1.7956
11590TIP3    H256186   0.848   6.719  14.404 -0.3959  0.0977  0.8835
11591TIP3   OH256187   1.466   5.541   0.483  0.2139 -0.5374  0.3569
11591TIP3    H156188   1.497   5.461   0.439 -2.9279 -0.3296 -2.7126
11591TIP3    H256189   1.495   5.612   0.426 -0.4030  0.1476  0.8804
11592TIP3   OH256190   4.450   6.433   4.447 -0.0894  0.3309  0.4060
11592TIP3    H156191   4.496   6.494   4.504  0.4413 -0.9450  1.4023
11592TIP3    H256192   4.369   6.413   4.493  1.2162 -2.2356  1.8112
11593TIP3   OH256193   0.114   0.256  12.774 -0.3697  0.1087  0.4433
11593TIP3    H156194   0.051   0.227  12.708  0.3284  0.7212 -0.5186
11593TIP3    H256195   0.065   0.319  12.827 -0.6091  0.5340 -0.2590
11594TIP3   OH256196   1.462   3.758  15.545  0.0745  0.5160 -0.1389
11594TIP3    H156197   1.480   3.810  15.624 -2.3511  2.2523 -0.6081
11594TIP3    H256198   1.369   3.734  15.553  0.4969 -1.6943 -1.1610
11595TIP3   OH256199   6.456   3.898   5.125  0.4223  0.4148  0.2062
11595TIP3    H156200   6.504   3.825   5.085 -0.1650 -0.6615  1.3801
11595TIP3    H256201   6.383   3.914   5.066  0.7430  0.2820 -0.2329
11596TIP3   OH256202   5.534   2.180   6.328 -0.6575  0.6321 -0.3120
11596TIP3    H156203   5.554   2.235   6.252  0.9307 -1.7208 -1.7557
11596TIP3    H256204   5.442   2.155   6.316 -0.6154  0.8208 -1.1145
11597TIP3   OH256205   5.534   6.064  14.673  0.1637 -0.3648  0.4670
11597TIP3    H156206   5.569   6.152  14.658  0.1911 -0.1886  1.4799
11597TIP3    H256207   5.554   6.016  14.593 -2.2804  1.2911 -1.2934
11598TIP3   OH256208   5.636   4.161  11.534 -0.3608  0.1746  0.2802
11598TIP3    H156209   5.683   4.157  11.450 -3.5724 -0.6753 -1.6529
11598TIP3    H256210   5.666   4.084  11.582 -0.4236 -0.8560 -1.2640
11599TIP3   OH256211   1.344   0.918   4.778 -0.0440  0.3355  0.1322
11599TIP3    H156212   1.319   0.996   4.828  0.0218  1.1574 -1.0721
11599TIP3    H256213   1.437   0.905   4.798  0.0074  0.7104  0.1397
11600TIP3   OH256214   3.048   2.905   3.996  0.5998  0.1113 -0.4517
11600TIP3    H156215   3.060   2.826   3.944 -0.9683 -0.2301 -0.3444
11600TIP3    H256216   2.969   2.946   3.960 -0.0270  0.3135  1.0915
11601TIP3   OH256217   2.720   0.287  16.407 -0.1586 -0.4617 -0.1782
11601TIP3    H156218   2.664   0.224  16.453 -1.1230 -0.0089 -0.6928
11601TIP3    H256219   2.722   0.363  16.464 -1.7985  0.3087 -1.0492
11602TIP3   OH256220   2.294   3.708  11.110  0.4184  0.6381  0.1362
11602TIP3    H156221   2.375   3.680  11.067  1.4533  1.4409  1.5193
11602TIP3    H256222   2.233   3.635  11.094  1.4754 -0.1056 -0.6752
11603TIP3   OH256223   6.678   4.870   3.606  0.0250 -0.0987 -0.0521
11603TIP3    H156224   6.621   4.799   3.634 -0.5312  0.4995  0.3439
11603TIP3    H256225   6.622   4.927   3.553  0.1234  0.7234  0.6997
11604TIP3   OH256226   1.583   2.936  11.736 -0.3573 -0.3960  0.2230
11604TIP3    H156227   1.539   3.001  11.792  0.1112 -1.7587  2.2755
11604TIP3    H256228   1.643   2.988  11.682 -1.7214  1.0982  0.0489
11605TIP3   OH256229   1.884   1.647   1.252  0.5860  0.0401 -0.3053
11605TIP3    H156230   1.848   1.733   1.228  0.2939 -0.0492 -0.1993
11605TIP3    H256231   1.953   1.666   1.315 -0.8884  0.0866  1.3667
11606TIP3   OH256232   0.254   3.787  15.935  0.5810  0.3052  0.2989
11606TIP3    H156233   0.230   3.866  15.886  0.9429  0.6562  0.6775
11606TIP3    H256234   0.198   3.789  16.012  0.9373  0.4591  0.5566
11607TIP3   OH256235   1.225   0.884   2.594  0.1412  1.4105  0.1561
11607TIP3    H156236   1.310   0.840   2.597 -0.1657  0.7899 -0.0755
11607TIP3    H256237   1.211   0.914   2.684 -0.2183 -0.1141  0.6545
11608TIP3   OH256238   3.468   3.822   4.093 -0.0469 -0.0544  0.3542
11608TIP3    H156239   3.466   3.835   3.999 -0.1265 -0.7903  0.2501
11608TIP3    H256240   3.519   3.895   4.127 -0.0909  0.2572 -0.2507
11609TIP3   OH256241   4.227   0.562  15.572  0.4643  0.3305 -0.0235
11609TIP3    H156242   4.216   0.529  15.661 -2.6788  1.1223 -0.0045
11609TIP3    H256243   4.140   0.556  15.532  1.4482  1.3338 -2.5776
11610TIP3   OH256244   2.822   1.495   5.153 -0.5426 -0.0583 -0.2089
11610TIP3    H156245   2.874   1.560   5.200 -0.3493  0.4353 -1.0828
11610TIP3    H256246   2.804   1.427   5.218 -0.5360  0.7425  0.6571
11611TIP3   OH256247   3.148   2.030  17.208  0.4309  0.3159 -0.2108
11611TIP3    H156248   3.090   2.007  17.281  2.0111 -0.9446  0.7050
11611TIP3    H256249   3.143   2.125  17.203  0.1226  0.4232  1.4213
11612TIP3   OH256250   5.713   5.084   0.071  0.2721 -0.1434  0.2975
11612TIP3    H156251   5.710   5.120   0.160  0.0539  0.3768  0.0867
11612TIP3    H256252   5.621   5.068   0.049  0.4165 -1.6033  0.6885
11613TIP3   OH256253   2.041   3.841   2.884  0.0303 -0.7507 -0.5342
11613TIP3    H156254   2.096   3.766   2.904  0.2793 -0.4369 -0.0311
11613TIP3    H256255   2.101   3.907   2.849 -0.2421 -0.9123 -1.3439
11614TIP3   OH256256   5.507   1.158   1.217  0.4447  0.1233  0.1372
11614TIP3    H156257   5.542   1.221   1.153 -0.8940 -0.9858 -1.8077
11614TIP3    H256258   5.427   1.125   1.176 -0.3657 -0.8328  2.3361
11615TIP3   OH256259   2.214   3.630  12.428 -0.1266  0.6589  0.1452
11615TIP3    H156260   2.162   3.709  12.414 -3.2446 -1.1466  0.5414
11615TIP3    H256261   2.213   3.618  12.523 -0.4300 -0.2998  0.0264
11616TIP3   OH256262   4.670   5.828   4.622  0.0568  0.2511 -0.1943
11616TIP3    H156263   4.694   5.742   4.656 -0.0560 -0.0676 -0.9041
11616TIP3    H256264   4.634   5.811   4.535  0.9637  1.0977 -0.7616
11617TIP3   OH256265   2.533   1.409  15.679  0.1309  0.2845 -0.3529
11617TIP3    H156266   2.622   1.373  15.686  0.2751  0.9337  2.2244
11617TIP3    H256267   2.478   1.334  15.656  0.8551 -0.9992  1.8150
11618TIP3   OH256268   2.288   4.987  14.929 -0.2321  0.1392 -1.2649
11618TIP3    H156269   2.374   4.964  14.893 -0.0279  0.9570 -1.3275
11618TIP3    H256270   2.305   5.006  15.021 -0.7038 -1.6516 -0.7612
11619TIP3   OH256271   3.035   5.947  16.820 -0.6094  0.2563  0.4290
11619TIP3    H156272   3.005   6.037  16.830 -2.3726 -0.2124 -0.2392
11619TIP3    H256273   3.127   5.955  16.797 -0.8705  1.9075 -0.2003
11620TIP3   OH256274   1.053   1.742  13.906  1.0360 -0.6241 -0.5114
11620TIP3    H156275   1.066   1.820  13.852 -1.6319 -2.0696 -3.5428
11620TIP3    H256276   1.103   1.760  13.986  3.0429  2.8125 -2.3120
11621TIP3   OH256277   5.706   1.254  11.560 -0.4980 -0.0868 -0.2901
11621TIP3    H156278   5.614   1.234  11.545 -0.4164 -0.4750 -0.2654
11621TIP3    H256279   5.750   1.228  11.479 -0.5245  0.8815 -0.6330
11622TIP3   OH256280   3.062   6.779   4.092 -0.2329 -0.0038  0.3534
11622TIP3    H156281   3.023   6.786   4.179 -1.6778 -0.1388 -0.2551
11622TIP3    H256282   2.993   6.741   4.038  0.5586  0.3062 -0.9174
11623TIP3   OH256283   2.361   0.350  11.274 -0.1902 -0.8843 -0.5787
11623TIP3    H156284   2.384   0.304  11.193 -0.2379  0.8521 -1.6313
11623TIP3    H256285   2.279   0.394  11.253  0.7125  1.0423 -0.2219
11624TIP3   OH256286   1.978   4.242   4.473  0.4634  0.0694 -0.0939
11624TIP3    H156287   1.907   4.228   4.537 -1.3063  1.7917 -1.5428
11624TIP3    H256288   1.996   4.336   4.478  1.1083  0.0258 -1.2854
11625TIP3   OH256289   2.277   3.555  16.860  0.0193 -0.1084  0.3886
11625TIP3    H156290   2.353   3.581  16.912  0.8933 -0.1447 -0.8222
11625TIP3    H256291   2.285   3.605  16.779 -0.2934 -1.4036 -0.4704
11626TIP3   OH256292   0.253   1.566  14.095 -0.5557 -0.1306  0.3955
11626TIP3    H156293   0.161   1.591  14.101 -0.1440  1.7252 -0.4569
11626TIP3    H256294   0.251   1.477  14.062 -2.0438 -0.2951  0.8426
11627TIP3   OH256295   4.495   2.195   4.373 -0.2425 -0.2669 -0.4274
11627TIP3    H156296   4.585   2.196   4.407  0.1650  0.0308 -1.4834
11627TIP3    H256297   4.464   2.106   4.391  1.0177 -1.0674 -1.9136
11628TIP3   OH256298   5.785   1.308  11.007 -0.3520 -0.6486 -0.2664
11628TIP3    H156299   5.844   1.359  11.063 -0.9551 -0.4346  0.1846
11628TIP3    H256300   5.810   1.332  10.918 -0.4656  0.2473 -0.0662
11629TIP3   OH256301   3.203   2.336   1.582  1.0316 -0.1594 -0.0174
11629TIP3    H156302   3.256   2.411   1.556 -0.3801  0.5890 -0.9376
11629TIP3    H256303   3.208   2.277   1.507  2.5449 -1.2582  0.9081
11630TIP3   OH256304   0.020   0.043  16.106 -0.6918 -0.4702 -0.3507
11630TIP3    H156305   0.017   0.001  16.192 -0.1897  0.7559  0.2900
11630TIP3    H256306   0.033   0.136  16.125  1.0922 -0.3738 -1.7939
11631TIP3   OH256307   5.897   0.962  12.032  0.4459 -0.0827 -0.0848
11631TIP3    H156308   5.971   1.022  12.045 -0.2182  0.5829  0.7111
11631TIP3    H256309   5.827   1.017  11.998  0.7787 -1.0029 -2.4668
11632TIP3   OH256310   1.424   6.307  13.496 -1.0313  0.2087  0.2562
11632TIP3    H156311   1.515   6.310  13.464 -0.9487 -2.7259 -0.0877
11632TIP3    H256312   1.423   6.363  13.573  0.8398  1.0260 -0.2639
11633TIP3   OH256313   2.899   2.837   1.869 -0.5408 -0.0714  0.3090
11633TIP3    H156314   2.931   2.893   1.798  0.5800 -1.8067 -0.6538
11633TIP3    H256315   2.815   2.804   1.837 -0.4363 -0.1883  0.1508
11634TIP3   OH256316   5.436   1.403   2.668 -0.0453  0.1110  0.3287
11634TIP3    H156317   5.363   1.452   2.631  0.1070  0.3712  0.3663
11634TIP3    H256318   5.422   1.313   2.640  0.2510  0.3631 -0.6642
11635TIP3   OH256319   3.255   2.238   2.804  0.1405  0.0412  0.5541
11635TIP3    H156320   3.277   2.157   2.849 -0.0244 -0.5301 -0.3719
11635TIP3    H256321   3.331   2.294   2.817  1.4362 -1.2659 -1.1161
11636TIP3   OH256322   6.371   0.563   1.478  0.1153  0.6183 -0.4143
11636TIP3    H156323   6.434   0.629   1.506 -0.6467  0.7506  1.0966
11636TIP3    H256324   6.288   0.611   1.470 -0.1681  0.1006 -0.6404
11637TIP3   OH256325   0.392   4.838  12.458 -0.6927 -0.6281 -0.0309
11637TIP3    H156326   0.411   4.875  12.545 -0.3491 -1.2108  0.1523
11637TIP3    H256327   0.461   4.773  12.445  0.6755  1.0200 -1.7394
11638TIP3   OH256328   0.087   2.491   1.013  0.3555 -0.3287  0.4259
11638TIP3    H156329   0.067   2.533   0.929  0.9124 -1.3313 -0.2237
11638TIP3    H256330   0.001   2.475   1.052  0.0499 -0.6687 -0.3635
11639TIP3   OH256331   3.215   5.911   1.329  0.1281 -0.0900  0.0539
11639TIP3    H156332   3.268   5.912   1.249  0.3914  1.4830  0.2309
11639TIP3    H256333   3.163   5.831   1.321  1.8785 -1.2464 -0.5333
11640TIP3   OH256334   6.277   4.514  12.301 -0.5638  0.6547  0.2970
11640TIP3    H156335   6.334   4.439  12.284 -1.2289  0.1216  0.4036
11640TIP3    H256336   6.263   4.513  12.395  0.4453  1.6707  0.4872
11641TIP3   OH256337   0.359   3.078   3.213 -0.1058  0.5595 -0.0526
11641TIP3    H156338   0.269   3.098   3.186 -0.3671 -0.1162  0.2989
11641TIP3    H256339   0.356   3.075   3.308  0.3800  0.9322 -0.0233
11642TIP3   OH256340   2.687   0.590   6.288 -0.4091  0.1456  0.0313
11642TIP3    H156341   2.595   0.566   6.277  0.1042 -1.9397 -0.2874
11642TIP3    H256342   2.733   0.534   6.225  0.9832  2.2685 -0.9634
11643TIP3   OH256343   1.419   1.205   0.641 -0.3478  0.7081 -0.2263
11643TIP3    H156344   1.472   1.285   0.646 -1.1580  1.1981  1.0202
11643TIP3    H256345   1.343   1.224   0.696  0.1068 -1.4245  1.2163
11644TIP3   OH256346   4.598   4.193   1.165 -0.0776 -0.0499  0.5915
11644TIP3    H156347   4.566   4.118   1.215 -0.3970  0.0276  0.5058
11644TIP3    H256348   4.571   4.270   1.215  0.6393 -0.0002  0.9087
11645TIP3   OH256349   3.293   4.503   6.115 -0.2399 -0.3257 -0.1428
11645TIP3    H156350   3.333   4.579   6.159  1.3390 -1.4158  0.3732
11645TIP3    H256351   3.199   4.513   6.133 -0.0337  1.2789  0.2608
11646TIP3   OH256352   4.952   0.890  13.786 -0.2561 -0.0056  0.5675
11646TIP3    H156353   4.993   0.893  13.700 -0.7764  1.5402  0.3411
11646TIP3    H256354   5.011   0.835  13.838  0.1449 -0.8264 -0.7205
11647TIP3   OH256355   5.504   2.169  10.790  0.3118 -0.1288 -0.1607
11647TIP3    H156356   5.442   2.108  10.830  0.3049 -0.6637 -0.9688
11647TIP3    H256357   5.589   2.127  10.800  0.2119 -0.6511 -1.4109
11648TIP3   OH256358   3.915   0.442   1.936  0.6756 -0.0621  0.4587
11648TIP3    H156359   3.934   0.377   2.004  1.8471 -1.0458 -0.7445
11648TIP3    H256360   4.001   0.476   1.912  0.5112 -1.0872 -1.8022
11649TIP3   OH256361   5.894   1.515  13.776  0.9758 -0.0120  0.2762
11649TIP3    H156362   5.928   1.436  13.735 -0.1322  0.1377 -0.9829
11649TIP3    H256363   5.805   1.493  13.802  0.2796  1.1223 -1.0540
11650TIP3   OH256364   4.534   4.152   6.146  0.1530 -0.1138 -0.0432
11650TIP3    H156365   4.576   4.139   6.061  1.4145 -0.2717  0.5801
11650TIP3    H256366   4.477   4.228   6.133  0.8306  0.2756 -0.8574
11651TIP3   OH256367   5.472   6.654  13.258  0.3544  0.3137  0.9054
11651TIP3    H156368   5.484   6.559  13.256 -0.7023  0.1478  1.6111
11651TIP3    H256369   5.536   6.686  13.321  3.2476  0.5378 -1.9204
11652TIP3   OH256370   2.879   6.749  14.389  0.3138 -0.1057 -0.1810
11652TIP3    H156371   2.971   6.764  14.365  0.1655 -0.9913 -1.3823
11652TIP3    H256372   2.848   6.834  14.419  1.9442 -0.1276  1.7558
11653TIP3   OH256373   0.349   4.402   2.325 -0.1065 -0.0909 -0.1421
11653TIP3    H156374   0.361   4.444   2.410 -0.1551  0.0946 -0.2249
11653TIP3    H256375   0.429   4.352   2.311 -0.1783 -0.2775  0.0968
11654TIP3   OH256376   2.361   1.170   2.753 -0.2920 -0.3614  0.3821
11654TIP3    H156377   2.345   1.264   2.756 -0.0466 -0.3377  2.6207
11654TIP3    H256378   2.402   1.155   2.668 -1.1391  1.4001 -0.3853
11655TIP3   OH256379   3.015   5.759  12.468  0.4765 -0.0587  0.5862
11655TIP3    H156380   3.000   5.665  12.473 -2.0150  0.0898 -1.8711
11655TIP3    H256381   3.003   5.791  12.558  0.4110 -1.9468  1.2763
11656TIP3   OH256382   6.685   0.166   3.807 -0.3698 -0.5411 -0.4269
11656TIP3    H156383   6.613   0.117   3.769 -1.0312  0.3179 -0.3210
11656TIP3    H256384   6.669   0.257   3.782  0.5116 -0.2924 -0.1475
11657TIP3   OH256385   5.328   1.979   1.824  0.2555 -0.3706 -0.3204
11657TIP3    H156386   5.365   1.891   1.813  0.8349 -0.1894  0.1314
11657TIP3    H256387   5.252   1.981   1.765  1.6312 -0.3600 -2.1883
11658TIP3   OH256388   2.735   3.864  13.243 -0.4477 -0.2042 -0.2727
11658TIP3    H156389   2.714   3.863  13.337 -0.6206 -1.3230 -0.3133
11658TIP3    H256390   2.725   3.773  13.215  2.6069 -0.4850 -0.7379
11659TIP3   OH256391   2.410   0.490  13.214 -1.0362 -0.7443 -0.0224
11659TIP3    H156392   2.435   0.503  13.305  3.2175 -0.6041 -1.0122
11659TIP3    H256393   2.410   0.395  13.202 -0.0439 -0.7253 -0.2134
11660TIP3   OH256394   1.031   0.211  10.931 -0.3455  0.0391 -0.5768
11660TIP3    H156395   0.979   0.161  10.868  1.1627 -0.4903 -1.4532
11660TIP3    H256396   1.122   0.189  10.910  0.2745 -1.7124  2.9785
11661TIP3   OH256397   5.271   4.054   2.250 -0.4638 -0.6207 -0.4370
11661TIP3    H156398   5.183   4.059   2.212 -1.6270 -2.1136  1.8452
11661TIP3    H256399   5.257   4.049   2.345  2.1502  0.2183  0.0948
11662TIP3   OH256400   1.500   2.954  10.871  0.4756  0.0671 -0.3309
11662TIP3    H156401   1.496   3.035  10.819  0.5393 -0.5855 -1.3777
11662TIP3    H256402   1.464   2.887  10.813  0.1387 -0.6138  0.6359
11663TIP3   OH256403   0.019   0.618   3.303 -0.1728  0.3025 -0.4526
11663TIP3    H156404   0.071   0.562   3.246  0.1402 -0.2487  0.3552
11663TIP3    H256405  -0.036   0.558   3.354  1.2346  0.5625  1.5042
11664TIP3   OH256406   4.830   2.387   1.186  0.1489 -0.1692  0.2024
11664TIP3    H156407   4.818   2.479   1.208 -2.0590 -0.3050 -0.3049
11664TIP3    H256408   4.916   2.365   1.223  0.8914  2.1594  0.0002
11665TIP3   OH256409   5.423   5.059   0.100 -0.2915  0.4211 -0.3988
11665TIP3    H156410   5.350   5.108   0.062 -0.0190  0.3133 -1.0751
11665TIP3    H256411   5.402   4.967   0.084 -0.1381  0.3799 -0.3678
11666TIP3   OH256412   1.937   3.381  15.482  0.2663 -0.2465  0.3597
11666TIP3    H156413   1.875   3.363  15.411  0.6679  1.1667 -0.3804
11666TIP3    H256414   2.009   3.428  15.440  1.1674 -0.6043  1.4642
11667TIP3   OH256415   2.900   0.328  10.680  0.0343 -0.8948  0.5425
11667TIP3    H156416   2.939   0.355  10.597 -0.0437 -0.1518  0.7403
11667TIP3    H256417   2.913   0.233  10.683 -1.6047 -1.2364 -1.1739
11668TIP3   OH256418   0.286   2.922   1.524 -0.6928 -0.2596  0.3699
11668TIP3    H156419   0.313   3.000   1.573  0.6207  0.2513 -1.1025
11668TIP3    H256420   0.367   2.875   1.506 -1.2770 -1.0396 -0.3147
11669TIP3   OH256421   5.840   4.764   2.390 -0.0165  0.4446  0.3301
11669TIP3    H156422   5.792   4.759   2.307 -0.2365  1.7446  0.3648
11669TIP3    H256423   5.907   4.695   2.383 -0.8055 -0.2757 -0.4094
11670TIP3   OH256424   3.704   6.777  11.320 -0.0579  0.1230  0.1171
11670TIP3    H156425   3.660   6.734  11.393 -0.0194  0.5909  0.4239
11670TIP3    H256426   3.697   6.871  11.340 -2.7413  0.4765 -1.9892
11671TIP3   OH256427   5.406   3.628  17.227 -0.0915  0.0588  0.3200
11671TIP3    H156428   5.343   3.653  17.294 -0.7440  4.1890 -1.5081
11671TIP3    H256429   5.358   3.568  17.170 -0.0015 -2.2813  2.5292
11672TIP3   OH256430   5.435   0.793   0.846 -0.3138  0.0156  0.3986
11672TIP3    H156431   5.350   0.753   0.862 -0.0555 -0.5611  0.3324
11672TIP3    H256432   5.448   0.853   0.920 -1.0620  0.5913  0.0727
11673TIP3   OH256433   3.451   1.753   4.379 -0.4799  0.5963 -0.2713
11673TIP3    H156434   3.516   1.823   4.377  1.3635 -0.7825  3.4752
11673TIP3    H256435   3.502   1.672   4.376 -2.2378 -0.5680 -0.1568
11674TIP3   OH256436   3.523   4.736  12.295  0.3734  0.2087  0.0728
11674TIP3    H156437   3.533   4.651  12.339 -0.2399 -0.3168 -0.7783
11674TIP3    H256438   3.573   4.728  12.215 -1.2747 -0.0888 -0.9850
11675TIP3   OH256439   2.599   4.243  15.508 -0.9686 -0.2594  0.0638
11675TIP3    H156440   2.630   4.266  15.420 -1.6969  0.6768  0.0360
11675TIP3    H256441   2.509   4.275  15.510 -1.4205 -1.5227  0.6798
11676TIP3   OH256442   2.830   4.722   4.807 -0.2253  0.2910 -0.1610
11676TIP3    H156443   2.924   4.720   4.790  0.1137  0.0120  1.5242
11676TIP3    H256444   2.791   4.673   4.736  1.3895 -4.0873  1.6469
11677TIP3   OH256445   6.102   5.500   6.072 -0.4551  0.1359  0.0401
11677TIP3    H156446   6.168   5.539   6.129 -0.5505  1.9747 -1.0369
11677TIP3    H256447   6.094   5.410   6.103  1.0475  0.4611  1.5150
11678TIP3   OH256448   4.998   1.194  11.937 -0.1224 -0.7410  0.4481
11678TIP3    H156449   5.057   1.230  12.003 -0.7404 -2.3561  1.9480
11678TIP3    H256450   5.038   1.111  11.912  0.0955 -0.1584 -1.2351
11679TIP3   OH256451   0.872   6.506  17.044  0.0365  0.0021  1.0694
11679TIP3    H156452   0.882   6.520  17.138  2.2957 -1.5022  1.1363
11679TIP3    H256453   0.961   6.495  17.012 -0.6325  1.2010 -1.4185
11680TIP3   OH256454   3.419   5.468   5.925  0.5403 -0.5412 -0.0882
11680TIP3    H156455   3.485   5.514   5.873  0.1801  0.5875  0.4203
11680TIP3    H256456   3.441   5.375   5.915  3.5673 -0.1428  1.8378
11681TIP3   OH256457   3.568   5.768   2.940 -0.6246  0.2737 -0.1086
11681TIP3    H156458   3.573   5.725   2.855  0.7762 -0.2986  0.2304
11681TIP3    H256459   3.506   5.840   2.928 -1.4208 -0.5788 -1.2472
11682TIP3   OH256460   1.737   2.248  13.623  0.0340 -0.1387 -0.2084
11682TIP3    H156461   1.746   2.257  13.717  2.1724  0.7071 -0.4276
11682TIP3    H256462   1.734   2.338  13.590 -0.8085 -0.4233 -0.9555
11683TIP3   OH256463   1.329   0.332  14.232 -0.5365  0.0638  0.2243
11683TIP3    H156464   1.412   0.378  14.247 -1.1859  1.0237  0.9818
11683TIP3    H256465   1.355   0.251  14.187  0.9386 -0.1615  1.3654
11684TIP3   OH256466   1.478   3.460  15.570  0.0566 -0.4176 -0.1811
11684TIP3    H156467   1.487   3.553  15.592 -1.7118  0.2113 -1.8140
11684TIP3    H256468   1.421   3.424  15.637 -1.6147  0.4106 -1.1006
11685TIP3   OH256469   6.125   4.389  16.404 -0.0762 -0.4653  0.0875
11685TIP3    H156470   6.042   4.412  16.445 -0.2333 -0.8554 -0.0030
11685TIP3    H256471   6.191   4.440  16.452 -0.3403 -0.3292  0.3085
11686TIP3   OH256472   2.842   4.376   3.124 -0.2830 -0.6165  0.1779
11686TIP3    H156473   2.766   4.391   3.068 -0.8573 -1.0733  0.8091
11686TIP3    H256474   2.807   4.329   3.200  0.2205  1.1343  1.5758
11687TIP3   OH256475   4.777   0.372   2.689 -0.3031 -0.3288 -0.4437
11687TIP3    H156476   4.775   0.337   2.778 -1.3132  0.9731  0.0754
11687TIP3    H256477   4.857   0.334   2.651  0.2924 -0.7126  1.0896
11688TIP3   OH256478   6.421   0.370   2.629  0.7225 -0.0374 -0.0867
11688TIP3    H156479   6.342   0.356   2.682  1.2489 -0.1107  0.7032
11688TIP3    H256480   6.447   0.283   2.601  0.1649  0.0496 -0.8873
11689TIP3   OH256481   1.745   4.622   2.053  0.6199 -0.3993  0.0277
11689TIP3    H156482   1.832   4.596   2.083  1.0908  1.9536  0.8930
11689TIP3    H256483   1.759   4.654   1.964  0.9269  1.2360  0.6377
11690TIP3   OH256484   4.311   5.252  11.124 -0.5900 -0.2079  0.2969
11690TIP3    H156485   4.343   5.330  11.078 -0.7115 -1.7842 -2.7531
11690TIP3    H256486   4.272   5.285  11.204  2.4310  2.4776  0.8593
11691TIP3   OH256487   0.551   1.000  15.438 -0.0241 -0.5963 -0.2707
11691TIP3    H156488   0.629   1.031  15.392 -0.7550 -0.7894 -1.6968
11691TIP3    H256489   0.561   0.905  15.442 -0.7767 -0.7584 -1.6476
11692TIP3   OH256490   1.025   4.257  10.773 -0.0107  0.2231 -0.1531
11692TIP3    H156491   1.100   4.223  10.722 -0.2924 -0.8381  0.1092
11692TIP3    H256492   1.034   4.352  10.769  1.0714  0.1172 -0.5546
11693TIP3   OH256493   6.470   3.550   4.005 -0.2683 -0.0667  0.0184
11693TIP3    H156494   6.535   3.481   3.993  0.4396  0.7448 -1.0835
11693TIP3    H256495   6.387   3.504   4.020  0.2252 -1.1464 -0.4985
11694TIP3   OH256496   4.403   1.687   6.110 -0.2347  0.4159  0.6684
11694TIP3    H156497   4.471   1.689   6.178  0.3339 -0.6701  0.1660
11694TIP3    H256498   4.391   1.594   6.092  0.9124  0.6810 -1.9496
11695TIP3   OH256499   0.786   3.209   3.066  0.5748  0.5883  0.7458
11695TIP3    H156500   0.791   3.125   3.020 -0.4086 -0.1047  1.8330
11695TIP3    H256501   0.815   3.189   3.155  0.5480  1.4541  0.9594
11696TIP3   OH256502   6.156   0.512   0.053  0.1303  0.1067 -0.2430
11696TIP3    H156503   6.077   0.485   0.100  0.1584 -0.1176 -0.3275
11696TIP3    H256504   6.142   0.605   0.035  0.1045  0.1882  0.1854
11697TIP3   OH256505   3.508   0.129   3.267  0.5254 -0.0492 -0.0464
11697TIP3    H156506   3.550   0.115   3.182  2.3795 -0.0859  0.8340
11697TIP3    H256507   3.565   0.191   3.312 -1.3825  1.3870  0.5380
11698TIP3   OH256508   6.063   3.137   4.042  0.8506 -0.2323 -0.1801
11698TIP3    H156509   6.105   3.098   4.118  0.6706 -1.4434 -0.6885
11698TIP3    H256510   5.996   3.195   4.079  1.1940 -0.3048  0.5789
11699TIP3   OH256511   4.198   0.304  16.778  0.1813  0.1682  0.1556
11699TIP3    H156512   4.166   0.392  16.755 -0.5884 -0.0983  0.1730
11699TIP3    H256513   4.220   0.265  16.693 -1.0733 -0.2150 -0.0137
11700TIP3   OH256514   6.195   6.504  16.078  0.6617  0.0932 -0.0870
11700TIP3    H156515   6.249   6.476  16.152  1.3093  1.6713  0.0842
11700TIP3    H256516   6.111   6.526  16.117  0.5626 -0.3782 -0.0318
11701TIP3   OH256517   1.434   3.377  15.333  0.1483  0.1919  0.0657
11701TIP3    H156518   1.447   3.398  15.425  1.7899 -0.3992  0.0156
11701TIP3    H256519   1.363   3.313  15.332  0.4623 -0.1869  0.9978
11702TIP3   OH256520   3.108   2.404  11.158  0.2711 -0.0277  0.1321
11702TIP3    H156521   3.161   2.353  11.097  0.4521  0.7088 -0.3402
11702TIP3    H256522   3.162   2.479  11.181 -0.6993  0.9593 -0.6841
11703TIP3   OH256523   6.718   0.767   2.433 -0.2984  0.1572 -0.1625
11703TIP3    H156524   6.793   0.709   2.420 -0.0277  0.6496 -0.8193
11703TIP3    H256525   6.702   0.806   2.347 -1.3159  0.0557 -0.0369
11704TIP3   OH256526   4.968   0.149   3.450  0.7023  0.2192  0.2595
11704TIP3    H156527   4.966   0.148   3.354 -2.7411 -0.4459  0.2304
11704TIP3    H256528   4.931   0.234   3.473 -1.2661 -0.7836  0.9344
11705TIP3   OH256529   6.708   0.560   5.450 -0.0157  0.2410  0.2313
11705TIP3    H156530   6.687   0.577   5.358 -1.2605  0.3002  0.5097
11705TIP3    H256531   6.788   0.610   5.466  0.5518 -0.2390 -0.9689
11706TIP3   OH256532   1.417   3.177  13.829  0.1784  0.7074 -0.5127
11706TIP3    H156533   1.338   3.149  13.783 -1.0452 -1.8824  2.8114
11706TIP3    H256534   1.486   3.121  13.793 -0.7679 -1.3232  0.6318
11707TIP3   OH256535   5.888   1.271  16.492  0.7096 -0.2560 -0.1325
11707TIP3    H156536   5.940   1.338  16.537 -2.0503  1.4275  0.8269
11707TIP3    H256537   5.817   1.252  16.553 -0.8699 -0.9790 -2.1075
11708TIP3   OH256538   1.997   2.881  13.125  0.5572 -0.1319  0.5775
11708TIP3    H156539   2.028   2.941  13.057  0.1461 -0.4058  0.1402
11708TIP3    H256540   1.905   2.905  13.138  0.4946 -0.4214  0.6716
11709TIP3   OH256541   3.609   2.848   3.447 -0.4096  0.0373 -0.0440
11709TIP3    H156542   3.562   2.841   3.530  1.0260  1.4047  0.9404
11709TIP3    H256543   3.669   2.922   3.459  1.0720 -0.8080 -1.6772
11710TIP3   OH256544   0.625   3.273   4.349 -0.4420 -0.1683  0.7245
11710TIP3    H156545   0.545   3.240   4.307  0.6473 -0.8786 -0.8459
11710TIP3    H256546   0.667   3.195   4.386  2.1528 -0.7913 -3.0125
11711TIP3   OH256547   6.252   6.145   1.901  0.3337 -0.4829  0.0181
11711TIP3    H156548   6.306   6.144   1.822 -0.5868  0.4187 -0.6555
11711TIP3    H256549   6.224   6.055   1.913 -0.3219 -0.4800 -1.2792
11712TIP3   OH256550   1.040   4.559   0.613 -0.4040  0.4569  0.2731
11712TIP3    H156551   1.102   4.487   0.601 -1.2943 -0.2216 -0.4151
11712TIP3    H256552   1.007   4.547   0.703 -1.9595 -1.1972 -0.4467
11713TIP3   OH256553   2.223   2.721   4.218  0.4758  0.1348  0.1028
11713TIP3    H156554   2.297   2.782   4.227 -0.4522  1.2441  0.5332
11713TIP3    H256555   2.263   2.635   4.212  1.9073  0.8443 -1.5218
11714TIP3   OH256556   1.431   4.124   2.058  0.3323 -0.2621  0.0571
11714TIP3    H156557   1.407   4.154   2.146  0.4754 -1.2726  0.4589
11714TIP3    H256558   1.428   4.203   2.004 -1.6464  0.0466  0.5634
11715TIP3   OH256559   2.312   6.365  11.840 -0.7532 -0.0111 -0.4917
11715TIP3    H156560   2.248   6.427  11.875  0.5524 -0.0163  2.1133
11715TIP3    H256561   2.263   6.283  11.833 -1.6810  0.5618 -1.0387
11716TIP3   OH256562   0.203   2.772   2.890 -0.1672  0.4677 -0.1308
11716TIP3    H156563   0.282   2.824   2.903 -0.7342  1.8125 -1.7420
11716TIP3    H256564   0.229   2.705   2.827 -0.4183  1.1987 -1.0209
11717TIP3   OH256565   2.687   0.547  14.607 -0.1364  0.7780  0.5749
11717TIP3    H156566   2.740   0.525  14.530  0.9169  1.8485  0.9632
11717TIP3    H256567   2.662   0.638  14.594  1.5480  1.5525  2.2862
11718TIP3   OH256568   1.858   5.830   2.915 -0.1194  1.0372 -0.0120
11718TIP3    H156569   1.856   5.801   3.006  0.4473 -0.9180 -0.5781
11718TIP3    H256570   1.774   5.875   2.903 -0.7297  0.2738  1.1442
11719TIP3   OH256571   2.442   6.496   4.193  0.8700 -0.0394 -0.3180
11719TIP3    H156572   2.464   6.406   4.169 -0.3848 -0.4783  0.0930
11719TIP3    H256573   2.473   6.548   4.120  0.3584 -0.9673 -1.2249
11720TIP3   OH256574   4.744   3.094   4.241 -0.6629 -0.6003  0.6580
11720TIP3    H156575   4.733   3.074   4.334  1.8814  0.9818  1.4068
11720TIP3    H256576   4.672   3.155   4.221 -1.2398 -0.9612  1.5682
11721TIP3   OH256577   0.977   3.099   0.729  0.0241 -0.6958 -0.0113
11721TIP3    H156578   0.973   3.115   0.823 -1.3480  0.0570 -0.1768
11721TIP3    H256579   1.012   3.180   0.693 -1.5047 -0.1412 -0.3243
11722TIP3   OH256580   1.583   4.264  11.245  0.0772 -0.6772  0.2172
11722TIP3    H156581   1.505   4.269  11.189 -0.3385 -2.6289  0.5491
11722TIP3    H256582   1.561   4.198  11.310  1.2836  0.1696  1.5456
11723TIP3   OH256583   4.207   6.569  10.681  0.4940 -0.3355 -0.4866
11723TIP3    H156584   4.246   6.482  10.681  1.5409  0.1030 -1.8508
11723TIP3    H256585   4.138   6.564  10.615  0.3967 -0.1915 -0.3954
11724TIP3   OH256586   1.219   2.630  15.906 -0.7372  0.3277  0.8649
11724TIP3    H156587   1.288   2.564  15.897  1.6804  1.9096  4.8983
11724TIP3    H256588   1.218   2.675  15.822  1.7035 -1.1661 -0.0776
11725TIP3   OH256589   4.326   4.786  14.176 -0.2346 -0.4795 -0.7704
11725TIP3    H156590   4.343   4.758  14.266 -1.8064  1.2269  0.1017
11725TIP3    H256591   4.393   4.852  14.159 -1.6139  1.2363  0.1993
11726TIP3   OH256592   0.412   0.881   5.634  0.0685  0.4011 -0.0198
11726TIP3    H156593   0.353   0.828   5.689 -1.7496  1.6520 -0.6514
11726TIP3    H256594   0.437   0.822   5.563 -0.9030 -0.0150 -0.0382
11727TIP3   OH256595   2.250   6.292   0.922  0.3363  0.0230 -0.4695
11727TIP3    H156596   2.248   6.385   0.945  2.2361 -0.0888  0.3887
11727TIP3    H256597   2.192   6.250   0.985  0.9704  0.4254  0.4036
11728TIP3   OH256598   6.591   3.464  11.963 -0.1413 -0.0096 -0.0371
11728TIP3    H156599   6.562   3.390  11.909 -0.4514 -0.7721  1.1278
11728TIP3    H256600   6.529   3.534  11.943  0.7505  0.2829 -1.8926
11729TIP3   OH256601   1.284   1.150   3.905 -0.3804  0.2053 -0.6868
11729TIP3    H156602   1.193   1.173   3.888 -0.1687  1.3097 -0.4174
11729TIP3    H256603   1.282   1.057   3.929 -1.5583  0.4814  0.3603
11730TIP3   OH256604   4.391   0.217  12.163  0.2732  0.2266 -0.1223
11730TIP3    H156605   4.436   0.143  12.121 -1.4789 -0.6925 -0.4741
11730TIP3    H256606   4.341   0.177  12.234  0.9149  1.3877  1.0194
11731TIP3   OH256607   4.031   6.442  12.613  0.4851 -0.5979  0.5231
11731TIP3    H156608   4.110   6.485  12.646  0.3948 -0.5530  0.6797
11731TIP3    H256609   3.970   6.443  12.686  0.5148 -1.0795  0.5555
11732TIP3   OH256610   0.369   1.695   4.471 -0.2955  0.2677 -0.1278
11732TIP3    H156611   0.295   1.645   4.437 -0.2701  0.4447 -0.4500
11732TIP3    H256612   0.444   1.663   4.421 -0.5197  1.7238 -1.4643
11733TIP3   OH256613   3.800   3.728   3.949 -0.2714 -0.8878  0.3198
11733TIP3    H156614   3.831   3.819   3.949  0.1473 -0.9746 -1.9116
11733TIP3    H256615   3.840   3.689   4.026 -0.7780  0.8921  1.5739
11734TIP3   OH256616   2.599   5.249  14.410 -0.1181 -0.4457  0.0214
11734TIP3    H156617   2.558   5.179  14.360 -0.3917  0.2274 -0.7341
11734TIP3    H256618   2.642   5.303  14.344  0.0251  0.1284  0.5775
11735TIP3   OH256619   4.528   1.217   1.591  0.1594  0.1951  0.0055
11735TIP3    H156620   4.457   1.213   1.526  0.2068  0.9051 -0.1010
11735TIP3    H256621   4.608   1.204   1.539  0.3057  2.0262 -0.3247
11736TIP3   OH256622   5.491   2.172   2.970 -0.2100 -0.0601 -0.4857
11736TIP3    H156623   5.450   2.137   3.049 -1.2126 -1.6223 -1.6202
11736TIP3    H256624   5.485   2.267   2.979  0.6180 -0.1750  1.7394
11737TIP3   OH256625   1.111   4.006  15.479  0.1684 -0.5745  0.2969
11737TIP3    H156626   1.057   3.956  15.540  1.2157 -0.0349  1.7010
11737TIP3    H256627   1.126   3.945  15.406 -2.3603 -0.7085 -0.2171
11738TIP3   OH256628   6.776   0.098   2.947  0.3064 -0.1798  0.4444
11738TIP3    H156629   6.745   0.173   2.897  1.6750  0.3135  0.2931
11738TIP3    H256630   6.730   0.103   3.030  0.3094  0.7825  0.3997
11739TIP3   OH256631   2.244   6.724   6.252 -0.0446  0.2347 -0.5867
11739TIP3    H156632   2.164   6.693   6.210  0.0409 -0.1791 -0.4463
11739TIP3    H256633   2.288   6.644   6.281  0.2957  0.4756 -0.4415
11740TIP3   OH256634   3.355   2.396   4.419 -0.8460  0.0495  0.2330
11740TIP3    H156635   3.262   2.420   4.415 -0.5293  1.1459 -3.2303
11740TIP3    H256636   3.383   2.425   4.506 -3.6709 -0.2685  1.3811
11741TIP3   OH256637   6.038   2.350  15.473  0.4072  0.4254  0.2560
11741TIP3    H156638   6.079   2.409  15.410 -0.8919  0.0607 -0.9834
11741TIP3    H256639   5.948   2.381  15.479  0.3001 -0.0560  1.3256
11742TIP3   OH256640   1.546   3.916  15.744  0.7844  0.3699 -0.0813
11742TIP3    H156641   1.558   3.989  15.683  0.1909 -0.0618 -0.7334
11742TIP3    H256642   1.633   3.899  15.780  1.3489 -0.0158 -1.5655
11743TIP3   OH256643   1.548   4.330   0.285 -0.0809  0.1826  0.6578
11743TIP3    H156644   1.553   4.400   0.220 -1.5819  1.1984  1.5574
11743TIP3    H256645   1.461   4.293   0.272 -0.3630  0.3331  1.9888
11744TIP3   OH256646   5.172   1.232  16.573  0.6411 -0.0614 -0.1729
11744TIP3    H156647   5.191   1.194  16.659 -2.9306 -0.5994  0.5266
11744TIP3    H256648   5.166   1.326  16.590  0.5619 -0.1009  0.0208
11745TIP3   OH256649   4.767   5.559   4.673  0.8803  0.1451  0.0881
11745TIP3    H156650   4.703   5.500   4.633  0.3015  0.2668  0.8153
11745TIP3    H256651   4.851   5.520   4.652  0.5677 -0.0956 -0.7672
11746TIP3   OH256652   2.372   1.271  14.628  0.4615  0.0569  0.2320
11746TIP3    H156653   2.297   1.272  14.568  0.4750  0.2417  0.2181
11746TIP3    H256654   2.401   1.362  14.632 -0.1204  0.2137  1.2518
11747TIP3   OH256655   5.063   3.386  11.407 -0.3505  0.1892  0.0022
11747TIP3    H156656   5.139   3.422  11.453 -0.2981 -0.6072  0.5630
11747TIP3    H256657   5.077   3.410  11.315  1.4293 -1.3075 -0.1824
11748TIP3   OH256658   0.609   0.693   1.965  0.2955 -0.2431 -0.0467
11748TIP3    H156659   0.651   0.607   1.957  0.1804 -0.5770  2.2039
11748TIP3    H256660   0.679   0.752   1.992  0.3919  0.4381 -1.6744
11749TIP3   OH256661   6.132   0.911  15.364 -0.1087  0.0730  0.9759
11749TIP3    H156662   6.146   0.982  15.426 -1.6346  0.5540  0.8020
11749TIP3    H256663   6.086   0.951  15.291  1.2478 -0.5841 -0.2965
11750TIP3   OH256664   0.942   1.092  16.968 -0.3028 -0.1048  0.0590
11750TIP3    H156665   0.852   1.120  16.987  0.0532  0.3714  1.1010
11750TIP3    H256666   0.936   0.997  16.963 -0.7100 -0.1418  1.0204
11751TIP3   OH256667   2.935   6.740   2.277  0.3063 -0.3395 -0.2148
11751TIP3    H156668   2.952   6.787   2.359  1.4744  0.5855 -0.9602
11751TIP3    H256669   3.019   6.701   2.254  0.3462  0.4980 -1.6205
11752TIP3   OH256670   4.837   4.903  16.878 -0.7217  0.4793 -0.3159
11752TIP3    H156671   4.861   4.992  16.902 -0.9768  0.2422  0.8807
11752TIP3    H256672   4.764   4.914  16.816 -1.7198  1.0983  0.9288
11753TIP3   OH256673   3.596   0.551   2.152 -0.1708  0.3073 -0.5742
11753TIP3    H156674   3.560   0.487   2.213  1.6667 -0.9858 -0.7842
11753TIP3    H256675   3.576   0.516   2.065  1.2563 -0.2627 -0.6904
11754TIP3   OH256676   6.698   2.175   4.306  0.3012 -0.3100 -0.2586
11754TIP3    H156677   6.603   2.173   4.290  0.2548  1.2773 -0.2655
11754TIP3    H256678   6.706   2.161   4.401  0.1561 -1.6279 -0.4115
11755TIP3   OH256679   1.492   4.852  12.988 -0.4387  0.0284  0.1456
11755TIP3    H156680   1.561   4.821  13.047  0.0238 -0.0025 -0.3993
11755TIP3    H256681   1.410   4.824  13.030 -0.2464  1.6995  1.7534
11756TIP3   OH256682   4.312   4.625   3.749 -0.2217 -0.4212  0.0490
11756TIP3    H156683   4.275   4.541   3.721 -1.3953 -0.5283  1.7345
11756TIP3    H256684   4.320   4.617   3.844 -0.1529  1.2975  0.2261
11757TIP3   OH256685   2.958   5.399  14.234 -0.6767  0.9739 -0.1413
11757TIP3    H156686   3.031   5.438  14.282 -0.5596  1.1341 -0.4489
11757TIP3    H256687   2.884   5.457  14.253 -0.7145  0.8372  0.1325
11758TIP3   OH256688   0.239   2.646   2.574  0.5428  0.3326  0.2435
11758TIP3    H156689   0.160   2.687   2.608 -0.9469 -1.8401 -0.3584
11758TIP3    H256690   0.245   2.675   2.483 -1.1044 -1.4866 -0.5014
11759TIP3   OH256691   1.903   2.296  16.720  0.1146 -0.0655 -0.0329
11759TIP3    H156692   1.891   2.368  16.658 -0.6042 -1.4581 -1.6075
11759TIP3    H256693   1.996   2.299  16.743  0.5648  0.0843 -1.7454
11760TIP3   OH256694   2.160   2.102   2.395 -0.3888  0.2112 -0.1544
11760TIP3    H156695   2.138   2.192   2.372  1.5640  0.8528  0.3571
11760TIP3    H256696   2.177   2.105   2.489  0.2193 -0.5850 -0.2344
11761TIP3   OH256697   2.943   3.370  11.577 -0.0462 -0.6447 -0.4670
11761TIP3    H156698   2.964   3.455  11.537  0.2372 -1.0079 -1.1086
11761TIP3    H256699   3.021   3.317  11.560  0.7364 -0.3810  1.8645
11762TIP3   OH256700   1.596   5.417  16.275 -0.3494  0.0939  0.0728
11762TIP3    H156701   1.573   5.341  16.222 -1.2650  0.3315  0.1165
11762TIP3    H256702   1.512   5.451  16.307  0.0621  0.9573  0.2812
11763TIP3   OH256703   5.978   3.872  15.351 -0.3460 -0.0026  0.0478
11763TIP3    H156704   6.055   3.929  15.340 -0.2655 -0.2120 -0.5032
11763TIP3    H256705   6.012   3.797  15.400  0.5712 -1.5522 -2.7212
11764TIP3   OH256706   5.660   4.740  11.311  0.1818  0.1629 -0.0529
11764TIP3    H156707   5.600   4.773  11.244  1.1554 -0.0497 -1.0441
11764TIP3    H256708   5.703   4.665  11.271  2.2533  1.2187  0.0400
11765TIP3   OH256709   4.477   2.993  16.096 -0.3163  0.1178  0.5464
11765TIP3    H156710   4.385   2.972  16.108 -1.2985  2.1851 -2.1844
11765TIP3    H256711   4.504   3.034  16.179 -1.6882 -0.8878  1.5273
11766TIP3   OH256712   1.385   0.513   5.257  0.2680 -0.2387 -0.4374
11766TIP3    H156713   1.435   0.436   5.228 -1.2777 -2.0596  1.4433
11766TIP3    H256714   1.311   0.477   5.305 -0.6240  2.4679  0.3987
11767TIP3   OH256715   5.259   1.487  16.458 -0.0042  0.0833 -0.4726
11767TIP3    H156716   5.333   1.429  16.473 -0.3580 -0.2593 -0.0014
11767TIP3    H256717   5.247   1.487  16.363  1.3366  1.0838 -0.6590
11768TIP3   OH256718   4.451   3.869  12.448  0.2243 -0.2572  0.0341
11768TIP3    H156719   4.385   3.806  12.477  1.1167 -1.2330  0.0537
11768TIP3    H256720   4.402   3.944  12.417 -0.8348 -0.1808  1.7838
11769TIP3   OH256721   1.136   0.196   6.177 -0.0905  0.0375 -0.1424
11769TIP3    H156722   1.219   0.230   6.211 -0.1926 -1.0125  1.2629
11769TIP3    H256723   1.162   0.123   6.120 -0.0345 -0.1631  0.1386
11770TIP3   OH256724   6.712   1.842   4.581 -0.2605  1.0034  0.3390
11770TIP3    H156725   6.694   1.750   4.561  1.5033  0.5622  0.6209
11770TIP3    H256726   6.704   1.848   4.676 -1.3320  1.3990  0.2451
11771TIP3   OH256727   1.590   5.771   3.034 -0.5646 -0.3306 -0.0786
11771TIP3    H156728   1.533   5.789   3.109  0.1504 -0.8728  0.6157
11771TIP3    H256729   1.650   5.703   3.065  0.0097 -0.2794 -1.0171
11772TIP3   OH256730   5.251   5.627   3.114  0.1990 -0.0172  0.2273
11772TIP3    H156731   5.220   5.717   3.105 -0.8620 -0.1155  2.3173
11772TIP3    H256732   5.209   5.579   3.042 -0.8955  0.7649  0.3271
11773TIP3   OH256733   0.447   0.915   0.467  0.0146 -0.1722 -0.5451
11773TIP3    H156734   0.458   0.951   0.555  0.2337 -2.3535  0.3853
11773TIP3    H256735   0.353   0.913   0.453 -0.0307 -0.0771 -0.2546
11774TIP3   OH256736   1.863   0.445   5.936  0.1033 -0.1249 -0.1794
11774TIP3    H156737   1.796   0.505   5.970  0.9502  0.4734  0.5002
11774TIP3    H256738   1.930   0.503   5.900  0.0944 -0.7238 -1.2009
11775TIP3   OH256739   4.978   0.548   1.133  0.2555  0.2298  0.5273
11775TIP3    H156740   4.896   0.531   1.088  1.7146  0.0918 -2.3120
11775TIP3    H256741   4.961   0.626   1.186 -0.9475  2.0803 -2.3705
11776TIP3   OH256742   0.051   5.337  15.624  0.6489  0.0977  0.5959
11776TIP3    H156743   0.116   5.364  15.560  1.6021 -0.7946  1.1728
11776TIP3    H256744   0.067   5.244  15.639  0.3658  0.2505  2.0252
11777TIP3   OH256745   5.853   4.113  10.920 -0.8256 -0.5624  0.4143
11777TIP3    H156746   5.797   4.167  10.977 -0.2268 -0.9919  1.4428
11777TIP3    H256747   5.888   4.174  10.856 -1.2592  0.0044  0.7023
11778TIP3   OH256748   2.046   5.714  14.350  0.4815  0.1743 -0.0525
11778TIP3    H156749   2.021   5.676  14.266  3.4701  0.2113 -1.0983
11778TIP3    H256750   2.088   5.642  14.397 -0.2817  0.4056  1.0083
11779TIP3   OH256751   4.020   6.343  15.319 -0.1051 -0.1398  0.2209
11779TIP3    H156752   3.929   6.356  15.345 -0.4538 -1.5634 -0.2000
11779TIP3    H256753   4.014   6.313  15.228  0.7544 -0.6272  0.3212
11780TIP3   OH256754   5.390   6.684  11.553  0.4900  0.1010 -0.3093
11780TIP3    H156755   5.439   6.611  11.515  0.8588 -0.6600  1.5309
11780TIP3    H256756   5.457   6.750  11.575  0.6109 -0.4836  1.1971
11781TIP3   OH256757   4.714   2.317   2.009  0.3142  0.1620  0.1806
11781TIP3    H156758   4.651   2.388   2.004 -1.2437 -1.2374 -1.5982
11781TIP3    H256759   4.718   2.295   2.102 -2.6662 -0.3524  0.2904
11782TIP3   OH256760   2.699   4.711  17.092 -0.1937  0.2774 -0.6569
11782TIP3    H156761   2.772   4.692  17.151  0.4324  0.1881 -1.4436
11782TIP3    H256762   2.677   4.625  17.054 -2.0894 -0.0826  1.1042
11783TIP3   OH256763   6.121   1.133  11.931  0.2367  0.7227 -0.1913
11783TIP3    H156764   6.107   1.208  11.874  0.7293 -1.1937 -3.0979
11783TIP3    H256765   6.216   1.132  11.946  0.3108  0.3613 -0.6672
11784TIP3   OH256766   6.705   5.840  12.227  0.7415 -0.1122  0.4551
11784TIP3    H156767   6.693   5.745  12.236 -1.1628 -0.0500 -0.9125
11784TIP3    H256768   6.798   5.849  12.207  1.3345 -1.5174  2.2182
11785TIP3   OH256769   1.588   6.170  13.129 -0.1039  0.3538 -0.0708
11785TIP3    H156770   1.575   6.223  13.050 -1.5426 -1.6496 -1.2685
11785TIP3    H256771   1.587   6.080  13.098 -1.3433 -0.5489  2.3075
11786TIP3   OH256772   1.450   2.776   2.116  0.1088  0.0148 -0.3286
11786TIP3    H156773   1.364   2.794   2.153 -0.4369 -0.0682 -1.4975
11786TIP3    H256774   1.433   2.717   2.043  1.1390  0.1253 -0.6770
11787TIP3   OH256775   0.574   4.646  12.443  0.1809 -0.4664  0.1798
11787TIP3    H156776   0.668   4.660  12.451 -0.1578  1.8930  0.6533
11787TIP3    H256777   0.560   4.556  12.473  1.9612  0.0225  2.7035
11788TIP3   OH256778   3.467   3.384  13.403 -0.3736  0.1100 -0.2746
11788TIP3    H156779   3.494   3.349  13.318 -0.3589 -0.3805 -0.0661
11788TIP3    H256780   3.540   3.441  13.429 -0.6395  0.7441 -0.8641
11789TIP3   OH256781   6.546   2.736   1.647 -0.1079  0.1797  0.2154
11789TIP3    H156782   6.479   2.689   1.697  0.0821 -3.0332 -2.1987
11789TIP3    H256783   6.619   2.674   1.642  1.6885  2.2138 -0.1825
11790TIP3   OH256784   4.538   2.836   0.118 -0.2170  0.1295  0.6261
11790TIP3    H156785   4.485   2.778   0.064  0.5163 -0.3544  0.4146
11790TIP3    H256786   4.475   2.880   0.175 -1.0222  0.7876 -0.7377
11791TIP3   OH256787   0.478   6.392  16.108  0.2138  0.6485 -0.0630
11791TIP3    H156788   0.395   6.365  16.147  0.0886  1.5887  0.3345
11791TIP3    H256789   0.503   6.470  16.157  1.9479 -0.2969  0.6544
11792TIP3   OH256790   5.326   3.666  16.466  0.2667  0.1866 -0.1781
11792TIP3    H156791   5.242   3.620  16.463  0.5420 -0.2889 -0.7841
11792TIP3    H256792   5.304   3.757  16.445 -0.0418 -0.0165 -0.7661
11793TIP3   OH256793   1.252   1.613  11.717  0.0018  0.1849 -0.1048
11793TIP3    H156794   1.292   1.688  11.673  0.1964 -0.7277 -1.5746
11793TIP3    H256795   1.202   1.651  11.789  1.8457  1.5424  0.5455
11794TIP3   OH256796   0.941   0.288  13.796 -0.3964 -0.1248 -0.0774
11794TIP3    H156797   0.982   0.205  13.819  1.9655  1.5082  2.2675
11794TIP3    H256798   0.994   0.321  13.723  0.2950  0.3530  0.6089
11795TIP3   OH256799   6.627   6.344  13.291 -0.3636 -0.2616  0.0083
11795TIP3    H156800   6.715   6.307  13.305  1.3432  2.4604 -2.4053
11795TIP3    H256801   6.601   6.377  13.378  0.6601 -1.7468  0.9159
11796TIP3   OH256802   0.793   4.076  14.033 -0.2696  0.2722 -0.1015
11796TIP3    H156803   0.764   3.994  14.073  0.6981  0.1927  0.4754
11796TIP3    H256804   0.822   4.130  14.107  0.2878  0.6400 -0.5770
11797TIP3   OH256805   2.971   0.135   4.605 -0.0337  0.1807  0.4179
11797TIP3    H156806   2.998   0.148   4.695  0.5207  1.6832  0.0601
11797TIP3    H256807   3.008   0.209   4.557 -0.7354 -0.3098 -0.9594
11798TIP3   OH256808   5.232   5.475   0.077  0.1139  0.0172  0.1278
11798TIP3    H156809   5.175   5.507   0.146  0.0415  0.6559 -0.2227
11798TIP3    H256810   5.265   5.554   0.035  1.6897 -0.3113  0.6686
11799TIP3   OH256811   0.484   0.706   0.277 -0.2930  0.3198  1.0959
11799TIP3    H156812   0.410   0.655   0.311 -1.1992  0.6211 -0.3322
11799TIP3    H256813   0.490   0.781   0.336 -1.8829  0.8809  0.5942
11800TIP3   OH256814   5.551   3.031  16.194  0.5534  0.1875 -0.2073
11800TIP3    H156815   5.592   2.945  16.199 -0.7363 -0.4006  2.0082
11800TIP3    H256816   5.457   3.014  16.208  0.3209  1.9509  0.7338
11801TIP3   OH256817   5.015   3.307  13.153 -0.1234 -0.4110 -0.2819
11801TIP3    H156818   4.934   3.259  13.135 -1.2187  1.1775  0.1900
11801TIP3    H256819   5.064   3.303  13.071 -1.5248  0.1353 -1.1867
11802TIP3   OH256820   5.004   1.811   5.833  0.4073  0.1624 -0.3685
11802TIP3    H156821   4.922   1.769   5.857 -0.2885  1.4545 -0.3931
11802TIP3    H256822   4.985   1.857   5.751  0.4806  2.2572  0.7183
11803TIP3   OH256823   4.607   5.213  15.043 -0.2439 -0.2556 -0.1078
11803TIP3    H156824   4.614   5.166  15.126 -0.4499 -0.6133 -0.2945
11803TIP3    H256825   4.546   5.285  15.061 -1.9680 -1.5470 -0.4913
11804TIP3   OH256826   2.165   1.160   5.982  0.6011  0.0683  0.1012
11804TIP3    H156827   2.127   1.095   6.042  1.7408 -0.1508  0.6118
11804TIP3    H256828   2.243   1.192   6.028  1.7556 -0.4152 -1.4421
11805TIP3   OH256829   2.563   4.655  11.252 -0.3646 -0.2665 -0.2058
11805TIP3    H156830   2.523   4.581  11.207 -2.5135 -0.1424  1.3563
11805TIP3    H256831   2.490   4.710  11.279  1.0407  1.3277  0.5797
11806TIP3   OH256832   1.687   4.879  14.667  0.1921 -0.0080 -0.6046
11806TIP3    H156833   1.670   4.808  14.605 -0.0393 -0.4522 -0.0458
11806TIP3    H256834   1.782   4.878  14.678  0.1546 -0.4831 -0.3105
11807TIP3   OH256835   4.025   0.187  14.313 -0.1016  0.4978  0.0155
11807TIP3    H156836   4.037   0.098  14.347 -1.9663 -0.4846 -1.6824
11807TIP3    H256837   4.101   0.201  14.256 -1.0179 -1.0714 -1.6911
11808TIP3   OH256838   3.442   0.031  15.340 -0.2746  0.0078  0.0032
11808TIP3    H156839   3.422  -0.053  15.381 -1.0908  1.1656  2.1604
11808TIP3    H256840   3.521   0.015  15.288 -0.6900 -2.1779 -0.0373
11809TIP3   OH256841   2.185   1.781   0.654 -0.0800 -0.1470  0.2040
11809TIP3    H156842   2.257   1.774   0.591 -1.2615  0.6263 -1.2849
11809TIP3    H256843   2.134   1.857   0.625 -3.0552 -2.2157 -0.4637
11810TIP3   OH256844   6.026   2.284  10.407 -0.4657 -0.3300  0.1429
11810TIP3    H156845   6.004   2.282  10.314 -1.2282 -0.8376  0.3203
11810TIP3    H256846   6.021   2.376  10.432 -0.2348 -0.1910 -0.3166
11811TIP3   OH256847   0.889   4.292  16.357  0.2298 -0.3312  0.1345
11811TIP3    H156848   0.896   4.373  16.408 -0.6967 -0.5333  0.6073
11811TIP3    H256849   0.864   4.321  16.269  0.5226 -0.0620  0.1405
11812TIP3   OH256850   4.515   5.566   3.257  0.3841  0.4715  0.4239
11812TIP3    H156851   4.422   5.583   3.273  0.3397  1.2461 -0.6017
11812TIP3    H256852   4.553   5.653   3.245  1.0214  0.0941 -0.3365
11813TIP3   OH256853   0.944   0.527   0.903  0.7472  0.1079  1.0651
11813TIP3    H156854   0.991   0.451   0.939  0.6889 -0.4023  0.1121
11813TIP3    H256855   0.978   0.602   0.952  3.4934 -0.0613 -0.3917
11814TIP3   OH256856   6.042   2.537   1.677  0.3049 -0.2613  0.2379
11814TIP3    H156857   6.045   2.471   1.746  1.6086  0.6946  1.1470
11814TIP3    H256858   6.039   2.487   1.596  0.6375 -1.4297  0.9245
11815TIP3   OH256859   0.507   5.225   4.814 -0.1032 -0.7165 -0.6507
11815TIP3    H156860   0.511   5.260   4.725  0.4508 -0.4725 -0.5346
11815TIP3    H256861   0.484   5.133   4.803 -3.1370 -0.0586 -0.9067
11816TIP3   OH256862   0.363   3.687  14.686  0.0852 -0.3296  0.3549
11816TIP3    H156863   0.362   3.770  14.637 -4.9479  1.3966  2.6972
11816TIP3    H256864   0.425   3.702  14.757 -0.4975  1.3484  0.5583
11817TIP3   OH256865   1.144   4.060  13.282 -0.0409 -0.0781 -0.2148
11817TIP3    H156866   1.180   4.017  13.205  1.6490  0.9378 -0.0409
11817TIP3    H256867   1.219   4.072  13.340 -0.7412  1.7008  0.3870
11818TIP3   OH256868   2.821   0.699   3.609  0.1263  0.0901  0.1038
11818TIP3    H156869   2.831   0.645   3.688  0.6468 -0.0476 -0.0525
11818TIP3    H256870   2.754   0.654   3.558  0.3749 -0.2692  0.0933
11819TIP3   OH256871   3.064   6.340   1.954 -0.1074  0.2885 -0.3502
11819TIP3    H156872   3.083   6.328   1.861  1.9379 -0.5917  0.1333
11819TIP3    H256873   3.025   6.428   1.959 -2.6734 -0.5845 -2.3035
11820TIP3   OH256874   0.650   2.411  13.534 -0.3449 -0.3885  0.3016
11820TIP3    H156875   0.713   2.371  13.594 -0.8324 -0.0318  1.0679
11820TIP3    H256876   0.579   2.347  13.528 -0.7209 -0.0348  0.8423
11821TIP3   OH256877   4.407   1.663   6.533  0.3498  0.0400  0.3356
11821TIP3    H156878   4.456   1.657   6.615  0.2271  3.4534  0.7684
11821TIP3    H256879   4.471   1.693   6.469 -0.0565 -0.5457 -0.3610
11822TIP3   OH256880   5.442   3.020  11.806 -0.2586 -0.4985 -0.1768
11822TIP3    H156881   5.393   2.963  11.747  0.4807 -1.6558  0.2921
11822TIP3    H256882   5.533   2.993  11.796 -0.0358 -0.2231  0.9434
11823TIP3   OH256883   4.892   2.315  13.960  0.0587 -0.7419  0.4167
11823TIP3    H156884   4.986   2.301  13.946  0.3897  2.1079 -1.0357
11823TIP3    H256885   4.887   2.396  14.011 -1.5544  0.6557 -1.7756
11824TIP3   OH256886   2.958   5.569   2.269 -0.5489  0.8216 -0.3958
11824TIP3    H156887   2.875   5.585   2.315 -0.7266 -2.9289  0.9797
11824TIP3    H256888   3.024   5.567   2.339  0.2340  1.0189 -1.1190
11825TIP3   OH256889   4.562   5.114  17.018 -0.2646 -0.2706  0.0786
11825TIP3    H156890   4.555   5.190  17.075  0.5022  1.3789 -1.8822
11825TIP3    H256891   4.594   5.044  17.074 -1.2743  0.7609  2.0192
11826TIP3   OH256892   5.501   3.559  15.956 -0.3717  0.3334  0.2095
11826TIP3    H156893   5.515   3.494  16.025 -0.4891  0.3375  0.2376
11826TIP3    H256894   5.477   3.508  15.879 -1.3151  0.3945  0.4527
11827TIP3   OH256895   0.951   2.202   5.504  0.5985  0.2903  0.4823
11827TIP3    H156896   1.017   2.164   5.563  0.9376 -0.2431 -0.2229
11827TIP3    H256897   0.953   2.296   5.524 -1.3956 -0.1610  3.4114
11828TIP3   OH256898   4.557   5.876  12.370  0.1846 -0.0839  0.2746
11828TIP3    H156899   4.551   5.800  12.429  1.0768 -0.7424 -0.4339
11828TIP3    H256900   4.482   5.930  12.392 -0.5271 -1.2189  0.7569
11829TIP3   OH256901   5.209   3.685   6.515  0.2524 -0.3262  0.4410
11829TIP3    H156902   5.235   3.595   6.497 -2.8561 -1.7028  2.2401
11829TIP3    H256903   5.144   3.705   6.448  1.5241  0.9789 -0.4728
11830TIP3   OH256904   3.063   4.930   1.807  0.2604 -0.5898  0.5232
11830TIP3    H156905   3.024   5.011   1.773 -0.8722 -1.8131 -1.2322
11830TIP3    H256906   3.070   4.945   1.901 -0.6185  1.2491  0.3521
11831TIP3   OH256907   3.150   0.913  14.059 -0.7724 -0.2933  0.2087
11831TIP3    H156908   3.067   0.933  14.014 -0.0669  1.2583 -0.4605
11831TIP3    H256909   3.207   0.880  13.990 -1.0790 -2.2923  0.8398
11832TIP3   OH256910   0.785   5.957  16.905  0.2838  0.1535 -0.1927
11832TIP3    H156911   0.766   5.879  16.853 -1.5555 -0.8036  1.7610
11832TIP3    H256912   0.732   5.947  16.984  2.8915  1.5402  1.9045
11833TIP3   OH256913   6.277   6.005   0.255 -0.2059  0.1008 -0.0804
11833TIP3    H156914   6.230   6.086   0.276 -1.5888 -1.1526  2.0869
11833TIP3    H256915   6.365   6.019   0.289 -0.3524  0.7876  0.0307
11834TIP3   OH256916   3.334   6.695  13.924  0.8672  0.1142 -0.5354
11834TIP3    H156917   3.408   6.754  13.940 -0.0937  0.9160  1.3321
11834TIP3    H256918   3.334   6.636  14.001 -1.3221  1.1517  0.3462
11835TIP3   OH256919   2.290   0.090   1.406  0.0765 -0.7940 -0.1681
11835TIP3    H156920   2.264  -0.001   1.394 -0.4680 -0.9947  2.0380
11835TIP3    H256921   2.323   0.094   1.496 -1.5303  1.5170  0.4282
11836TIP3   OH256922   2.963   0.509   2.190 -0.6735  0.0611 -0.6798
11836TIP3    H156923   2.987   0.591   2.148  0.4630  0.6639  1.0173
11836TIP3    H256924   2.868   0.508   2.191 -0.7125  0.6125 -2.0737
11837TIP3   OH256925   1.044   0.448   2.843  0.4046 -0.1986  0.2894
11837TIP3    H156926   1.132   0.427   2.812  0.4338  0.0479  0.1985
11837TIP3    H256927   1.026   0.534   2.806 -1.1083 -1.5230 -2.3643
11838TIP3   OH256928   3.133   5.139  13.313  0.1045 -0.3013 -0.4849
11838TIP3    H156929   3.181   5.094  13.243  1.5282 -0.3615  0.4641
11838TIP3    H256930   3.044   5.106  13.306  0.0347  0.2228 -2.6775
11839TIP3   OH256931   0.257   6.197  14.454 -0.4775 -0.3473 -0.7145
11839TIP3    H156932   0.209   6.253  14.392 -0.3877 -0.3875 -0.8193
11839TIP3    H256933   0.228   6.227  14.540 -1.3185 -0.9081 -0.7821
11840TIP3   OH256934   0.713   3.900  11.613  0.2469  0.3447 -0.5241
11840TIP3    H156935   0.738   3.843  11.685 -0.1464 -0.7887 -1.2623
11840TIP3    H256936   0.635   3.946  11.645 -0.4530 -0.7970 -0.5137
11841TIP3   OH256937   1.431   4.248   1.346 -0.2487 -0.2960 -0.4426
11841TIP3    H156938   1.355   4.219   1.398  0.6258 -1.1813  0.3869
11841TIP3    H256939   1.488   4.172   1.343  0.3661  0.1860 -1.5523
11842TIP3   OH256940   3.550   4.644   1.737 -0.6533 -0.1357  0.6227
11842TIP3    H156941   3.544   4.575   1.803  0.9354 -2.3156 -1.3171
11842TIP3    H256942   3.633   4.625   1.691 -2.3411  0.2509 -2.9512
11843TIP3   OH256943   4.223   4.719   1.122  0.4309  0.3808 -0.2301
11843TIP3    H156944   4.153   4.733   1.186 -0.2526 -0.3795 -0.7839
11843TIP3    H256945   4.300   4.760   1.161 -0.2824  1.0815  0.4719
11844TIP3   OH256946   0.129   2.606  11.995  0.5577  0.0092  0.1659
11844TIP3    H156947   0.055   2.579  11.942  0.0648  2.5334 -0.5507
11844TIP3    H256948   0.189   2.531  11.994 -0.6546 -0.9841 -1.6942
11845TIP3   OH256949   2.157   4.815   4.352  0.1314 -0.1850 -0.0037
11845TIP3    H156950   2.151   4.874   4.277  2.1496  1.0018  0.6871
11845TIP3    H256951   2.206   4.740   4.319  2.6591  1.1541  0.5074
11846TIP3   OH256952   5.154   4.443   0.162 -0.1409  0.0999  0.2987
11846TIP3    H156953   5.168   4.537   0.151 -1.1458  0.1574 -0.6218
11846TIP3    H256954   5.240   4.404   0.146 -0.0554  0.7494 -0.9335
11847TIP3   OH256955   0.191   0.972  13.058 -0.5832 -0.0963  0.0395
11847TIP3    H156956   0.162   1.063  13.045 -0.9526 -0.0938  0.8084
11847TIP3    H256957   0.283   0.979  13.084 -0.7863  0.1128  0.7384
11848TIP3   OH256958   2.182   5.409  12.891 -0.3046 -0.2550 -0.0005
11848TIP3    H156959   2.232   5.348  12.946  0.4461  1.0228  0.7778
11848TIP3    H256960   2.245   5.440  12.826 -0.6096 -0.1084 -0.2280
11849TIP3   OH256961   3.574   4.075  14.005  0.0483 -0.2254 -0.4120
11849TIP3    H156962   3.515   4.008  14.038  0.1559 -0.1568 -0.0737
11849TIP3    H256963   3.541   4.157  14.042 -0.3838 -0.0250 -1.2390
11850TIP3   OH256964   1.036   4.990   4.457  0.2455 -0.1642  0.0490
11850TIP3    H156965   1.096   5.053   4.419  0.4939  0.6137  1.6534
11850TIP3    H256966   0.949   5.022   4.434  0.3624  0.8880  0.9659
11851TIP3   OH256967   0.394   3.435  12.676 -0.7976  0.3734  0.6496
11851TIP3    H156968   0.328   3.465  12.738 -0.5248  3.5741 -0.4366
11851TIP3    H256969   0.347   3.427  12.592 -0.4453 -0.4951  0.5215
11852TIP3   OH256970   5.658   1.622  12.350  0.1244 -0.0620 -0.0362
11852TIP3    H156971   5.659   1.717  12.341  1.7887 -0.1109 -0.8219
11852TIP3    H256972   5.580   1.603  12.402  0.5814  1.8582  1.4713
11853TIP3   OH256973   2.592   5.859   3.006  0.1338 -0.2330 -0.1011
11853TIP3    H156974   2.498   5.840   3.010  0.2223 -0.6146  0.2788
11853TIP3    H256975   2.607   5.919   3.078  0.0856  0.2673 -0.5050
11854TIP3   OH256976   3.247   0.464  15.062 -0.0614 -0.5236  0.8422
11854TIP3    H156977   3.184   0.528  15.098 -0.5336 -0.8033  0.5256
11854TIP3    H256978   3.283   0.421  15.139  0.2166  0.0809  1.0594
11855TIP3   OH256979   6.239   2.878  14.904  0.2204  0.4249  0.3868
11855TIP3    H156980   6.166   2.905  14.847  1.0258  0.0047 -0.8918
11855TIP3    H256981   6.312   2.934  14.878  0.4305  0.6846  1.4981
11856TIP3   OH256982   5.310   0.944   1.176 -0.2666  0.3322 -0.0616
11856TIP3    H156983   5.271   0.882   1.115  2.6286  0.1656 -1.9515
11856TIP3    H256984   5.402   0.916   1.183  0.7073  3.3234  0.4624
11857TIP3   OH256985   2.140   2.087  12.626 -0.2435 -0.1200 -0.5580
11857TIP3    H156986   2.099   2.127  12.703  2.7308  1.2562  0.4719
11857TIP3    H256987   2.083   2.111  12.553 -2.3251 -0.1218  0.9732
11858TIP3   OH256988   0.783   5.739  12.708 -0.0839  0.1573  0.0845
11858TIP3    H156989   0.752   5.711  12.622  0.8567 -0.1134 -0.1772
11858TIP3    H256990   0.754   5.830  12.716 -0.6527  0.0132 -0.2755
11859TIP3   OH256991   2.709   3.594   2.012 -0.4380  0.2778 -0.5309
11859TIP3    H156992   2.791   3.590   2.061  0.2787  0.5356 -1.6835
11859TIP3    H256993   2.664   3.672   2.047 -0.7867 -0.5593  0.9688
11860TIP3   OH256994   1.210   0.332  11.170  0.0163  0.2826  0.2350
11860TIP3    H156995   1.231   0.277  11.095  3.5209 -0.8952  1.8333
11860TIP3    H256996   1.245   0.418  11.146 -0.3813  0.3459 -0.1216
11861TIP3   OH256997   1.115   3.903   1.138 -0.0431  0.2047  0.1347
11861TIP3    H156998   1.179   3.929   1.071 -0.9305  1.5608 -0.2308
11861TIP3    H256999   1.142   3.815   1.164  0.8919  0.0203 -1.3255
11862TIP3   OH257000   5.564   2.478   1.519 -0.5559 -0.3250 -0.6734
11862TIP3    H157001   5.539   2.404   1.574 -1.7739  0.0671 -0.6684
11862TIP3    H257002   5.516   2.465   1.438 -1.4182  0.8606 -0.3838
11863TIP3   OH257003   4.834   3.447   0.558 -0.5206  0.8120 -0.0087
11863TIP3    H157004   4.900   3.432   0.490 -0.8731 -0.2499 -0.1454
11863TIP3    H257005   4.838   3.368   0.612 -0.8877  1.2449  0.6514
11864TIP3   OH257006   1.352   5.071  15.487 -0.5697 -0.0266 -0.4920
11864TIP3    H157007   1.378   4.993  15.438  0.0652  0.6825 -1.3235
11864TIP3    H257008   1.334   5.040  15.576  2.0013 -0.7722 -0.1591
11865TIP3   OH257009   3.218   0.078   6.194 -0.1348 -0.0494 -0.2418
11865TIP3    H157010   3.167   0.147   6.236 -0.9041 -1.4158  1.1913
11865TIP3    H257011   3.207   0.002   6.251  2.6699 -0.7190 -0.4409
11866TIP3   OH257012   4.185   6.259   2.255  0.0386 -1.0196 -0.2020
11866TIP3    H157013   4.161   6.240   2.345  1.7238 -0.9055  0.2956
11866TIP3    H257014   4.101   6.274   2.211 -0.7720  2.3996  2.0848
11867TIP3   OH257015   6.671   0.752   4.804  0.1539 -0.1855  0.1154
11867TIP3    H157016   6.616   0.712   4.872 -0.6367 -1.9399 -1.4558
11867TIP3    H257017   6.759   0.753   4.842 -0.2876 -0.9696  1.2267
11868TIP3   OH257018   1.044   2.716  12.199 -0.5050 -0.1748  0.2921
11868TIP3    H157019   1.037   2.645  12.264 -0.9708  0.2711  0.7400
11868TIP3    H257020   1.049   2.671  12.115 -0.3437 -0.7541  0.6024
11869TIP3   OH257021   4.700   3.763   6.004 -0.0145  0.3575  0.4264
11869TIP3    H157022   4.624   3.799   5.959  0.4406  0.5797 -0.1778
11869TIP3    H257023   4.774   3.784   5.947  0.3571 -0.8982  0.4068
11870TIP3   OH257024   4.743   5.177  14.689 -0.0340 -0.3247 -0.1381
11870TIP3    H157025   4.781   5.099  14.649  3.0073  1.9372 -2.0614
11870TIP3    H257026   4.775   5.177  14.779  2.1845 -0.0292 -0.8790
11871TIP3   OH257027   4.679   6.403   6.212 -0.1529 -0.8235  0.2281
11871TIP3    H157028   4.755   6.445   6.253 -0.0921 -0.8996  0.1937
11871TIP3    H257029   4.714   6.322   6.174  0.0318 -0.1867 -1.0064
11872TIP3   OH257030   4.330   3.458   4.305 -0.0386 -0.1264  0.2194
11872TIP3    H157031   4.264   3.393   4.281 -0.3658  0.5912 -0.8927
11872TIP3    H257032   4.367   3.425   4.387  0.2500 -2.0399 -0.6343
11873TIP3   OH257033   3.824   4.778  16.515 -0.5284 -0.5933  0.6928
11873TIP3    H157034   3.869   4.697  16.538 -1.4315 -1.0193  1.0015
11873TIP3    H257035   3.849   4.840  16.582 -2.0661 -1.4374  2.1191
11874TIP3   OH257036   6.341   5.921  14.198  0.3626 -0.5483 -0.1543
11874TIP3    H157037   6.283   5.886  14.266  0.0683 -1.2158 -0.7330
11874TIP3    H257038   6.289   5.991  14.157  0.5379 -0.1476  0.2934
11875TIP3   OH257039   2.708   0.917  12.303  0.1034 -0.4091  0.1101
11875TIP3    H157040   2.783   0.959  12.346  0.2008  0.5012 -0.8923
11875TIP3    H257041   2.745   0.837  12.264  0.0628 -1.1090  1.4758
11876TIP3   OH257042   5.417   4.415  14.584  0.4284 -0.0128 -0.4560
11876TIP3    H157043   5.421   4.320  14.596  1.6149  0.2322  1.4786
11876TIP3    H257044   5.345   4.428  14.522  0.4562 -2.1771 -1.0253
11877TIP3   OH257045   3.378   0.504   1.932  0.1399 -0.1385 -0.1302
11877TIP3    H157046   3.410   0.417   1.907 -2.7935 -1.9205  1.6914
11877TIP3    H257047   3.301   0.518   1.877  0.8684  1.6075 -0.7592
11878TIP3   OH257048   1.667   3.374   1.967  0.9163 -0.3749 -0.4278
11878TIP3    H157049   1.644   3.303   1.906  0.8844 -1.8706  1.2273
11878TIP3    H257050   1.596   3.375   2.031  0.9987  1.0784 -0.3273
11879TIP3   OH257051   5.556   5.250   3.400 -0.1969  0.2917  0.1021
11879TIP3    H157052   5.609   5.198   3.461  0.5015  2.1530  1.1776
11879TIP3    H257053   5.593   5.338   3.406 -1.0573  0.8516 -1.9561
11880TIP3   OH257054   6.737   1.065  16.833  0.5934  0.5373  0.6806
11880TIP3    H157055   6.650   1.073  16.794  0.9495 -1.9000 -0.8590
11880TIP3    H257056   6.736   0.980  16.877  2.3683  0.1773  0.1074
11881TIP3   OH257057   0.479   5.470   2.142  0.0516  0.2832 -0.2140
11881TIP3    H157058   0.401   5.415   2.136  0.4428 -0.2245 -0.7845
11881TIP3    H257059   0.507   5.482   2.052  2.1788 -1.8128  0.0555
11882TIP3   OH257060   1.757   2.703  14.832 -0.5026 -0.3527  0.0737
11882TIP3    H157061   1.846   2.679  14.857 -1.4524 -2.1459  2.0601
11882TIP3    H257062   1.725   2.627  14.783 -1.1622 -0.0066 -0.0409
11883TIP3   OH257063   3.926   6.314  15.707  0.2378  0.4137  0.3534
11883TIP3    H157064   3.832   6.326  15.693  0.7011  1.5272 -2.6416
11883TIP3    H257065   3.942   6.222  15.687  0.0437  0.7412 -1.4834
11884TIP3   OH257066   1.351   4.799   0.476  0.2633 -0.4281 -0.2539
11884TIP3    H157067   1.259   4.826   0.473  0.2635 -0.3309  0.3396
11884TIP3    H257068   1.398   4.871   0.436  0.3737  1.0825  2.3457
11885TIP3   OH257069   4.736   2.964  11.791  0.1306 -1.1306 -0.2439
11885TIP3    H157070   4.661   2.904  11.783 -1.2441  0.1295  1.9858
11885TIP3    H257071   4.729   2.998  11.880  3.4086 -0.9291  0.0451
11886TIP3   OH257072   4.086   1.568   2.936  0.4581 -0.5311  0.4252
11886TIP3    H157073   4.054   1.498   2.878  1.9196 -2.3296  1.6635
11886TIP3    H257074   4.173   1.589   2.903  1.0566 -1.1446  1.5266
11887TIP3   OH257075   2.281   5.528   3.291 -0.5016  0.1919  0.3849
11887TIP3    H157076   2.281   5.615   3.331  0.0924  0.1111  0.5678
11887TIP3    H257077   2.201   5.526   3.238 -1.8804 -0.0550  2.3358
11888TIP3   OH257078   6.615   5.411   2.075  0.0215  0.6958 -0.0754
11888TIP3    H157079   6.583   5.402   2.165  0.3523  3.1745  0.3585
11888TIP3    H257080   6.542   5.383   2.020  0.5061 -2.9828  0.8455
11889TIP3   OH257081   4.181   3.780  14.705 -0.0598 -0.0762  0.0869
11889TIP3    H157082   4.215   3.863  14.672 -0.0133  0.8549  2.2822
11889TIP3    H257083   4.141   3.802  14.790  0.3937 -2.3618  0.9778
11890TIP3   OH257084   2.664   5.733  15.065 -0.2289 -0.3476 -0.0357
11890TIP3    H157085   2.648   5.825  15.084 -0.3423 -0.6605  1.5089
11890TIP3    H257086   2.590   5.706  15.010 -0.3034  0.4093 -0.3156
11891TIP3   OH257087   3.430   3.729  11.962  0.1612 -0.1091  0.5871
11891TIP3    H157088   3.419   3.699  11.872 -0.3723 -2.9892  1.5083
11891TIP3    H257089   3.518   3.766  11.964  0.5237 -0.7895 -0.9470
11892TIP3   OH257090   3.976   6.562   5.184  0.5296 -0.4577  0.2581
11892TIP3    H157091   3.952   6.486   5.237  0.5801 -0.7512 -0.1369
11892TIP3    H257092   3.899   6.577   5.129  0.4728 -0.1472  0.4229
11893TIP3   OH257093   3.618   5.443   2.774 -0.3668 -1.0413 -0.2958
11893TIP3    H157094   3.614   5.357   2.815 -0.4645 -1.3530 -0.9362
11893TIP3    H257095   3.689   5.436   2.710  0.5691 -0.1993  0.6199
11894TIP3   OH257096   1.979   1.708  14.628  0.1695 -0.0761  0.3301
11894TIP3    H157097   2.068   1.705  14.661 -0.1058 -0.2090  1.0798
11894TIP3    H257098   1.937   1.629  14.663 -0.0301 -0.4185 -0.6446
11895TIP3   OH257099   1.325   3.112  16.967  1.0721  0.0904 -0.0975
11895TIP3    H157100   1.320   3.207  16.959 -2.2459  0.0262 -0.0026
11895TIP3    H257101   1.370   3.097  17.051  3.1598  1.4472 -0.8862
11896TIP3   OH257102   2.201   4.016  11.099 -0.2442 -0.3183  0.1635
11896TIP3    H157103   2.250   3.964  11.163 -0.5424 -1.2403 -0.3381
11896TIP3    H257104   2.209   3.967  11.017 -0.5933  0.3970 -0.3114
11897TIP3   OH257105   6.107   0.694  14.123 -0.0830 -0.2276 -0.2168
11897TIP3    H157106   6.167   0.707  14.197 -0.6581 -1.6927  0.5400
11897TIP3    H257107   6.020   0.709  14.160 -0.3572 -0.7011 -0.6609
11898TIP3   OH257108   5.968   1.004   1.584 -0.1809 -0.4901  0.6619
11898TIP3    H157109   5.894   1.055   1.618 -0.3896 -0.3005 -0.0670
11898TIP3    H257110   5.949   0.994   1.491  0.9328 -0.0700  0.3853
11899TIP3   OH257111   4.558   5.233   6.048 -0.1860  0.0891 -0.7792
11899TIP3    H157112   4.478   5.246   6.100  0.4727 -1.5957  0.7344
11899TIP3    H257113   4.543   5.286   5.969 -2.0947  1.1035  0.1818
11900TIP3   OH257114   6.184   0.874   2.683  0.0595  0.4078 -0.0671
11900TIP3    H157115   6.092   0.853   2.699 -0.0436  1.3654  0.6784
11900TIP3    H257116   6.230   0.839   2.759  0.1534  0.9700  0.1392
11901TIP3   OH257117   3.257   2.216  10.976 -0.4514 -0.2164  0.7043
11901TIP3    H157118   3.339   2.179  10.944 -0.6435 -0.0534  0.0264
11901TIP3    H257119   3.191   2.149  10.957 -1.1650  1.2215 -2.3820
11902TIP3   OH257120   6.534   0.749  12.477  0.4519 -0.0282  0.4923
11902TIP3    H157121   6.589   0.712  12.408  0.1367  0.9171 -0.3008
11902TIP3    H257122   6.452   0.699  12.472  0.2299  0.3898 -0.2005
11903TIP3   OH257123   5.360   1.759  11.637  0.1788 -0.1786  0.2649
11903TIP3    H157124   5.312   1.771  11.555 -1.0417  0.7726  1.0942
11903TIP3    H257125   5.360   1.845  11.678  1.2614 -0.5205  1.0250
11904TIP3   OH257126   5.476   4.078   2.732  0.3798 -0.0029 -0.8138
11904TIP3    H157127   5.390   4.101   2.766  0.2964  1.5096 -1.9339
11904TIP3    H257128   5.469   3.985   2.710 -0.6788 -0.1111 -0.1149
11905TIP3   OH257129   2.900   1.783  12.412  0.3481 -0.0924  0.0570
11905TIP3    H157130   2.960   1.728  12.461 -0.4546  0.1976  1.4028
11905TIP3    H257131   2.822   1.728  12.399  1.3803 -1.0534 -3.0573
11906TIP3   OH257132   4.457   5.618  16.016  0.0681  0.0888  0.1881
11906TIP3    H157133   4.392   5.640  15.949 -0.8207 -0.0645  0.9831
11906TIP3    H257134   4.540   5.648  15.979 -0.3715 -0.1462 -1.0577
11907TIP3   OH257135   1.648   6.520  14.122 -0.4128  0.1246 -0.4613
11907TIP3    H157136   1.600   6.525  14.204 -0.4865  2.3586 -0.5629
11907TIP3    H257137   1.735   6.491  14.146 -0.9276 -0.9690  0.1455
11908TIP3   OH257138   1.465   4.434   4.161  0.0131  0.2870 -0.2852
11908TIP3    H157139   1.498   4.387   4.238  0.4027 -3.1984 -2.3424
11908TIP3    H257140   1.373   4.407   4.155 -0.1811  1.0363 -0.6974
11909TIP3   OH257141   2.527   3.980  13.847 -0.4864  0.2002  0.6532
11909TIP3    H157142   2.578   3.998  13.768 -0.4992  0.5521  0.7208
11909TIP3    H257143   2.493   4.066  13.873 -0.1812  0.1510  1.2439
11910TIP3   OH257144   3.501   0.838   3.374  0.0596  0.4442 -0.1745
11910TIP3    H157145   3.504   0.834   3.470 -0.1238 -1.1535 -0.2107
11910TIP3    H257146   3.569   0.901   3.351 -0.7486  1.8460  1.0376
11911TIP3   OH257147   5.216   3.481  16.734  0.1708  0.4325 -0.0310
11911TIP3    H157148   5.247   3.449  16.649  0.6168 -0.6358  0.4965
11911TIP3    H257149   5.295   3.481  16.788 -0.0025  1.6476  0.2363
11912TIP3   OH257150   2.761   1.792  17.165  0.2018 -0.2798  0.4925
11912TIP3    H157151   2.704   1.868  17.175 -0.5395 -0.5626 -1.2544
11912TIP3    H257152   2.752   1.745  17.248 -0.0677  1.0209  1.2337
11913TIP3   OH257153   6.229   6.072  16.110 -0.2362  0.1625  0.3154
11913TIP3    H157154   6.257   6.081  16.201 -0.6323  2.0076  0.3115
11913TIP3    H257155   6.264   6.151  16.067 -2.5637  0.8775 -0.4092
11914TIP3   OH257156   1.098   0.028  13.924 -0.0181  0.1770  0.0762
11914TIP3    H157157   1.061   0.065  14.005  0.0921  1.9129 -0.6337
11914TIP3    H257158   1.023  -0.016  13.883  0.0939 -1.3819  1.4547
11915TIP3   OH257159   0.035   4.008  14.296  0.1818  0.4471  0.1889
11915TIP3    H157160   0.072   3.992  14.382 -0.3110 -1.8034  0.0456
11915TIP3    H257161   0.033   4.104  14.287  0.7677  0.7021  2.4148
11916TIP3   OH257162   3.886   3.974   2.555 -0.0402  0.9005 -0.5108
11916TIP3    H157163   3.794   3.970   2.582  0.5827  0.2075  1.7768
11916TIP3    H257164   3.907   4.068   2.555 -0.1976  0.9602  1.1392
11917TIP3   OH257165   1.877   2.098   2.894 -0.5888  0.7810 -0.0587
11917TIP3    H157166   1.928   2.070   2.817 -0.1744  3.6493 -0.9431
11917TIP3    H257167   1.831   2.018   2.922 -0.1577 -0.5764 -2.8016
11918TIP3   OH257168   1.665   1.960  15.836 -0.0422 -0.0344 -0.3761
11918TIP3    H157169   1.695   1.870  15.850  0.7108  0.3730  0.8502
11918TIP3    H257170   1.732   2.014  15.877 -0.1720  1.1296 -1.6323
11919TIP3   OH257171   4.374   6.701   4.274 -0.9698  0.3352 -0.5668
11919TIP3    H157172   4.466   6.676   4.277 -1.6481 -2.5213 -0.2015
11919TIP3    H257173   4.354   6.729   4.364 -0.8181 -0.8126 -0.1461
11920TIP3   OH257174   0.021   1.429  14.353  0.7914 -0.0601  0.0305
11920TIP3    H157175   0.076   1.442  14.429  0.1412  0.5388  0.4141
11920TIP3    H257176   0.027   1.512  14.304 -0.0567  0.1661  0.2834
11921TIP3   OH257177   2.101   1.017   5.742  0.2010  0.2516  0.3131
11921TIP3    H157178   2.079   1.057   5.826 -1.1507  0.5647 -0.1535
11921TIP3    H257179   2.116   1.091   5.683  2.8099  0.0637  0.6124
11922TIP3   OH257180   1.085   2.524   0.256  0.0013 -0.6541  0.1684
11922TIP3    H157181   1.046   2.558   0.336 -1.6397  1.2836 -1.3212
11922TIP3    H257182   1.014   2.476   0.213  0.4504 -0.5769 -0.6872
11923TIP3   OH257183   3.789   0.147   1.313  0.1473 -0.0347  0.0298
11923TIP3    H157184   3.732   0.166   1.387  0.7507 -1.0846  0.7748
11923TIP3    H257185   3.805   0.053   1.318  0.5393 -0.0513 -1.1884
11924TIP3   OH257186   0.868   4.269   4.027  0.5760  0.4598  0.0677
11924TIP3    H157187   0.846   4.318   4.106 -0.9478  0.2381 -0.1861
11924TIP3    H257188   0.963   4.280   4.017  0.6803  1.0810  1.5157
11925TIP3   OH257189   3.468   0.612  16.362  0.0861  0.1583 -0.1346
11925TIP3    H157190   3.463   0.524  16.399  0.7094  0.3285  0.3790
11925TIP3    H257191   3.431   0.603  16.274  0.6690 -0.7374 -0.3028
11926TIP3   OH257192   1.070   4.156  12.682  0.2324 -0.0123 -0.4271
11926TIP3    H157193   1.017   4.086  12.721 -1.3224  1.0119 -0.6228
11926TIP3    H257194   1.129   4.183  12.753 -3.2165  2.5111  1.8130
11927TIP3   OH257195   5.835   5.844   5.561  0.1986  0.0759  0.0579
11927TIP3    H157196   5.918   5.825   5.606  0.4816 -1.9905 -1.2161
11927TIP3    H257197   5.774   5.780   5.596 -0.3829  0.4001 -0.3569
11928TIP3   OH257198   1.543   5.449  14.917 -0.2760  0.0462 -0.8522
11928TIP3    H157199   1.524   5.372  14.971 -0.1057 -0.5454 -1.6048
11928TIP3    H257200   1.501   5.522  14.962 -0.0033 -0.3967  0.1606
11929TIP3   OH257201   6.589   0.370   0.354 -0.1787 -0.5890  0.1276
11929TIP3    H157202   6.499   0.404   0.360  0.1128  0.3949 -0.8800
11929TIP3    H257203   6.637   0.420   0.420 -0.0806 -0.1323 -0.2872
11930TIP3   OH257204   4.223   6.623  10.286 -0.1270 -0.7041  0.0513
11930TIP3    H157205   4.162   6.606  10.358 -1.3969 -0.5011 -0.9430
11930TIP3    H257206   4.309   6.599  10.322 -1.1043 -4.0157  0.5245
11931TIP3   OH257207   0.273   1.074  12.750 -0.0887 -0.3206 -0.2826
11931TIP3    H157208   0.267   1.114  12.664 -0.3830 -0.3792 -0.2887
11931TIP3    H257209   0.299   0.983  12.732  0.0850 -0.2700 -0.2945
11932TIP3   OH257210   2.915   3.139   3.888 -0.4385 -0.2362 -0.0839
11932TIP3    H157211   2.838   3.087   3.866  0.9766 -1.8340 -1.5538
11932TIP3    H257212   2.900   3.167   3.979 -2.2132 -1.4583  0.0534
11933TIP3   OH257213   1.747   6.246  12.552  0.5911  0.2467  0.3706
11933TIP3    H157214   1.816   6.183  12.531  0.0219 -0.5602  0.8518
11933TIP3    H257215   1.699   6.205  12.624  0.0048  1.0920  0.4720
11934TIP3   OH257216   3.541   5.173  11.153  0.1693  0.4215 -0.2292
11934TIP3    H157217   3.535   5.126  11.236 -2.1611  1.1012  0.0753
11934TIP3    H257218   3.568   5.107  11.090 -0.1527 -0.6336  0.7013
11935TIP3   OH257219   6.541   0.014  16.317  0.5114  0.0700 -0.1720
11935TIP3    H157220   6.491   0.053  16.244  0.3141 -1.3951 -0.8604
11935TIP3    H257221   6.630   0.046  16.304 -0.1192  2.5579  0.9456
11936TIP3   OH257222   4.823   3.171  15.999 -0.2026  0.2360  0.3314
11936TIP3    H157223   4.873   3.248  15.972 -0.1856 -0.5303 -2.0451
11936TIP3    H257224   4.738   3.206  16.027 -0.1630  1.1287 -0.6054
11937TIP3   OH257225   0.456   0.853   1.822  0.3124 -0.3384 -0.0611
11937TIP3    H157226   0.449   0.812   1.736 -0.6478  1.1386 -0.7283
11937TIP3    H257227   0.529   0.807   1.865 -0.4313 -2.4090 -0.8926
11938TIP3   OH257228   4.713   5.502   2.589  0.1538 -0.1604  0.1188
11938TIP3    H157229   4.740   5.467   2.505 -2.7268 -0.2671 -0.8871
11938TIP3    H257230   4.726   5.597   2.581  0.1731 -0.2000 -0.3543
11939TIP3   OH257231   0.261   6.690   1.162 -0.4746  0.1617 -0.6292
11939TIP3    H157232   0.279   6.767   1.215 -1.6725  0.5425 -0.7371
11939TIP3    H257233   0.173   6.705   1.127  0.3185  0.0251 -2.8782
11940TIP3   OH257234   0.625   4.714   2.914 -0.1406  0.2181  0.4735
11940TIP3    H157235   0.561   4.654   2.873 -0.2773 -0.5328  1.7275
11940TIP3    H257236   0.702   4.707   2.859 -1.4044  1.8866 -1.6590
11941TIP3   OH257237   0.439   3.255  16.130 -0.7910  0.5033  0.3316
11941TIP3    H157238   0.478   3.321  16.072 -0.1983  0.8176  1.0642
11941TIP3    H257239   0.398   3.307  16.200 -0.6124  0.1099  0.7328
11942TIP3   OH257240   2.492   3.525   4.370 -0.4505 -0.0287 -0.0736
11942TIP3    H157241   2.421   3.462   4.353  0.2185 -0.5175 -1.1474
11942TIP3    H257242   2.458   3.608   4.336 -0.1110 -0.4817 -1.5507
11943TIP3   OH257243   2.677   5.003   6.068 -0.4042 -0.7302  0.0015
11943TIP3    H157244   2.741   5.019   6.137  0.2015  1.1313 -0.9116
11943TIP3    H257245   2.604   5.061   6.088  0.3436  0.8738 -1.5368
11944TIP3   OH257246   1.839   4.691   1.805  0.0151 -0.5768 -0.2660
11944TIP3    H157247   1.924   4.671   1.843  0.2204  1.2895  0.3460
11944TIP3    H257248   1.836   4.640   1.724  1.3265 -1.3550  0.1581
11945TIP3   OH257249   4.203   0.227   3.686  0.1081 -0.2341 -0.2197
11945TIP3    H157250   4.201   0.248   3.779  0.9348  0.3912 -0.3351
11945TIP3    H257251   4.250   0.299   3.645 -0.0430 -0.6111 -1.0988
11946TIP3   OH257252   4.335   4.853  15.788  0.0730  0.2071 -0.0415
11946TIP3    H157253   4.388   4.807  15.723  1.9888  1.0132  0.8684
11946TIP3    H257254   4.372   4.941  15.792  0.0826  0.1756  2.1529
11947TIP3   OH257255   6.526   6.687  11.288  0.5278  0.0361  0.5595
11947TIP3    H157256   6.529   6.616  11.223 -0.4981  1.5062 -1.1909
11947TIP3    H257257   6.435   6.718  11.286  1.2796  2.4185  0.0789
11948TIP3   OH257258   4.810   5.426  15.485  0.1015  0.0077  0.5388
11948TIP3    H157259   4.851   5.404  15.568  1.3301 -0.4500 -0.1611
11948TIP3    H257260   4.880   5.469  15.434 -0.4106 -0.3753 -0.5182
11949TIP3   OH257261   0.100   3.310   3.285  0.2875 -0.2847 -0.0471
11949TIP3    H157262   0.172   3.369   3.265 -0.5858  0.3991 -1.3456
11949TIP3    H257263   0.024   3.368   3.294 -0.0411 -0.9344  1.8126
11950TIP3   OH257264   5.683   4.074  12.874  0.7975  0.1854 -0.5076
11950TIP3    H157265   5.715   4.010  12.810 -0.0506 -0.4672 -0.2792
11950TIP3    H257266   5.603   4.037  12.909 -0.1812  1.7516 -0.9751
11951TIP3   OH257267   4.049   4.751   0.747 -0.1658 -0.3490 -0.0920
11951TIP3    H157268   3.956   4.762   0.728  0.0298  1.5822 -0.1242
11951TIP3    H257269   4.093   4.773   0.665  0.3313 -1.9136 -0.2814
11952TIP3   OH257270   4.143   3.920   1.277  0.7492  0.5264  0.1044
11952TIP3    H157271   4.090   3.917   1.357  2.3372 -0.3325  1.1684
11952TIP3    H257272   4.085   3.960   1.212 -0.9761  0.2110  1.3719
11953TIP3   OH257273   3.434   6.631   2.925 -0.0284 -0.2107  0.3117
11953TIP3    H157274   3.400   6.557   2.976  0.3625 -0.8541 -0.3272
11953TIP3    H257275   3.359   6.664   2.877 -0.4828  0.6387  1.5604
11954TIP3   OH257276   5.772   0.153   3.344  0.0652 -0.0371 -0.0713
11954TIP3    H157277   5.808   0.084   3.400  1.2105 -0.1706 -0.9337
11954TIP3    H257278   5.848   0.187   3.296 -0.5521  1.5070 -0.0148
11955TIP3   OH257279   4.157   3.853   4.032  0.5427 -0.4495 -0.1726
11955TIP3    H157280   4.156   3.759   4.015  1.2058 -0.4652 -0.1486
11955TIP3    H257281   4.237   3.885   3.991  2.4224 -0.5457  3.0853
11956TIP3   OH257282   4.453   1.368   0.386 -0.3414  0.6051 -0.2013
11956TIP3    H157283   4.376   1.351   0.441 -0.1260 -0.4420 -0.2183
11956TIP3    H257284   4.435   1.454   0.348 -2.0279 -0.0642 -1.0618
11957TIP3   OH257285   6.415   6.179   5.241 -0.3528 -0.2958  0.0321
11957TIP3    H157286   6.384   6.240   5.174 -0.4903 -0.7258 -0.3016
11957TIP3    H257287   6.357   6.104   5.233 -0.6373 -0.1762  0.9249
11958TIP3   OH257288   5.513   3.505   1.393  0.2806 -1.0428  0.7789
11958TIP3    H157289   5.582   3.482   1.331 -1.6999  0.7471 -2.3576
11958TIP3    H257290   5.517   3.600   1.398 -2.0285 -0.8681  0.3016
11959TIP3   OH257291   1.351   3.516   4.535 -0.5362  0.8991  0.4821
11959TIP3    H157292   1.343   3.520   4.630  0.9017  2.0756  0.6007
11959TIP3    H257293   1.350   3.608   4.508 -0.5628  0.5877 -0.6149
11960TIP3   OH257294   1.205   6.572  15.326 -0.1088  0.6856 -0.3697
11960TIP3    H157295   1.297   6.547  15.323 -0.7163 -2.3257  1.1239
11960TIP3    H257296   1.181   6.590  15.236  1.7543  0.7134 -0.8906
11961TIP3   OH257297   0.872   6.357  15.329  0.5416  0.2050  0.1865
11961TIP3    H157298   0.901   6.416  15.399 -1.4286  0.9282  0.4538
11961TIP3    H257299   0.946   6.298  15.315  3.1430  3.4453 -0.9540
11962TIP3   OH257300   1.050   6.070   2.387 -0.1626  0.4341  0.0345
11962TIP3    H157301   1.098   6.077   2.305  0.7193  1.0125  0.5847
11962TIP3    H257302   1.107   6.112   2.452 -1.0908  0.4954  0.8339
11963TIP3   OH257303   2.771   4.537   0.956  0.1331  0.2390  0.3378
11963TIP3    H157304   2.753   4.494   1.039 -2.5634  0.7494  0.1099
11963TIP3    H257305   2.783   4.630   0.979 -2.6695  0.7661  0.0931
11964TIP3   OH257306   2.841   0.614   3.255 -0.7128  0.7762  0.0325
11964TIP3    H157307   2.774   0.600   3.322 -1.5902  0.8730 -0.8099
11964TIP3    H257308   2.894   0.534   3.258 -0.2316  1.1182  1.3887
11965TIP3   OH257309   2.553   2.079   1.301  0.4409  0.7113  0.1170
11965TIP3    H157310   2.646   2.092   1.284  0.7752  0.5943  1.6494
11965TIP3    H257311   2.524   2.017   1.233  1.4798  0.7412 -0.3673
11966TIP3   OH257312   5.231   5.238  11.514 -0.0081  0.1976 -0.3787
11966TIP3    H157313   5.208   5.243  11.607 -0.9951 -0.0156 -0.6065
11966TIP3    H257314   5.177   5.166  11.480  0.4286  0.2013 -1.0992
11967TIP3   OH257315   4.672   5.091  13.660  0.1407 -0.0259 -0.4587
11967TIP3    H157316   4.585   5.131  13.667 -1.1394 -2.2276 -2.2996
11967TIP3    H257317   4.676   5.029  13.732 -0.5578 -1.1078 -1.3160
11968TIP3   OH257318   0.951   2.757   4.579 -0.4356  0.1399  0.4565
11968TIP3    H157319   0.955   2.815   4.654  2.8054 -0.0992  0.6342
11968TIP3    H257320   1.040   2.759   4.542 -1.5060 -0.8539 -2.5264
11969TIP3   OH257321   5.287   3.613   0.835 -0.6969  0.2335  0.5792
11969TIP3    H157322   5.277   3.553   0.908 -0.3712 -1.2684 -0.5506
11969TIP3    H257323   5.334   3.562   0.768 -1.1584  1.4637 -0.7461
11970TIP3   OH257324   3.535   2.907   1.100 -0.1697 -0.3694 -0.3512
11970TIP3    H157325   3.577   2.993   1.102 -0.0698 -0.4269  0.0935
11970TIP3    H257326   3.564   2.869   1.017 -0.0267 -0.0676 -0.4415
11971TIP3   OH257327   2.599   5.335  16.627 -0.0027  0.2597 -0.5839
11971TIP3    H157328   2.525   5.394  16.614 -0.8196 -0.6036 -0.0348
11971TIP3    H257329   2.558   5.251  16.648  1.1173  0.2562  1.9086
11972TIP3   OH257330   2.510   1.773  12.194 -0.2359  0.1214 -0.1132
11972TIP3    H157331   2.599   1.784  12.160  0.0499 -1.9120 -0.1365
11972TIP3    H257332   2.521   1.724  12.275 -1.1841  2.0658  1.2762
11973TIP3   OH257333   1.279   5.940   2.104 -0.2619  0.1310  0.6422
11973TIP3    H157334   1.314   5.854   2.127  0.8221  0.9167  2.0846
11973TIP3    H257335   1.232   5.926   2.022 -0.1244 -1.8306  0.8657
11974TIP3   OH257336   5.395   1.208  14.073 -0.3086 -0.0897  0.3021
11974TIP3    H157337   5.311   1.163  14.068  0.5530 -1.5766 -2.1905
11974TIP3    H257338   5.460   1.138  14.064  1.2097  1.1303  1.3011
11975TIP3   OH257339   0.245   4.933  12.926 -0.2947 -0.1536 -0.1294
11975TIP3    H157340   0.303   4.922  13.002  2.4442 -1.6758 -2.2440
11975TIP3    H257341   0.214   5.024  12.932  2.1964  0.7019  1.2840
11976TIP3   OH257342   3.219   3.836   4.571  0.0732 -0.5268 -0.1998
11976TIP3    H157343   3.140   3.784   4.557  0.1765 -0.5164 -0.8773
11976TIP3    H257344   3.256   3.803   4.653 -0.1581 -1.1409 -0.3382
11977TIP3   OH257345   1.729   4.760  14.905  0.9497  0.0956  0.2234
11977TIP3    H157346   1.717   4.808  14.823  0.5324 -0.2685  0.0629
11977TIP3    H257347   1.770   4.677  14.878  2.3816  0.6653  0.5833
11978TIP3   OH257348   2.060   2.103  14.358 -0.3341  0.0772 -0.1917
11978TIP3    H157349   2.035   2.124  14.448  0.3649 -0.0533  0.0364
11978TIP3    H257350   2.132   2.163  14.338  0.6416 -1.0304 -0.0739
11979TIP3   OH257351   4.484   1.899  12.837 -0.2720  0.0132  0.3847
11979TIP3    H157352   4.481   1.822  12.894 -0.4644  0.5119  1.0733
11979TIP3    H257353   4.403   1.947  12.857 -0.0567  0.4971  0.1210
11980TIP3   OH257354   6.503   1.420  12.447  0.1424  0.1095  0.3036
11980TIP3    H157355   6.452   1.370  12.383  1.6208  0.0619 -0.9080
11980TIP3    H257356   6.467   1.508  12.442  0.3198  0.1425 -0.7255
11981TIP3   OH257357   1.625   2.433   0.251  0.5323  0.1682  0.4739
11981TIP3    H157358   1.648   2.464   0.163 -2.4751 -0.9768 -0.8744
11981TIP3    H257359   1.529   2.428   0.250  0.4688 -1.2318  3.3559
11982TIP3   OH257360   4.817   4.675   1.772  0.3885 -0.1488  0.1011
11982TIP3    H157361   4.797   4.713   1.687 -2.6388 -0.3019  0.6384
11982TIP3    H257362   4.794   4.583   1.764 -0.3719 -0.0676  1.1986
11983TIP3   OH257363   3.385   3.461   1.969 -0.4841  0.2722 -0.6128
11983TIP3    H157364   3.423   3.446   2.056 -1.6782 -0.8838 -0.2685
11983TIP3    H257365   3.423   3.392   1.915 -0.5325  0.3603 -0.7584
11984TIP3   OH257366   5.236   3.488  14.451  0.0868 -0.1698 -0.0873
11984TIP3    H157367   5.221   3.429  14.377  1.6721 -2.4538  1.2932
11984TIP3    H257368   5.323   3.525  14.434  1.7625 -2.8309  1.7822
11985TIP3   OH257369   2.500   3.375   2.457 -0.4799 -0.2404 -0.3645
11985TIP3    H157370   2.531   3.306   2.515 -1.2447  0.2179  0.6192
11985TIP3    H257371   2.485   3.451   2.514 -1.0119  0.3039 -1.1938
11986TIP3   OH257372   4.163   6.103  10.853 -0.0233 -0.3227  0.2736
11986TIP3    H157373   4.125   6.114  10.766  0.3382 -0.4464  0.0996
11986TIP3    H257374   4.089   6.109  10.912 -0.6644 -2.7457 -0.1815
11987TIP3   OH257375   3.851   5.618   4.839  0.2210  0.2417 -0.5819
11987TIP3    H157376   3.780   5.561   4.809  0.1137  0.0041  0.1118
11987TIP3    H257377   3.835   5.629   4.933  1.8501 -0.9123 -0.1196
11988TIP3   OH257378   4.274   6.465   4.160 -0.2675  0.1832  0.3156
11988TIP3    H157379   4.328   6.405   4.212 -1.7235  0.2406  1.9703
11988TIP3    H257380   4.308   6.552   4.182 -1.0775  0.2304  1.4790
11989TIP3   OH257381   2.783   2.712  13.775  0.0932  0.3690 -0.1594
11989TIP3    H157382   2.803   2.666  13.857  1.4969  1.2043  0.0046
11989TIP3    H257383   2.691   2.691  13.757  0.2471 -1.1944  0.7273
11990TIP3   OH257384   5.581   2.607  13.814 -0.4977  0.5169 -0.5137
11990TIP3    H157385   5.633   2.686  13.826  1.6024 -1.0880  2.1173
11990TIP3    H257386   5.608   2.572  13.730  3.5461 -0.6919  1.0812
11991TIP3   OH257387   1.138   5.479  16.026  0.3397  0.0223 -0.0778
11991TIP3    H157388   1.095   5.395  16.043 -2.8019  0.8175 -2.8036
11991TIP3    H257389   1.208   5.458  15.964  0.2726 -0.7097  0.0811
11992TIP3   OH257390   2.867   0.655  16.748  0.4182 -0.4365 -0.3471
11992TIP3    H157391   2.924   0.632  16.675  2.5494 -1.1127  1.4269
11992TIP3    H257392   2.873   0.751  16.753  0.1019 -0.3695 -1.1637
11993TIP3   OH257393   5.151   0.191  10.588 -0.4191 -0.1264  0.0295
11993TIP3    H157394   5.158   0.099  10.614 -1.7582 -0.2467 -0.0030
11993TIP3    H257395   5.232   0.231  10.621  0.3204 -1.3695 -0.2267
11994TIP3   OH257396   2.693   1.062   0.209 -0.1130  0.0356 -0.1821
11994TIP3    H157397   2.750   1.018   0.273  0.6531  0.6359 -0.4377
11994TIP3    H257398   2.625   1.102   0.262 -0.1126 -0.4107  0.1630
11995TIP3   OH257399   5.504   0.650  16.948 -0.1779 -0.3454 -0.5608
11995TIP3    H157400   5.451   0.572  16.963  1.0123 -1.2246 -0.7527
11995TIP3    H257401   5.584   0.617  16.907  0.1998  1.0239 -0.9881
11996TIP3   OH257402   0.159   3.279  13.938  0.5464 -1.0408  0.3370
11996TIP3    H157403   0.142   3.260  14.030 -0.0836 -0.5507  0.3257
11996TIP3    H257404   0.100   3.221  13.890 -2.2272  1.5746  0.3123
11997TIP3   OH257405   1.108   2.885  12.472  0.1070 -0.0812 -0.7405
11997TIP3    H157406   1.173   2.861  12.538  2.1747  0.6467 -2.4117
11997TIP3    H257407   1.115   2.817  12.405 -0.9814 -0.0730 -0.8787
11998TIP3   OH257408   1.996   6.349  16.622  0.1795  0.3006  0.2620
11998TIP3    H157409   1.961   6.358  16.711 -0.1292 -2.1147  0.4333
11998TIP3    H257410   1.920   6.358  16.565  0.3165  1.4485  0.2393
11999TIP3   OH257411   1.495   1.648  14.913 -0.5388  0.0440  0.1112
11999TIP3    H157412   1.505   1.627  15.006 -1.1110  2.0739  0.6743
11999TIP3    H257413   1.583   1.671  14.884  0.2149 -3.2490 -0.6524
12000TIP3   OH257414   3.518   5.833  16.395 -0.0064  0.4591 -0.0254
12000TIP3    H157415   3.423   5.840  16.386 -0.1781 -1.0530  0.4195
12000TIP3    H257416   3.542   5.755  16.345  1.1604  1.4037 -0.9996
12001TIP3   OH257417   5.055   4.529  11.746  0.3770 -0.2358 -0.5143
12001TIP3    H157418   5.008   4.464  11.694 -1.0975  1.9951 -2.1379
12001TIP3    H257419   4.989   4.593  11.771  1.4078 -0.2161  2.6543
12002TIP3   OH257420   1.347   0.539   4.191  0.0850 -0.0749  0.0548
12002TIP3    H157421   1.336   0.457   4.240  1.1542  0.0291  0.4756
12002TIP3    H257422   1.314   0.518   4.104  1.1475 -1.2318 -0.1056
12003TIP3   OH257423   1.329   4.336   4.431 -0.0145 -0.1742  0.6861
12003TIP3    H157424   1.420   4.323   4.456  0.3267  0.2546 -0.2774
12003TIP3    H257425   1.302   4.253   4.393  0.2910  0.0171  0.0482
12004TIP3   OH257426   4.454   1.171   4.183 -0.7585  0.6293 -0.4653
12004TIP3    H157427   4.460   1.215   4.099 -0.4654  1.7195  0.1114
12004TIP3    H257428   4.375   1.117   4.176  0.0786 -0.4597 -1.9544
12005TIP3   OH257429   1.063   1.671   4.956  0.1313  0.3108  0.5258
12005TIP3    H157430   1.133   1.607   4.972 -0.7267 -1.0250 -0.6874
12005TIP3    H257431   1.041   1.705   5.042  1.1111 -0.5055  1.1311
12006TIP3   OH257432   2.873   4.916  15.220  0.5877  0.1777  0.6155
12006TIP3    H157433   2.952   4.862  15.229  0.5802  0.1941  0.7831
12006TIP3    H257434   2.887   4.989  15.280  1.1530  1.0287 -0.5172
12007TIP3   OH257435   5.888   3.343  16.475  0.0516 -0.0502  0.5041
12007TIP3    H157436   5.879   3.306  16.387  0.1068  0.4288  0.2926
12007TIP3    H257437   5.958   3.407  16.467  0.1895 -0.1468  0.9476
12008TIP3   OH257438   3.075   5.587  15.597 -0.3128  0.2022 -0.0636
12008TIP3    H157439   3.156   5.536  15.597 -0.2690  0.2714 -0.1075
12008TIP3    H257440   3.018   5.542  15.659 -0.5834 -0.3966 -0.7295
12009TIP3   OH257441   1.348   2.900   5.344  0.1268  0.4743 -0.8502
12009TIP3    H157442   1.388   2.891   5.431 -0.0778 -1.8520 -0.9551
12009TIP3    H257443   1.400   2.844   5.287 -2.0016 -1.0676 -1.4028
12010TIP3   OH257444   5.720   1.014  16.274 -0.6890  0.2468 -0.3252
12010TIP3    H157445   5.783   1.032  16.204  0.5982  0.1930  0.7816
12010TIP3    H257446   5.657   0.954  16.234  1.3944 -1.7799 -0.7805
12011TIP3   OH257447   6.141   1.336   5.543 -0.2026  0.3873  0.4226
12011TIP3    H157448   6.138   1.262   5.482  1.4445 -0.3718  1.1870
12011TIP3    H257449   6.167   1.411   5.489 -0.9495  0.2131 -0.1915
12012TIP3   OH257450   6.426   2.169   4.308 -0.3481  0.5307 -0.5185
12012TIP3    H157451   6.401   2.134   4.223  0.0422 -1.5401  0.1660
12012TIP3    H257452   6.356   2.142   4.367  1.0422 -1.1868  0.4634
12013TIP3   OH257453   6.107   2.913  12.745 -0.2590 -0.5096  0.6942
12013TIP3    H157454   6.061   2.903  12.829  0.6051  0.9584  1.3980
12013TIP3    H257455   6.169   2.984  12.761  0.9182 -1.1558 -0.7931
12014TIP3   OH257456   5.760   3.909  11.094  0.3662 -0.0174 -0.1977
12014TIP3    H157457   5.673   3.924  11.058  0.2556 -0.2544 -0.0253
12014TIP3    H257458   5.812   3.982  11.060 -0.3774  1.2764  1.3476
12015TIP3   OH257459   5.016   6.409  12.003 -0.2212 -0.6436 -0.1070
12015TIP3    H157460   4.944   6.441  11.949  0.2099 -2.0825 -1.6416
12015TIP3    H257461   5.082   6.478  11.998 -1.5642  0.8567  1.6196
12016TIP3   OH257462   6.177   1.163   5.837 -0.1243  0.4213  0.7063
12016TIP3    H157463   6.167   1.192   5.746 -2.6036  0.5564  0.9381
12016TIP3    H257464   6.258   1.204   5.867 -0.2976  2.0283 -0.8354
12017TIP3   OH257465   4.862   4.792  13.905 -0.3667 -0.1343 -0.4615
12017TIP3    H157466   4.852   4.698  13.891  1.7385 -0.6395  0.9997
12017TIP3    H257467   4.907   4.824  13.827  1.8963 -1.0029  0.4105
12018TIP3   OH257468   6.602   5.741  11.187 -0.1390 -0.2635 -0.1330
12018TIP3    H157469   6.545   5.670  11.217 -1.3205  0.3401 -0.8675
12018TIP3    H257470   6.546   5.795  11.132  1.1708  0.3278 -0.9428
12019TIP3   OH257471   3.225   3.940   5.422  0.0520 -0.5326  0.6236
12019TIP3    H157472   3.318   3.965   5.421 -0.8153  3.3750 -0.2967
12019TIP3    H257473   3.198   3.950   5.331 -2.1479  3.0904  1.4594
12020TIP3   OH257474   1.136   5.730   3.263  0.0479 -0.3867 -0.2222
12020TIP3    H157475   1.069   5.785   3.304  2.0871  0.6628  1.9866
12020TIP3    H257476   1.146   5.766   3.175 -0.5488  1.0604  0.2715
12021TIP3   OH257477   5.658   1.829   1.823  0.6283 -0.1795 -0.2229
12021TIP3    H157478   5.627   1.823   1.914  0.4027 -0.8271 -0.3388
12021TIP3    H257479   5.746   1.790   1.825  0.3899 -0.7382 -0.3887
12022TIP3   OH257480   1.076   1.127   2.029  0.2798  0.0007 -0.2316
12022TIP3    H157481   1.049   1.069   2.100 -0.5752  0.4784 -0.1620
12022TIP3    H257482   1.026   1.207   2.042  2.2150  1.2158  0.3052
12023TIP3   OH257483   6.296   3.096  13.938  0.2706  0.1360 -0.2805
12023TIP3    H157484   6.226   3.059  13.992  0.6354  1.1476  0.9447
12023TIP3    H257485   6.365   3.029  13.940  0.3253  0.2071  0.6227
12024TIP3   OH257486   5.745   1.656  14.773 -0.0945  0.1988  0.4027
12024TIP3    H157487   5.725   1.689  14.685  1.1632 -1.5035 -0.5771
12024TIP3    H257488   5.788   1.730  14.817 -1.4900  1.3468 -0.0782
12025TIP3   OH257489   1.906   5.849   4.864 -0.0581  0.3728 -0.1138
12025TIP3    H157490   2.000   5.832   4.857 -0.2327 -0.0920 -1.8472
12025TIP3    H257491   1.868   5.803   4.789 -1.8454 -0.6738  1.3497
12026TIP3   OH257492   3.080   2.598  10.492  0.5982  0.0808 -0.3295
12026TIP3    H157493   2.993   2.606  10.531  0.6611  1.1168 -0.3802
12026TIP3    H257494   3.065   2.554  10.409 -0.1986  2.2309 -1.3845
12027TIP3   OH257495   4.120   6.438   6.029  0.1205 -0.3765  0.4958
12027TIP3    H157496   4.025   6.434   6.045  0.3459  0.1959  2.1410
12027TIP3    H257497   4.151   6.505   6.090  1.4962 -0.0075 -0.5599
12028TIP3   OH257498   0.359   6.093  11.286 -0.1130 -0.0243  0.1102
12028TIP3    H157499   0.420   6.045  11.231 -0.8040  0.9745 -1.6268
12028TIP3    H257500   0.273   6.063  11.258 -0.4923  0.7930  0.3676
12029TIP3   OH257501   2.579   1.538   4.115 -0.0028  0.4398 -0.3749
12029TIP3    H157502   2.644   1.476   4.148  0.4752  0.2997 -1.5227
12029TIP3    H257503   2.623   1.582   4.042 -1.6162 -0.6054 -2.0702
12030TIP3   OH257504   3.418   2.035   4.107 -0.3141  0.6000 -0.1140
12030TIP3    H157505   3.337   1.988   4.126  0.2184 -0.3950 -0.2564
12030TIP3    H257506   3.396   2.089   4.031 -0.1005 -1.8303 -2.0234
12031TIP3   OH257507   6.375   6.270   2.127  0.7165  0.4368  0.1160
12031TIP3    H157508   6.338   6.216   2.057  1.9536 -0.0330 -0.2024
12031TIP3    H257509   6.390   6.208   2.199 -0.4785  0.9014  0.7990
12032TIP3   OH257510   4.618   4.944  13.943  0.4043 -0.0907 -0.7065
12032TIP3    H157511   4.593   4.921  14.032  0.1113  2.0416 -0.1691
12032TIP3    H257512   4.643   4.861  13.902 -0.3703 -1.2466  1.0485
12033TIP3   OH257513   3.554   0.607   5.322  0.1266  0.6965 -0.1622
12033TIP3    H157514   3.546   0.698   5.294 -3.0694  0.7042  0.4292
12033TIP3    H257515   3.467   0.583   5.354  0.9156 -2.4945  0.0068
12034TIP3   OH257516   4.968   0.957   0.887  0.5949 -0.4062  0.3816
12034TIP3    H157517   4.960   0.978   0.794 -1.2177 -0.6269  0.4545
12034TIP3    H257518   4.957   1.040   0.932  2.0045 -0.2126  0.4071
12035TIP3   OH257519   2.320   0.022   4.716  0.1734 -0.0149  0.3496
12035TIP3    H157520   2.380   0.039   4.643  0.2766 -0.7532  0.2630
12035TIP3    H257521   2.269   0.103   4.723  2.1992  1.2704  1.4220
12036TIP3   OH257522   5.462   1.279   3.562  0.0214 -0.2299  0.3275
12036TIP3    H157523   5.376   1.238   3.560  0.2679 -0.7219 -1.4145
12036TIP3    H257524   5.446   1.366   3.600 -1.5333  0.3064 -1.4386
12037TIP3   OH257525   1.675   4.323   1.697  0.1933 -0.1011 -0.0288
12037TIP3    H157526   1.585   4.293   1.682  0.9041 -1.8781 -1.0721
12037TIP3    H257527   1.725   4.242   1.709  1.5892  0.8731  0.9849
12038TIP3   OH257528   1.443   1.141   0.969 -0.3094 -0.5404  0.2191
12038TIP3    H157529   1.449   1.233   0.995 -0.7162 -0.5391  0.3085
12038TIP3    H257530   1.530   1.120   0.935 -1.1453  0.8802 -3.1978
12039TIP3   OH257531   1.800   5.134   5.708  0.5212  0.0690 -0.4745
12039TIP3    H157532   1.831   5.223   5.723  0.0014  0.3203 -0.8729
12039TIP3    H257533   1.877   5.087   5.675  0.9875  0.1769  0.4357
12040TIP3   OH257534   0.119   2.821   3.394  0.0350 -0.2749 -0.4061
12040TIP3    H157535   0.082   2.869   3.468 -0.3674  0.0001 -0.7770
12040TIP3    H257536   0.073   2.857   3.317 -0.6050 -1.5554 -0.6586
12041TIP3   OH257537   4.534   5.371  12.772  0.2969  0.4646  0.1475
12041TIP3    H157538   4.568   5.460  12.775 -0.3563  0.6922  1.3656
12041TIP3    H257539   4.589   5.322  12.834  0.0319  0.2479  0.2137
12042TIP3   OH257540   1.150   6.235  12.972  0.0087 -0.2776  0.1698
12042TIP3    H157541   1.065   6.200  12.944 -1.2553  2.4181  0.3497
12042TIP3    H257542   1.160   6.204  13.062  0.8237 -3.2321 -0.8087
12043TIP3   OH257543   6.128   4.496   3.297  0.0196 -0.1049  0.3498
12043TIP3    H157544   6.043   4.485   3.254  0.7115  0.2081 -1.1622
12043TIP3    H257545   6.158   4.583   3.270  0.7169 -0.1057  1.0690
12044TIP3   OH257546   3.598   4.124   2.938 -0.3408 -0.0074  0.0241
12044TIP3    H157547   3.661   4.124   2.867  1.2367  0.1132  1.3758
12044TIP3    H257548   3.515   4.148   2.897  0.3973 -0.5489 -1.8539
12045TIP3   OH257549   1.139   6.572   0.934 -0.1639  0.1849  0.0365
12045TIP3    H157550   1.187   6.647   0.899  0.2396 -0.3621 -0.5990
12045TIP3    H257551   1.202   6.528   0.992 -0.2492  0.0836  0.0532
12046TIP3   OH257552   2.159   2.022  12.953  0.4177  0.2198  0.4094
12046TIP3    H157553   2.091   2.084  12.928  1.0170  0.5510 -0.4339
12046TIP3    H257554   2.241   2.066  12.929  1.0555  0.5548  2.9197
12047TIP3   OH257555   2.697   5.755  13.705 -0.2034 -0.3279  0.6619
12047TIP3    H157556   2.758   5.682  13.700 -0.7075 -0.6731 -1.0135
12047TIP3    H257557   2.667   5.755  13.796  0.4633 -1.6386  0.9055
12048TIP3   OH257558   0.664   4.321   2.076 -0.1608  0.1598  0.2667
12048TIP3    H157559   0.598   4.256   2.099 -1.9180  1.6501 -0.2970
12048TIP3    H257560   0.617   4.405   2.079  1.5618  1.2214 -0.7347
12049TIP3   OH257561   0.147   6.259   1.820 -0.3559 -0.0774  0.0266
12049TIP3    H157562   0.066   6.209   1.808  1.2050 -2.9763  0.5481
12049TIP3    H257563   0.149   6.319   1.745 -2.2741 -0.9648 -0.8138
12050TIP3   OH257564   0.019   1.479  15.820 -0.4095  0.0480 -0.6795
12050TIP3    H157565  -0.074   1.452  15.818 -0.2987 -0.3138 -1.0933
12050TIP3    H257566   0.020   1.558  15.874 -0.6795 -1.0943  1.0794
12051TIP3   OH257567   3.959   6.634  16.121  0.4406 -0.1404  0.5478
12051TIP3    H157568   3.922   6.710  16.077  1.6303  0.3326  0.3456
12051TIP3    H257569   3.922   6.559  16.075  0.7742  0.3434 -0.5254
12052TIP3   OH257570   3.877   6.151   6.084  0.0698  0.1370 -0.1673
12052TIP3    H157571   3.965   6.146   6.045 -0.7143 -0.7187 -1.9515
12052TIP3    H257572   3.845   6.061   6.083 -0.7898  0.4175  0.5940
12053TIP3   OH257573   1.191   4.997  14.303  0.2771  0.8278 -0.2939
12053TIP3    H157574   1.216   5.076  14.350 -0.2271  2.0581 -2.0135
12053TIP3    H257575   1.226   5.009  14.215  2.1810 -1.9244 -0.0437
12054TIP3   OH257576   0.522   3.844  11.351 -0.1236  0.0279  0.5650
12054TIP3    H157577   0.451   3.903  11.323  1.2669  1.9243  0.8360
12054TIP3    H257578   0.485   3.795  11.424 -1.4217  0.3604  0.1621
12055TIP3   OH257579   4.943   5.750  13.977  0.0989  0.3281  0.3708
12055TIP3    H157580   5.003   5.677  13.960  1.9817  1.5742  1.3030
12055TIP3    H257581   4.883   5.717  14.044  0.9500 -0.3762  0.8135
12056TIP3   OH257582   2.729   0.542  15.083 -0.5537 -0.0651 -0.3485
12056TIP3    H157583   2.799   0.589  15.129 -1.6354 -1.4726  3.1242
12056TIP3    H257584   2.760   0.451  15.079 -0.7287 -0.0740 -2.0553
12057TIP3   OH257585   4.139   6.406  16.581 -0.4769 -0.2701 -0.3306
12057TIP3    H157586   4.052   6.381  16.612 -0.1548 -1.9843 -0.7059
12057TIP3    H257587   4.199   6.358  16.639  0.1897 -0.3708 -1.0941
12058TIP3   OH257588   0.394   3.687  14.173 -0.5392  0.3409  0.3882
12058TIP3    H157589   0.371   3.668  14.082 -0.9718 -1.4546  0.8440
12058TIP3    H257590   0.317   3.662  14.223 -0.0985  0.7921  1.3134
12059TIP3   OH257591   0.728   2.811  16.934  0.5519 -0.1609 -0.0292
12059TIP3    H157592   0.689   2.784  16.851  1.7544 -1.3001 -0.2668
12059TIP3    H257593   0.749   2.903  16.922 -1.0544  0.2189 -0.2590
12060TIP3   OH257594   6.047   6.001   3.363  0.2419 -0.1398 -0.0723
12060TIP3    H157595   5.970   6.055   3.377  1.1859  1.0201  0.7502
12060TIP3    H257596   6.082   6.031   3.279 -0.7118 -1.3562 -0.9586
12061TIP3   OH257597   4.545   5.367  12.443  0.0217  0.4009  0.0028
12061TIP3    H157598   4.554   5.339  12.534 -1.0264 -0.3367 -0.0950
12061TIP3    H257599   4.480   5.308  12.406  0.2634  0.8341 -1.1731
12062TIP3   OH257600   4.987   0.906  11.610  0.1056  0.5849  0.0158
12062TIP3    H157601   4.988   0.962  11.532  0.9994 -1.2684 -1.3847
12062TIP3    H257602   5.051   0.945  11.669  1.2376  0.6675 -1.2220
12063TIP3   OH257603   6.463   1.234   4.550 -0.5376 -0.1757  0.2072
12063TIP3    H157604   6.420   1.152   4.574 -0.9105 -0.7252 -2.0582
12063TIP3    H257605   6.406   1.303   4.584 -0.8563 -0.8560  1.0838
12064TIP3   OH257606   5.481   2.941   0.538  0.0231 -0.3735  0.5230
12064TIP3    H157607   5.469   2.847   0.552 -0.8594 -0.1013  1.7408
12064TIP3    H257608   5.393   2.975   0.524  0.3875  0.2150 -0.3956
12065TIP3   OH257609   4.807   6.411  14.978 -0.0714  0.1146  0.1593
12065TIP3    H157610   4.788   6.331  14.929  0.4783 -0.7599  1.3299
12065TIP3    H257611   4.769   6.481  14.925  0.7650 -0.7451 -1.6692
12066TIP3   OH257612   2.158   4.046  12.835 -0.2749 -0.1349  0.2184
12066TIP3    H157613   2.206   4.101  12.772 -0.1812  0.0992  0.4920
12066TIP3    H257614   2.208   4.054  12.917 -0.4420 -0.3758  0.3439
12067TIP3   OH257615   4.519   4.819   6.296 -0.1870  0.2715 -0.6375
12067TIP3    H157616   4.524   4.727   6.323  1.9615  1.1002  2.3549
12067TIP3    H257617   4.604   4.838   6.258 -0.0117  1.3742  0.2411
12068TIP3   OH257618   3.377   1.923  11.749 -0.5446  0.0565 -0.8465
12068TIP3    H157619   3.425   1.990  11.701 -0.7870 -0.7288 -2.2376
12068TIP3    H257620   3.302   1.969  11.786 -0.8088  0.5357 -1.9316
12069TIP3   OH257621   5.888   1.178   4.622 -0.4123 -0.4869 -0.5507
12069TIP3    H157622   5.871   1.088   4.593  0.6457 -0.6951 -0.5644
12069TIP3    H257623   5.889   1.172   4.718 -0.0508 -0.5577 -0.5555
12070TIP3   OH257624   5.678   5.589   1.730 -0.4940  0.2681 -0.0839
12070TIP3    H157625   5.612   5.586   1.661 -0.6500 -1.2291  0.1012
12070TIP3    H257626   5.627   5.592   1.812 -0.3583 -1.3749  0.0773
12071TIP3   OH257627   4.142   2.897  12.259  0.1259  0.0173 -0.0626
12071TIP3    H157628   4.065   2.848  12.288 -0.8123  0.3109 -1.8894
12071TIP3    H257629   4.216   2.840  12.281 -0.4179  0.2556  2.8668
12072TIP3   OH257630   5.485   1.853   2.897  1.0027 -0.2434  0.0853
12072TIP3    H157631   5.441   1.927   2.856  0.7567  0.1886  1.0911
12072TIP3    H257632   5.571   1.849   2.854  1.6904  1.7046  1.1416
12073TIP3   OH257633   5.905   1.866   0.336 -0.7086  0.0730  0.2867
12073TIP3    H157634   5.810   1.879   0.326 -0.6545  0.4987  0.3073
12073TIP3    H257635   5.942   1.953   0.328 -0.2742 -0.1508 -0.1740
12074TIP3   OH257636   2.747   4.536  12.746 -0.0379 -0.5215 -0.1973
12074TIP3    H157637   2.803   4.522  12.823 -0.7864 -0.7426  0.3225
12074TIP3    H257638   2.684   4.602  12.774 -0.7693 -1.1363 -0.3705
12075TIP3   OH257639   4.557   4.166   3.197 -0.0094  0.2476 -0.3270
12075TIP3    H157640   4.519   4.095   3.249 -0.6020  1.1028  0.4609
12075TIP3    H257641   4.481   4.217   3.168  0.4525  1.2675  0.1904
12076TIP3   OH257642   4.932   6.136  14.459 -0.1308 -0.4817  0.5793
12076TIP3    H157643   5.016   6.129  14.505 -0.8043  0.0325  1.9460
12076TIP3    H257644   4.951   6.191  14.383  0.8285 -0.6332  0.6889
12077TIP3   OH257645   1.248   0.759  15.457  0.0001 -0.2050 -0.5199
12077TIP3    H157646   1.307   0.816  15.505 -0.4945  0.1084 -0.2821
12077TIP3    H257647   1.293   0.742  15.374  0.4872 -0.0905 -0.2834
12078TIP3   OH257648   6.181   1.674  13.516 -0.2650 -0.1106  0.4546
12078TIP3    H157649   6.244   1.680  13.444 -2.0790  2.3936 -1.1045
12078TIP3    H257650   6.113   1.615  13.483 -0.5356  0.1326  0.5689
12079TIP3   OH257651   4.816   5.540   5.310 -0.1911  0.4169 -0.2166
12079TIP3    H157652   4.874   5.606   5.347  1.5389 -0.9756 -0.2781
12079TIP3    H257653   4.824   5.551   5.215 -0.1981  0.3592 -0.2239
12080TIP3   OH257654   3.696   2.297   0.045 -0.2094 -0.1670  0.0453
12080TIP3    H157655   3.639   2.346   0.104  0.7423  0.4003  0.5177
12080TIP3    H257656   3.636   2.246  -0.010 -1.2311  1.4262 -0.3879
12081TIP3   OH257657   6.599   2.802  12.557 -0.6143  1.0631 -0.1124
12081TIP3    H157658   6.504   2.806  12.552 -0.6739  0.6182  0.5419
12081TIP3    H257659   6.628   2.810  12.466 -1.3528 -0.4126 -0.5141
12082TIP3   OH257660   2.569   3.659  10.207  0.0238 -0.0821  1.0229
12082TIP3    H157661   2.615   3.689  10.285 -0.9184  0.7534  1.2851
12082TIP3    H257662   2.486   3.708  10.208  0.3216  0.5645 -0.9058
12083TIP3   OH257663   2.267   6.567  17.068  0.2926 -0.4000 -0.4187
12083TIP3    H157664   2.294   6.638  17.011  0.1650  0.3366  0.4116
12083TIP3    H257665   2.338   6.558  17.131 -0.9670  1.0393  1.3069
12084TIP3   OH257666   3.069   3.525   3.190  0.0336  0.5096 -0.6060
12084TIP3    H157667   3.155   3.508   3.229  0.8483  0.0395 -2.4617
12084TIP3    H257668   3.011   3.542   3.264  1.3527 -0.8318  0.8078
12085TIP3   OH257669   2.923   3.025  13.601 -0.1340 -0.0727 -0.1541
12085TIP3    H157670   2.991   3.092  13.598 -0.9326  0.7426 -0.9262
12085TIP3    H257671   2.968   2.944  13.624  0.8987  0.6788  0.5223
12086TIP3   OH257672   0.834   4.751   0.798 -0.2876 -0.4306  0.3433
12086TIP3    H157673   0.761   4.800   0.835  1.2180  0.4546  2.2659
12086TIP3    H257674   0.820   4.661   0.827 -1.8711 -0.8071 -1.3669
12087TIP3   OH257675   5.267   0.926  12.497  0.2923 -0.3713 -0.4694
12087TIP3    H157676   5.323   0.944  12.422  1.4371 -0.8229  0.2474
12087TIP3    H257677   5.315   0.861  12.548 -0.8785 -0.7574  0.1873
12088TIP3   OH257678   0.187   6.425   2.572 -0.5207 -0.3091 -0.2115
12088TIP3    H157679   0.255   6.410   2.507 -0.8087 -0.3648 -0.5042
12088TIP3    H257680   0.125   6.483   2.529 -1.0577 -0.8840 -0.2303
12089TIP3   OH257681   0.045   1.114   3.318  0.7538 -0.0561  0.9986
12089TIP3    H157682  -0.023   1.142   3.380  0.2894 -2.0611  1.4561
12089TIP3    H257683   0.054   1.021   3.334  0.6971 -0.6408 -1.9061
12090TIP3   OH257684   1.872   0.820  15.468 -0.1355  0.1987  0.3238
12090TIP3    H157685   1.926   0.873  15.410 -0.9299 -0.8197 -1.4200
12090TIP3    H257686   1.830   0.884  15.526 -0.1507  1.3814 -0.9333
12091TIP3   OH257687   2.452   0.028   2.333  0.2282 -0.3219 -0.4341
12091TIP3    H157688   2.395   0.087   2.383  0.5713 -0.0595 -0.3498
12091TIP3    H257689   2.539   0.068   2.338  0.4423 -0.7720 -0.4776
12092TIP3   OH257690   4.142   1.871  13.096 -0.0323 -0.4101 -0.5918
12092TIP3    H157691   4.076   1.830  13.041 -0.4743  0.3552 -0.6462
12092TIP3    H257692   4.201   1.799  13.120 -1.7083 -1.4151  0.6925
12093TIP3   OH257693   4.167   1.652   3.988 -0.5429 -0.0138 -0.0045
12093TIP3    H157694   4.081   1.667   4.027 -0.4553 -2.4873  1.2825
12093TIP3    H257695   4.220   1.725   4.019 -1.4123 -0.0220  1.5990
12094TIP3   OH257696   4.657   1.296   6.609  0.1908  0.2934  0.4784
12094TIP3    H157697   4.720   1.318   6.678 -0.6633 -1.7255  2.0133
12094TIP3    H257698   4.704   1.235   6.553  0.7818  1.6920 -0.5908
12095TIP3   OH257699   3.003   0.907  11.071 -0.2905  0.1386  0.5963
12095TIP3    H157700   2.947   0.842  11.031 -1.3401  0.9113  0.7585
12095TIP3    H257701   2.979   0.906  11.164 -0.8108  1.2028  0.4949
12096TIP3   OH257702   4.040   6.580  11.879 -0.2366  0.3324  0.0890
12096TIP3    H157703   4.082   6.602  11.962  1.1801 -0.0732 -0.4969
12096TIP3    H257704   4.016   6.665  11.841  1.9954  0.7294 -0.5333
12097TIP3   OH257705   1.672   0.770  12.485  0.1875  0.8587  0.6311
12097TIP3    H157706   1.681   0.675  12.471 -2.1583  0.6091  0.5729
12097TIP3    H257707   1.755   0.795  12.526  0.5651 -1.3626  1.3864
12098TIP3   OH257708   1.022   6.107  12.027 -0.5036 -0.3786  0.3743
12098TIP3    H157709   0.998   6.190  12.069 -0.0757 -0.2160  0.3100
12098TIP3    H257710   1.032   6.130  11.934  0.2378 -0.3633  0.4525
12099TIP3   OH257711   0.183   5.192  14.235 -0.6609 -0.0116  0.2777
12099TIP3    H157712   0.209   5.163  14.147  0.2051  0.8145  0.2379
12099TIP3    H257713   0.204   5.285  14.236  0.9861 -0.3484  1.9312
12100TIP3   OH257714   5.238   5.189  14.169  0.2239 -0.1516 -0.2543
12100TIP3    H157715   5.150   5.176  14.134  1.4211 -0.8032 -3.3680
12100TIP3    H257716   5.249   5.120  14.234 -1.1528 -0.8180 -0.6973
12101TIP3   OH257717   1.157   6.309  16.609  0.2248 -0.2101  0.1131
12101TIP3    H157718   1.217   6.378  16.581  1.5864  0.3844  3.8927
12101TIP3    H257719   1.214   6.242  16.649 -1.4375 -0.4891  2.1926
12102TIP3   OH257720   5.475   0.461   1.291 -0.7923 -0.0520 -0.1435
12102TIP3    H157721   5.459   0.394   1.358 -0.4572  1.0729  1.1158
12102TIP3    H257722   5.456   0.543   1.335 -2.1256  0.6585 -1.9429
12103TIP3   OH257723   4.700   2.329  12.584 -0.1333  0.4907 -0.3449
12103TIP3    H157724   4.758   2.315  12.659  1.2185  0.9176 -1.2796
12103TIP3    H257725   4.629   2.383  12.619 -0.8230 -1.2693  1.1870
12104TIP3   OH257726   4.631   1.482   2.396 -0.5838  0.2441  0.5707
12104TIP3    H157727   4.670   1.475   2.309  0.1947  0.9269  0.8552
12104TIP3    H257728   4.537   1.483   2.380 -0.5355 -1.6777 -0.1112
12105TIP3   OH257729   5.543   3.999  15.550  0.1027  0.2775  0.1891
12105TIP3    H157730   5.593   3.933  15.501 -0.3001  0.5414 -0.5978
12105TIP3    H257731   5.501   3.949  15.620 -0.1915 -0.3044 -0.3890
12106TIP3   OH257732   3.458   4.007  12.375  0.0748 -0.3430 -0.6831
12106TIP3    H157733   3.504   4.084  12.342 -1.2662  0.4241 -0.7990
12106TIP3    H257734   3.378   4.002  12.322 -1.2433 -0.1537  1.1811
12107TIP3   OH257735   4.270   1.077   6.147  0.1588  0.3371  0.3699
12107TIP3    H157736   4.299   1.025   6.072 -0.9258  1.2988 -0.7484
12107TIP3    H257737   4.176   1.058   6.154  0.0503  1.0436  0.8481
12108TIP3   OH257738   4.777   4.565   0.763 -0.0675  0.5452  0.0171
12108TIP3    H157739   4.743   4.650   0.790  1.4814  1.2112 -0.0169
12108TIP3    H257740   4.867   4.564   0.794  1.1672  0.4594 -3.1369
12109TIP3   OH257741   3.005   2.186   3.885  0.7150  0.3494  0.0125
12109TIP3    H157742   2.942   2.113   3.886  0.2160  0.7349 -1.4220
12109TIP3    H257743   2.968   2.249   3.825  2.4211  0.6566 -0.7776
12110TIP3   OH257744   6.716   0.557  12.657 -0.1851  0.2735 -0.0713
12110TIP3    H157745   6.671   0.607  12.589  1.2014  2.8529  0.7810
12110TIP3    H257746   6.784   0.508  12.610  0.5213  1.7395 -0.6200
12111TIP3   OH257747   5.044   4.892   4.739  0.5405  0.0182 -0.4726
12111TIP3    H157748   5.053   4.912   4.646  1.7242  1.0664 -0.1601
12111TIP3    H257749   4.963   4.937   4.765  0.1597 -0.3507 -0.9973
12112TIP3   OH257750   6.327   5.805   1.382  0.2338 -0.2439 -1.1337
12112TIP3    H157751   6.298   5.815   1.291  0.3372 -0.2882 -1.1716
12112TIP3    H257752   6.406   5.750   1.376 -0.4834 -1.3430 -0.9163
12113TIP3   OH257753   4.516   2.906  12.396  0.7768 -0.1283 -0.2486
12113TIP3    H157754   4.581   2.886  12.463 -1.4029 -2.1227  1.4901
12113TIP3    H257755   4.510   3.001  12.395  2.5259  0.0327  0.6952
12114TIP3   OH257756   6.046   2.716  12.498  0.5989  0.3071 -0.0834
12114TIP3    H157757   6.066   2.679  12.584 -1.1755 -0.5551 -0.0041
12114TIP3    H257758   5.962   2.760  12.510  0.7151  0.8569 -1.2029
12115TIP3   OH257759   5.305   2.702   1.572  0.2573 -0.3447 -0.3585
12115TIP3    H157760   5.396   2.682   1.551 -0.3490 -2.4366 -1.2546
12115TIP3    H257761   5.285   2.779   1.518  1.0577 -0.8263 -1.3952
12116TIP3   OH257762   2.827   4.202   4.924  0.1415  0.6337  0.3747
12116TIP3    H157763   2.755   4.156   4.967  0.9939 -0.9502  0.1934
12116TIP3    H257764   2.897   4.137   4.917  0.3074  0.9696 -2.7329
12117TIP3   OH257765   2.726   4.924   5.812 -0.4642  0.0598  0.0399
12117TIP3    H157766   2.725   4.973   5.895 -1.9016 -0.4467  0.3495
12117TIP3    H257767   2.815   4.935   5.779 -0.5581  2.3805  0.3845
12118TIP3   OH257768   5.314   5.302   3.282  0.2531 -0.2798  0.4864
12118TIP3    H157769   5.294   5.361   3.355  2.2143 -0.1622  1.0093
12118TIP3    H257770   5.392   5.254   3.312  1.9587  0.7326 -2.0072
12119TIP3   OH257771   5.852   2.204   4.859 -0.2037 -0.3553 -0.2616
12119TIP3    H157772   5.892   2.234   4.777 -0.9922 -0.1991 -0.6042
12119TIP3    H257773   5.763   2.239   4.856 -0.2508 -0.3804  0.6541
12120TIP3   OH257774   2.925   2.174  10.310 -0.2642 -0.6368 -0.0684
12120TIP3    H157775   2.841   2.217  10.328 -0.1987  0.3300 -1.8553
12120TIP3    H257776   2.968   2.170  10.395 -1.8394 -0.5500  0.7742
12121TIP3   OH257777   2.088   1.846  14.045 -0.5011 -0.6749 -0.2859
12121TIP3    H157778   2.108   1.865  13.953 -0.1527 -2.2865 -0.5650
12121TIP3    H257779   2.007   1.894  14.062  0.0501  0.6006 -1.0774
12122TIP3   OH257780   5.568   3.476   2.117  0.1190  0.0508 -0.6228
12122TIP3    H157781   5.578   3.481   2.212 -0.6148  0.0073 -0.5431
12122TIP3    H257782   5.628   3.543   2.083  0.8170 -0.3231 -0.1625
12123TIP3   OH257783   0.615   5.852   4.015 -0.4885  0.2870 -0.1306
12123TIP3    H157784   0.533   5.897   3.993 -1.3164 -1.5945 -1.1186
12123TIP3    H257785   0.662   5.914   4.071 -2.5733  1.4205  0.4698
12124TIP3   OH257786   6.407   6.438   2.593 -0.5071  0.2750 -0.4363
12124TIP3    H157787   6.424   6.532   2.596 -1.8242  0.7112 -3.1435
12124TIP3    H257788   6.469   6.404   2.529 -0.3451 -0.6467  0.1881
12125TIP3   OH257789   2.123   0.590   0.858 -0.4060 -0.2606 -0.3384
12125TIP3    H157790   2.032   0.577   0.885  0.0877 -1.3359  0.9700
12125TIP3    H257791   2.127   0.557   0.768 -1.3904  0.1582 -0.5382
12126TIP3   OH257792   0.030   3.033  10.998 -0.1315  0.2573  0.2691
12126TIP3    H157793   0.103   3.086  10.966 -0.7067  0.6396 -0.4448
12126TIP3    H257794   0.014   2.969  10.929 -2.2364  1.9144 -0.8868
12127TIP3   OH257795   4.398   5.612  11.672  0.2196 -0.2558  0.1770
12127TIP3    H157796   4.476   5.557  11.665  0.1513 -0.3097 -0.1687
12127TIP3    H257797   4.332   5.567  11.619 -0.3419 -0.7215  1.2319
12128TIP3   OH257798   0.854   6.341   2.594 -0.3449  0.6758  0.1735
12128TIP3    H157799   0.907   6.375   2.666  0.9513 -1.0850  0.1335
12128TIP3    H257800   0.792   6.281   2.635 -0.4135  0.5865 -0.0558
12129TIP3   OH257801   4.878   2.566   6.071 -0.1090  0.6490  0.3340
12129TIP3    H157802   4.848   2.486   6.115 -0.7140  1.2835  1.1013
12129TIP3    H257803   4.804   2.627   6.078 -0.8819  0.2938 -2.9363
12130TIP3   OH257804   1.157   4.422   4.164 -0.4992 -0.0508 -0.1137
12130TIP3    H157805   1.157   4.377   4.079  1.0256 -1.0337  0.3597
12130TIP3    H257806   1.086   4.381   4.213 -2.5702  1.7176 -1.4366
12131TIP3   OH257807   5.235   0.765   5.972 -0.6688  0.2551  0.0027
12131TIP3    H157808   5.253   0.780   6.065  0.2419  2.0918 -0.4174
12131TIP3    H257809   5.147   0.800   5.958  0.1117  2.2914 -0.2519
12132TIP3   OH257810   0.595   5.932  13.547  0.0314 -0.2197  0.7114
12132TIP3    H157811   0.625   5.955  13.459  2.0625 -0.5417  1.2736
12132TIP3    H257812   0.507   5.897  13.534  1.4645 -3.4032 -1.6498
12133TIP3   OH257813   3.092   3.043  17.177 -0.2688 -0.8631  0.2300
12133TIP3    H157814   3.166   2.983  17.173 -0.4844 -1.1297  0.1891
12133TIP3    H257815   3.131   3.129  17.189 -0.0186 -1.2215  2.3233
12134TIP3   OH257816   5.217   2.590  15.307 -0.1612  0.0768 -0.4574
12134TIP3    H157817   5.208   2.495  15.317  0.4192  0.0035 -0.5943
12134TIP3    H257818   5.292   2.601  15.248  0.4605  0.6415  0.4167
12135TIP3   OH257819   3.433   2.682  13.508  0.0244 -0.6672  0.1355
12135TIP3    H157820   3.489   2.705  13.582  0.4393 -0.6117 -0.1925
12135TIP3    H257821   3.487   2.626  13.453 -0.5944 -1.4856  0.3369
12136TIP3   OH257822   6.666   4.988  15.762 -0.0463  0.6611  0.3813
12136TIP3    H157823   6.590   4.933  15.780  0.7416 -0.3422  0.6878
12136TIP3    H257824   6.672   5.046  15.838  0.0907  0.0588  0.8360
12137TIP3   OH257825   3.013   0.779   1.615 -0.5714  0.6114  0.1875
12137TIP3    H157826   3.088   0.777   1.556 -0.0279  2.5193  0.7636
12137TIP3    H257827   3.003   0.688   1.642  0.8664  0.1365 -0.7244
12138TIP3   OH257828   6.003   5.774   5.751 -0.5816 -0.5387 -0.4535
12138TIP3    H157829   5.983   5.828   5.828 -3.5081 -1.2439 -0.6028
12138TIP3    H257830   6.079   5.722   5.777 -1.3060 -0.5359  1.8624
12139TIP3   OH257831   4.596   0.630  13.296 -0.2394  0.0558 -0.3096
12139TIP3    H157832   4.678   0.665  13.262  0.8287 -0.2840  1.7368
12139TIP3    H257833   4.538   0.707  13.303  0.3012  0.5001 -0.6771
12140TIP3   OH257834   1.559   3.262  13.043  0.3009  0.1192 -0.0665
12140TIP3    H157835   1.584   3.322  12.973  2.3454  0.1675  0.6435
12140TIP3    H257836   1.502   3.314  13.099  0.7405  0.8923 -0.3183
12141TIP3   OH257837   5.208   0.513  11.380 -0.1818  0.0757 -0.0516
12141TIP3    H157838   5.123   0.550  11.357 -0.4917 -0.6236 -0.0555
12141TIP3    H257839   5.190   0.458  11.456  0.2800 -0.0299 -0.0185
12142TIP3   OH257840   0.932   4.728  14.500 -0.3347  0.4134 -0.3745
12142TIP3    H157841   0.885   4.688  14.573 -0.9832 -0.5574 -1.2905
12142TIP3    H257842   0.904   4.678  14.424  1.4397  0.4616 -1.0942
12143TIP3   OH257843   5.209   4.808  16.356 -0.2923  0.3040 -0.2376
12143TIP3    H157844   5.174   4.753  16.427 -1.5821  1.2034 -0.1393
12143TIP3    H257845   5.294   4.838  16.389  0.2874 -1.3343 -0.1602
12144TIP3   OH257846   5.050   6.345   3.459  0.0043  0.2819 -0.1973
12144TIP3    H157847   5.033   6.410   3.391  1.8580  1.5100  0.4394
12144TIP3    H257848   5.089   6.395   3.530  0.5519 -1.3951  0.7253
12145TIP3   OH257849   5.077   5.613  14.588  0.3330 -0.1880  0.1277
12145TIP3    H157850   5.131   5.535  14.573  0.6068 -0.0079  0.1853
12145TIP3    H257851   5.002   5.601  14.529  0.6549 -0.2224 -0.2831
12146TIP3   OH257852   2.478   5.353   2.672  0.0484 -0.4581 -0.5299
12146TIP3    H157853   2.560   5.385   2.709  0.0059 -0.0371 -0.7904
12146TIP3    H257854   2.469   5.264   2.706 -1.5824  0.9332  3.1198
12147TIP3   OH257855   5.664   4.307   2.929  0.6317 -0.0142 -0.1236
12147TIP3    H157856   5.693   4.380   2.984  1.1673  0.0044 -0.4257
12147TIP3    H257857   5.589   4.342   2.880  0.7331  0.2591 -0.0858
12148TIP3   OH257858   3.257   5.632   3.738  0.8611 -0.0269 -0.2951
12148TIP3    H157859   3.343   5.616   3.779  0.5057  2.3947  1.6358
12148TIP3    H257860   3.245   5.727   3.744 -3.2877 -0.4572  2.5206
12149TIP3   OH257861   5.102   2.298  15.057 -0.0757 -0.3595 -0.3559
12149TIP3    H157862   5.020   2.277  15.012 -1.1616 -0.2834  1.4875
12149TIP3    H257863   5.075   2.323  15.146  1.9586 -0.4244  0.3295
12150TIP3   OH257864   1.722   2.300   2.752 -0.0475  0.7539  0.6123
12150TIP3    H157865   1.789   2.287   2.820  0.6960  0.4778 -0.1577
12150TIP3    H257866   1.677   2.216   2.747  0.2228  0.6191  0.4230
12151TIP3   OH257867   5.425   4.126  14.111  0.3584  0.0670  0.1890
12151TIP3    H157868   5.493   4.135  14.044 -0.2677 -1.5438 -0.7104
12151TIP3    H257869   5.403   4.032  14.111  0.1754  0.0409  2.4952
12152TIP3   OH257870   0.506   4.496   4.629  0.2014 -0.1771  0.2565
12152TIP3    H157871   0.588   4.503   4.580  1.1070  0.4076  1.7635
12152TIP3    H257872   0.468   4.413   4.601  1.9295 -1.0570  0.4108
12153TIP3   OH257873   6.191   3.740  11.998 -0.0342  0.2246 -0.0503
12153TIP3    H157874   6.189   3.701  12.085 -0.0188 -1.0817 -0.6213
12153TIP3    H257875   6.179   3.667  11.938 -1.9019  1.3146 -1.1145
12154TIP3   OH257876   6.496   0.801  13.506  0.6770  0.2190  0.2730
12154TIP3    H157877   6.435   0.874  13.503 -0.4186 -0.6911 -1.6571
12154TIP3    H257878   6.441   0.723  13.495  1.9776 -0.7900  0.5970
12155TIP3   OH257879   0.090   5.130  16.569 -0.2272 -0.3118 -0.8169
12155TIP3    H157880   0.168   5.084  16.598 -0.6872  0.0843  1.1544
12155TIP3    H257881   0.123   5.199  16.511  0.7783 -0.7971 -0.8388
12156TIP3   OH257882   5.240   2.990  12.464  0.3233 -0.1247  0.5306
12156TIP3    H157883   5.236   2.923  12.396 -0.0050  1.0705 -0.6956
12156TIP3    H257884   5.153   3.030  12.464  0.0919 -0.5581  2.1875
12157TIP3   OH257885   3.610   2.409  14.942 -0.4663 -0.4516  0.5861
12157TIP3    H157886   3.553   2.422  14.867 -0.6678 -0.1028  0.7972
12157TIP3    H257887   3.645   2.496  14.962 -0.3227 -0.5607  0.8197
12158TIP3   OH257888   4.453   3.688  11.913  0.6681 -0.1877  0.2206
12158TIP3    H157889   4.420   3.723  11.996  0.9422  0.6259 -0.0086
12158TIP3    H257890   4.537   3.647  11.937 -0.3135 -2.0109  0.7507
12159TIP3   OH257891   2.996   6.721  11.967 -0.3667 -0.1720  0.2339
12159TIP3    H157892   2.997   6.639  12.017 -2.7462  0.9480  2.3095
12159TIP3    H257893   2.916   6.716  11.915 -0.8331  1.0475  0.8105
12160TIP3   OH257894   0.189   6.717   4.596  0.1113 -0.2468 -0.4191
12160TIP3    H157895   0.243   6.783   4.553  2.5399  0.1841  2.9043
12160TIP3    H257896   0.249   6.643   4.611 -0.9873 -0.9108  0.9061
12161TIP3   OH257897   6.364   4.689  11.981  0.5815  0.1178  0.4780
12161TIP3    H157898   6.283   4.685  11.929  0.9983  1.1323 -0.2929
12161TIP3    H257899   6.416   4.614  11.951  0.1690 -0.2048  0.5595
12162TIP3   OH257900   3.224   0.297   1.682  0.0926  0.2136 -0.2133
12162TIP3    H157901   3.135   0.262   1.680 -0.8373  2.3607  0.4814
12162TIP3    H257902   3.234   0.332   1.771  2.3669 -1.6155  0.3603
12163TIP3   OH257903   2.882   6.524  15.708 -0.3164 -0.2084 -0.3987
12163TIP3    H157904   2.786   6.528  15.707 -0.3576 -1.1788 -1.0099
12163TIP3    H257905   2.906   6.491  15.622  0.7321  2.8922 -1.4327
12164TIP3   OH257906   6.097   4.089   2.292  0.3271  0.0516  0.4829
12164TIP3    H157907   6.160   4.132   2.233 -1.0688  0.4556 -0.7700
12164TIP3    H257908   6.021   4.146   2.291 -1.1580 -1.8281 -0.3380
12165TIP3   OH257909   1.309   3.199  12.237 -0.3414 -0.1322 -0.4033
12165TIP3    H157910   1.232   3.194  12.293  0.7617  0.3420  1.2191
12165TIP3    H257911   1.372   3.250  12.287  1.4265 -1.4137 -1.2107
12166TIP3   OH257912   5.285   0.296  10.936 -0.4930 -0.1761 -0.7181
12166TIP3    H157913   5.335   0.298  10.855 -1.0962  2.1008 -1.1168
12166TIP3    H257914   5.301   0.210  10.973  1.0183 -0.7042 -2.4904
12167TIP3   OH257915   0.719   0.416  16.478  0.0371 -0.0960  0.2443
12167TIP3    H157916   0.691   0.325  16.477 -0.6956  0.1241 -0.4201
12167TIP3    H257917   0.665   0.457  16.546 -0.6856  0.1515 -0.4684
12168TIP3   OH257918   6.070   4.925   1.048 -0.2062  0.0072 -0.7559
12168TIP3    H157919   6.121   4.914   1.128  0.8864 -2.5284 -1.6823
12168TIP3    H257920   6.022   5.007   1.061  1.8105  0.9703  1.4249
12169TIP3   OH257921   5.164   1.339  11.584 -0.9164  0.1095  0.0484
12169TIP3    H157922   5.192   1.417  11.536  0.5103 -1.2977 -1.5466
12169TIP3    H257923   5.238   1.319  11.641 -0.9799 -0.4608 -0.0649
12170TIP3   OH257924   4.146   2.163   3.046 -0.4639 -0.0808 -0.2491
12170TIP3    H157925   4.174   2.075   3.023  2.1978  0.7595 -0.6400
12170TIP3    H257926   4.208   2.190   3.115 -1.7122  1.2077  0.4238
12171TIP3   OH257927   0.332   0.734   3.144 -0.7009  0.0674 -0.3997
12171TIP3    H157928   0.417   0.776   3.133 -0.4434 -0.3031  0.1331
12171TIP3    H257929   0.272   0.805   3.169 -0.0827 -0.0035  1.4064
12172TIP3   OH257930   6.271   3.178  15.673 -0.3354  0.3764  0.2525
12172TIP3    H157931   6.182   3.143  15.671 -0.6129  1.0587  0.4245
12172TIP3    H257932   6.318   3.127  15.607 -0.5420 -0.7851  0.9674
12173TIP3   OH257933   0.942   3.535  12.336 -0.4994 -0.3047  0.0469
12173TIP3    H157934   1.003   3.582  12.279  1.5225  1.2100  3.1804
12173TIP3    H257935   0.859   3.536  12.289  0.2890  3.3578 -1.6244
12174TIP3   OH257936   5.499   1.832  14.210  0.8417 -0.1967  0.1336
12174TIP3    H157937   5.446   1.774  14.263 -0.8163  2.0196  1.0556
12174TIP3    H257938   5.517   1.782  14.130  0.0740 -2.1674  1.1261
12175TIP3   OH257939   1.952   6.567   1.215 -0.5466  0.3479  0.0013
12175TIP3    H157940   1.918   6.520   1.291 -1.0427  1.7571  0.6773
12175TIP3    H257941   1.881   6.562   1.151  0.4534 -2.2039 -1.0420
12176TIP3   OH257942   3.302   1.545  15.315 -0.1998  0.5765 -0.0781
12176TIP3    H157943   3.389   1.511  15.294  0.7482  2.7452  0.0544
12176TIP3    H257944   3.316   1.638  15.334 -2.6478  1.1603 -0.7232
12177TIP3   OH257945   1.361   1.140   5.744 -0.4291  0.0697 -0.2234
12177TIP3    H157946   1.300   1.065   5.742 -1.8955  1.2054 -0.0037
12177TIP3    H257947   1.416   1.128   5.666 -1.2602 -0.7503 -0.7096
12178TIP3   OH257948   6.764   0.537  16.855 -0.0846  0.1104  0.0066
12178TIP3    H157949   6.778   0.475  16.927 -0.2612 -1.2190 -1.0737
12178TIP3    H257950   6.839   0.524  16.797 -0.2130  0.8052 -0.3248
12179TIP3   OH257951   4.445   5.295   0.339  0.2534 -0.3227 -0.0298
12179TIP3    H157952   4.456   5.229   0.408  2.6215 -0.5097 -0.4923
12179TIP3    H257953   4.404   5.248   0.267  2.1704 -1.4261 -0.4590
12180TIP3   OH257954   3.105   0.071   0.406  0.1943  0.3711  0.0095
12180TIP3    H157955   3.149  -0.013   0.422  0.9841  0.8883  0.6574
12180TIP3    H257956   3.126   0.124   0.483 -3.2547  0.0168  1.3718
12181TIP3   OH257957   4.653   4.852  12.706 -0.3007  0.0877 -0.1944
12181TIP3    H157958   4.698   4.903  12.638 -0.5010  0.7390  0.1628
12181TIP3    H257959   4.702   4.871  12.786 -1.2579  0.8703  0.2161
12182TIP3   OH257960   4.296   1.395   6.090 -0.0466 -0.4513 -0.1006
12182TIP3    H157961   4.248   1.338   6.030 -0.0850 -0.7108  0.1781
12182TIP3    H257962   4.273   1.364   6.177 -0.6427  0.4457  0.0811
12183TIP3   OH257963   0.126   2.588   5.847 -0.3098 -0.0724  0.1206
12183TIP3    H157964   0.165   2.501   5.845  0.1783  0.1527 -0.9988
12183TIP3    H257965   0.196   2.647   5.818 -1.2938  0.3961 -1.4451
12184TIP3   OH257966   2.147   1.775   3.901  0.2867 -0.3410 -0.3197
12184TIP3    H157967   2.055   1.765   3.925  0.2910 -1.5028 -0.7363
12184TIP3    H257968   2.194   1.714   3.958  0.8067  0.2301 -0.1238
12185TIP3   OH257969   3.113   3.208   1.514  0.0213  0.2473 -0.2380
12185TIP3    H157970   3.168   3.265   1.567  0.4697 -0.5622  0.1852
12185TIP3    H257971   3.171   3.137   1.487 -1.7052 -3.2776  4.1084
12186TIP3   OH257972   2.703   0.257   2.847  0.2126  0.3218  0.1617
12186TIP3    H157973   2.705   0.167   2.815  1.0917  0.0550  0.8948
12186TIP3    H257974   2.625   0.262   2.902  1.0262 -0.5012  1.4482
12187TIP3   OH257975   6.259   0.129   6.183 -0.5671 -0.0478  0.4399
12187TIP3    H157976   6.316   0.101   6.255  0.6649  0.5668 -0.2585
12187TIP3    H257977   6.232   0.218   6.207 -0.6596 -0.0759  0.4393
12188TIP3   OH257978   1.916   1.050   4.616  0.3930  0.0979  0.8773
12188TIP3    H157979   1.826   1.082   4.609  0.4281 -0.1636 -1.9744
12188TIP3    H257980   1.907   0.962   4.653 -0.5112  0.1936  0.9058
12189TIP3   OH257981   4.637   0.723   4.923  0.3505  0.6191 -0.0174
12189TIP3    H157982   4.675   0.698   4.839  2.3720  2.1658  0.3865
12189TIP3    H257983   4.606   0.812   4.910 -1.1004  0.1963  0.3550
12190TIP3   OH257984   3.907   3.881  15.144 -0.2771 -0.3332 -0.3100
12190TIP3    H157985   3.815   3.873  15.169 -0.0463 -1.2215  0.2913
12190TIP3    H257986   3.942   3.947  15.204 -0.5432  0.1284 -0.6469
12191TIP3   OH257987   2.653   1.303   2.392  0.6755  0.0657 -0.1134
12191TIP3    H157988   2.674   1.391   2.423 -2.3035  0.7585  0.2123
12191TIP3    H257989   2.640   1.313   2.298 -1.1160  0.3688  0.1257
12192TIP3   OH257990   0.412   2.457   1.324 -0.0162 -0.2117  0.7547
12192TIP3    H157991   0.369   2.505   1.252 -0.3369 -1.2881  0.2061
12192TIP3    H257992   0.470   2.522   1.364  0.5565  0.2963 -0.7963
12193TIP3   OH257993   1.591   5.003   0.003  0.5456  0.3868  0.0156
12193TIP3    H157994   1.505   5.034   0.030  0.0911 -0.3832 -0.5057
12193TIP3    H257995   1.625   5.073  -0.053  0.4646  0.9014  0.6006
12194TIP3   OH257996   3.763   0.169  13.363 -0.0863  0.5076 -0.7242
12194TIP3    H157997   3.706   0.208  13.429  1.2798  0.7638  0.3331
12194TIP3    H257998   3.702   0.121  13.305 -1.2016 -2.0630  2.2512
12195TIP3   OH257999   6.545   1.562  11.541 -0.2871 -0.6232 -0.0127
12195TIP3    H158000   6.575   1.625  11.476 -1.7118 -0.4080 -0.4995
12195TIP3    H258001   6.619   1.552  11.601  0.5635  0.2112 -0.8902
12196TIP3   OH258002   6.460   1.378  16.107 -0.4842  0.3667  0.0566
12196TIP3    H158003   6.463   1.473  16.097 -0.4539  0.6913  2.4015
12196TIP3    H258004   6.394   1.348  16.045  0.9535  1.6256 -2.2224
12197TIP3   OH258005   3.683   6.124   1.124  0.1445  0.1491 -0.5807
12197TIP3    H158006   3.645   6.188   1.064 -0.6888 -1.0684 -1.3805
12197TIP3    H258007   3.663   6.159   1.211  1.1424  1.7989 -0.9647
12198TIP3   OH258008   2.595   3.180  15.447 -0.1342  0.8757  0.1267
12198TIP3    H158009   2.543   3.231  15.509  0.8649  3.2424 -0.8236
12198TIP3    H258010   2.643   3.246  15.397  0.1188 -0.9703 -2.2651
12199TIP3   OH258011   5.647   5.896  16.414  0.4700 -0.2712 -0.0476
12199TIP3    H158012   5.691   5.920  16.495 -0.1416  0.1541  0.1688
12199TIP3    H258013   5.628   5.980  16.371 -0.8248 -0.3884  0.2485
12200TIP3   OH258014   0.331   1.666   5.043 -0.2383  0.1942  0.3348
12200TIP3    H158015   0.267   1.658   4.972  1.1283 -0.6584 -0.8408
12200TIP3    H258016   0.403   1.716   5.005 -0.3466  1.5042  1.7759
12201TIP3   OH258017   6.195   6.423  16.914  1.1538 -0.5923  0.3127
12201TIP3    H158018   6.263   6.356  16.924  1.8617  0.0369 -0.1866
12201TIP3    H258019   6.239   6.496  16.870  1.3547  1.6047  3.7716
12202TIP3   OH258020   0.658   6.043  11.454 -0.1975  0.6938  0.1342
12202TIP3    H158021   0.583   5.988  11.428  0.0490  0.6697 -0.5409
12202TIP3    H258022   0.724   5.980  11.482  0.8013  0.4771 -2.4620
12203TIP3   OH258023   4.147   6.375  14.880  0.7073  0.0214  0.0608
12203TIP3    H158024   4.156   6.404  14.789  1.0921  1.6252  0.5641
12203TIP3    H258025   4.220   6.418  14.925 -0.5168  0.7486  1.4492
12204TIP3   OH258026   1.925   5.445  14.757  0.6072 -0.1226  0.1173
12204TIP3    H158027   1.896   5.478  14.842  0.1122  0.6120 -0.3316
12204TIP3    H258028   1.979   5.369  14.779 -0.7083 -0.8341  1.0269
12205TIP3   OH258029   5.389   1.675   4.376 -0.2929 -0.5039  0.7222
12205TIP3    H158030   5.329   1.736   4.332  1.6409  1.3275  0.4736
12205TIP3    H258031   5.359   1.674   4.467 -0.9592  0.0642  0.5176
12206TIP3   OH258032   2.562   6.327  13.190 -0.0135 -0.3552  0.6658
12206TIP3    H158033   2.546   6.269  13.264 -0.9521 -1.2137 -0.1741
12206TIP3    H258034   2.494   6.304  13.126 -0.7406  2.0046  0.4882
12207TIP3   OH258035   5.973   1.853  11.399  0.3692 -0.9991 -0.0731
12207TIP3    H158036   6.017   1.906  11.465 -0.4245 -1.1582  0.6063
12207TIP3    H258037   5.890   1.827  11.440 -0.2194 -0.9684 -1.1833
12208TIP3   OH258038   5.495   3.931   2.132  0.2087 -0.2066  0.4325
12208TIP3    H158039   5.457   3.894   2.052  1.3258 -1.1305  0.3134
12208TIP3    H258040   5.421   3.973   2.176 -0.7330 -1.0088 -0.3389
12209TIP3   OH258041   5.984   4.933   3.524  0.2945 -0.4987  0.4717
12209TIP3    H158042   5.954   4.878   3.451 -0.1875 -0.5208  0.6851
12209TIP3    H258043   5.912   4.931   3.587  0.2321  0.4585  0.4445
12210TIP3   OH258044   2.189   4.500   3.981 -0.6814 -0.4617 -0.2020
12210TIP3    H158045   2.183   4.409   3.952  0.8326 -0.5537 -0.3175
12210TIP3    H258046   2.225   4.547   3.906 -1.0441  0.1602  0.0027
12211TIP3   OH258047   0.289   1.470   6.294 -0.6573 -0.5494  0.8043
12211TIP3    H158048   0.216   1.435   6.345  0.3301 -1.9235  1.3450
12211TIP3    H258049   0.268   1.447   6.203 -0.6820 -1.3708  1.0108
12212TIP3   OH258050   1.373   2.948  15.659 -0.5401 -0.0501  0.1376
12212TIP3    H158051   1.339   2.859  15.668  3.6886 -2.1141 -1.5122
12212TIP3    H258052   1.426   2.946  15.580  0.8718  3.5764  0.7803
12213TIP3   OH258053   0.045   4.757  14.347 -1.0083  0.2804  0.1240
12213TIP3    H158054  -0.001   4.834  14.381 -0.1751  0.1283  1.7499
12213TIP3    H258055   0.117   4.793  14.295 -1.5531  0.5612 -0.4388
12214TIP3   OH258056   6.349   1.017  13.404 -0.2078  0.1140 -0.2226
12214TIP3    H158057   6.285   1.000  13.334 -2.9055  2.4750  1.4158
12214TIP3    H258058   6.298   1.061  13.472  3.1246  1.6896  1.4958
12215TIP3   OH258059   1.984   5.678   5.430  0.2803  0.5633 -0.3528
12215TIP3    H158060   1.895   5.677   5.466 -0.3857  0.0196 -1.9231
12215TIP3    H258061   2.012   5.769   5.436  0.5505  0.3632  2.2749
12216TIP3   OH258062   0.794   5.295  13.907  0.0531  0.0470  0.5276
12216TIP3    H158063   0.829   5.381  13.930 -0.1367  0.4002 -0.4459
12216TIP3    H258064   0.702   5.299  13.933  0.3749 -0.3736  1.7771
12217TIP3   OH258065   4.462   1.947  13.758  0.4297  0.2786 -0.2899
12217TIP3    H158066   4.387   1.888  13.767  1.2195 -0.5474  1.1247
12217TIP3    H258067   4.432   2.028  13.800 -0.2929  0.5755 -1.3344
12218TIP3   OH258068   3.792   2.906  11.887  0.8976  0.1914  0.3879
12218TIP3    H158069   3.830   2.937  11.969  0.4321  1.4189  0.1553
12218TIP3    H258070   3.860   2.921  11.821  0.8094  0.3776  0.3383
12219TIP3   OH258071   0.460   5.286  15.634  0.6125  0.1064 -0.2056
12219TIP3    H158072   0.408   5.360  15.666  1.4868  0.4217  0.5634
12219TIP3    H258073   0.551   5.313  15.650  0.9402 -1.6161  1.2478
12220TIP3   OH258074   4.683   0.372   4.762  0.0219 -0.3473 -0.4027
12220TIP3    H158075   4.765   0.363   4.811  0.5754 -1.2453 -1.4699
12220TIP3    H258076   4.690   0.458   4.719 -0.2077  0.1794  0.5803
12221TIP3   OH258077   4.404   4.679   0.562 -0.9277 -0.1132 -0.1251
12221TIP3    H158078   4.335   4.619   0.536 -0.0158 -1.5234  0.5636
12221TIP3    H258079   4.432   4.648   0.648  2.0232 -0.9613 -1.2727
12222TIP3   OH258080   0.260   1.899   0.520 -0.2991 -0.3927  0.4475
12222TIP3    H158081   0.345   1.878   0.481 -0.0614 -0.3724  0.9492
12222TIP3    H258082   0.235   1.981   0.478  0.7894  0.5747  1.6083
12223TIP3   OH258083   3.621   1.235  16.264  0.1719  0.0192 -0.0722
12223TIP3    H158084   3.592   1.325  16.265  0.0293 -0.0016 -1.1358
12223TIP3    H258085   3.704   1.237  16.217  1.1978 -0.1322  1.6325
12224TIP3   OH258086   3.694   2.343   6.666  0.6303  0.5005 -0.1686
12224TIP3    H158087   3.695   2.268   6.726  1.5419 -1.1645 -2.1375
12224TIP3    H258088   3.603   2.350   6.638  0.4868  0.3464  0.2440
12225TIP3   OH258089   4.801   5.319  16.306 -0.7239  0.1137  0.4130
12225TIP3    H158090   4.793   5.332  16.401  0.5445 -1.3262  0.7595
12225TIP3    H258091   4.755   5.238  16.289 -1.0770  0.4483 -0.2406
12226TIP3   OH258092   3.675   4.419   1.114 -0.0407 -0.3196  0.4851
12226TIP3    H158093   3.596   4.430   1.061  1.2681 -0.1384 -1.5319
12226TIP3    H258094   3.721   4.346   1.073  0.4099 -1.0375  2.2152
12227TIP3   OH258095   5.858   3.729  13.896 -0.4648 -0.3696 -0.1923
12227TIP3    H158096   5.801   3.772  13.959  1.0464  1.8737 -0.2224
12227TIP3    H258097   5.943   3.725  13.941 -0.0439 -1.3222 -1.0516
12228TIP3   OH258098   6.306   0.619  13.408 -0.0062  0.8128  0.7145
12228TIP3    H158099   6.366   0.545  13.406 -0.3528  0.5089  1.3803
12228TIP3    H258100   6.282   0.633  13.316 -1.5160 -1.2194  0.7353
12229TIP3   OH258101   4.707   2.553   0.617  0.0991  0.6143 -0.6215
12229TIP3    H158102   4.787   2.598   0.643  0.1487  1.2635 -1.7983
12229TIP3    H258103   4.717   2.539   0.523 -1.0668  0.5057 -0.7446
12230TIP3   OH258104   5.600   1.313  16.165  0.3504 -0.6823  0.2012
12230TIP3    H158105   5.541   1.239  16.150  0.1732 -0.3963 -0.5794
12230TIP3    H258106   5.687   1.278  16.145  0.4518 -1.0763  1.2555
12231TIP3   OH258107   6.084   4.365   5.661 -0.1589 -0.1375  0.3106
12231TIP3    H158108   6.100   4.276   5.628  0.6377  0.1755 -0.1775
12231TIP3    H258109   6.171   4.405   5.664 -0.6093  0.9023 -0.2541
12232TIP3   OH258110   6.131   0.702  14.733  0.3948  0.5068  0.0843
12232TIP3    H158111   6.171   0.710  14.820 -1.9807  0.5107  1.2702
12232TIP3    H258112   6.156   0.616  14.702 -0.1178 -0.2133  1.5779
12233TIP3   OH258113   4.088   6.734  11.397  0.2685  0.0801  0.0950
12233TIP3    H158114   4.134   6.731  11.480 -0.7614  1.3169  0.7454
12233TIP3    H258115   4.135   6.800  11.345  0.7004 -0.4418 -0.1906
12234TIP3   OH258116   4.708   2.333   3.987 -0.2884  0.0721  0.5160
12234TIP3    H158117   4.716   2.418   3.944  0.2123 -0.6158 -0.8503
12234TIP3    H258118   4.757   2.274   3.930 -0.4275 -1.0886  1.5598
12235TIP3   OH258119   1.675   6.162  16.274  0.2625  0.0069  0.1889
12235TIP3    H158120   1.688   6.076  16.314 -1.1374 -0.4351 -0.2574
12235TIP3    H258121   1.674   6.145  16.180 -3.3944 -0.0807  0.1294
12236TIP3   OH258122   2.672   6.723   1.603  0.3782 -0.2132 -0.1370
12236TIP3    H158123   2.622   6.785   1.656  1.5731  0.6503  0.0313
12236TIP3    H258124   2.613   6.699   1.532 -0.9257 -0.6833  1.0626
12237TIP3   OH258125   5.881   2.785   4.268 -0.1555 -0.5217  0.6290
12237TIP3    H158126   5.932   2.717   4.224 -1.6184 -3.0466  2.5173
12237TIP3    H258127   5.930   2.803   4.349 -1.4451 -1.9877  1.8058
12238TIP3   OH258128   5.574   1.512   2.336  0.7966 -0.0799 -0.2149
12238TIP3    H158129   5.608   1.540   2.421  0.8142 -1.1592  0.1457
12238TIP3    H258130   5.606   1.422   2.326 -2.1420 -1.2837  0.2663
12239TIP3   OH258131   4.570   5.582  13.497  0.3443  0.3463  0.2738
12239TIP3    H158132   4.626   5.533  13.558 -1.1166 -0.2872  1.1537
12239TIP3    H258133   4.527   5.515  13.444 -0.2376  0.7688  0.1974
12240TIP3   OH258134   0.734   4.520  13.683  0.2687 -0.7105 -0.0594
12240TIP3    H158135   0.773   4.445  13.638  0.3609 -0.2633 -0.7245
12240TIP3    H258136   0.730   4.492  13.775  2.9507 -0.4328  0.2049
12241TIP3   OH258137   6.295   3.704   1.654 -0.2956 -0.3025  0.4626
12241TIP3    H158138   6.311   3.686   1.747  1.9634 -2.3994 -0.2135
12241TIP3    H258139   6.370   3.758   1.627 -1.1564  0.6515 -0.0709
12242TIP3   OH258140   0.528   0.805  13.890  0.5188  0.3304  0.7451
12242TIP3    H158141   0.621   0.815  13.867  0.3809  0.4085  0.2043
12242TIP3    H258142   0.508   0.881  13.943  1.1343 -0.4194  2.0941
12243TIP3   OH258143   0.714   5.053  17.246  0.0147 -0.7692  0.0112
12243TIP3    H158144   0.767   4.973  17.247 -1.5091 -1.8349 -0.0870
12243TIP3    H258145   0.629   5.024  17.212 -0.7205  0.8090  0.4278
12244TIP3   OH258146   3.697   2.822   5.750 -0.7872 -0.6845 -0.0325
12244TIP3    H158147   3.783   2.782   5.759 -1.8125 -2.5489  2.9072
12244TIP3    H258148   3.710   2.914   5.773  0.8495 -0.1126 -2.7293
12245TIP3   OH258149   1.239   2.909  10.940 -0.0207  0.2092  0.8528
12245TIP3    H158150   1.290   2.836  10.905  0.0161  0.1682  0.9904
12245TIP3    H258151   1.304   2.975  10.961 -0.0451  0.2420  0.8255
12246TIP3   OH258152   0.593   6.775   3.449  0.0602  0.3969  0.3504
12246TIP3    H158153   0.650   6.840   3.409 -1.2739  1.4409  0.0500
12246TIP3    H258154   0.562   6.721   3.376 -0.5738  0.8521  0.2712
12247TIP3   OH258155   6.575   0.006  12.555 -0.0776 -0.3177  0.0208
12247TIP3    H158156   6.595   0.064  12.481  1.4591 -2.4133 -1.3257
12247TIP3    H258157   6.599   0.057  12.632  0.0170  1.2848 -1.0026
12248TIP3   OH258158   3.241   0.606  10.748 -0.5039  0.1767  0.2285
12248TIP3    H158159   3.248   0.543  10.677 -0.3570 -0.8524  1.1306
12248TIP3    H258160   3.319   0.661  10.739  0.7317 -1.3757  0.9046
12249TIP3   OH258161   6.283   3.313   0.244  0.3097  0.2535  0.2852
12249TIP3    H158162   6.269   3.379   0.176  0.4946  0.2879  0.2812
12249TIP3    H258163   6.209   3.324   0.303  0.1965  0.2845  0.1389
12250TIP3   OH258164   4.107   4.266   6.220 -0.4562  0.2095 -0.4308
12250TIP3    H158165   4.078   4.251   6.130 -1.6871  1.7005 -0.3203
12250TIP3    H258166   4.042   4.326   6.256 -1.1241 -1.8766  2.0935
12251TIP3   OH258167   1.452   1.179   3.285 -0.0213  1.3647  0.3447
12251TIP3    H158168   1.470   1.240   3.357  0.5895  0.7392  0.7361
12251TIP3    H258169   1.524   1.116   3.288 -0.3158  0.9752 -0.4365
12252TIP3   OH258170   5.206   5.804   0.160 -0.0907  1.2157  0.4412
12252TIP3    H158171   5.127   5.750   0.158  0.9557 -0.3772 -0.5623
12252TIP3    H258172   5.249   5.787   0.076  0.3550  3.6045  0.1072
12253TIP3   OH258173   4.838   5.833   4.151 -0.0339  0.3489  0.0215
12253TIP3    H158174   4.754   5.814   4.109 -0.7700  2.4030  0.4492
12253TIP3    H258175   4.852   5.926   4.135  2.1493  0.0734  0.0399
12254TIP3   OH258176   2.084   1.152  12.857 -0.0289 -1.0653 -0.1920
12254TIP3    H158177   2.166   1.102  12.868  0.7687  0.3063  0.3444
12254TIP3    H258178   2.104   1.215  12.787 -1.0435 -1.5039 -0.8995
12255TIP3   OH258179   0.179   1.699  14.729  0.3546  0.1140 -0.6108
12255TIP3    H158180   0.275   1.696  14.733  0.3435 -0.8190 -0.9757
12255TIP3    H258181   0.157   1.786  14.763  1.2219 -0.4786  1.7157
12256TIP3   OH258182   0.753   2.785  14.369  0.1714  0.0387 -0.0471
12256TIP3    H158183   0.829   2.782  14.428  0.0610 -0.4729  0.0681
12256TIP3    H258184   0.747   2.877  14.343 -0.1835  0.4121  1.2760
12257TIP3   OH258185   3.282   1.621   4.751  0.1283  0.2083  0.3451
12257TIP3    H158186   3.285   1.711   4.781 -0.2073  0.0269  0.9333
12257TIP3    H258187   3.372   1.589   4.758  0.1040  0.2551  0.8911
12258TIP3   OH258188   1.013   5.517  16.338  0.0483 -0.2262 -0.0845
12258TIP3    H158189   0.925   5.504  16.303  0.5186 -1.5248 -0.8741
12258TIP3    H258190   1.011   5.605  16.376 -1.7778 -0.5012  0.5613
12259TIP3   OH258191   2.308   0.688   5.897 -0.4630  0.3336  0.0512
12259TIP3    H158192   2.324   0.751   5.967 -0.4759  0.1035  0.2638
12259TIP3    H258193   2.331   0.603   5.935 -1.3222  0.1006  0.0662
12260TIP3   OH258194   5.369   5.785   1.058  0.0339  0.2983  0.9586
12260TIP3    H158195   5.389   5.869   1.015 -0.0990 -0.2790 -0.2792
12260TIP3    H258196   5.442   5.770   1.117 -0.0342  1.3740  1.3378
12261TIP3   OH258197   3.643   0.888  15.409  0.1320  0.4375 -0.3352
12261TIP3    H158198   3.662   0.959  15.347 -1.0376 -0.6138 -1.9767
12261TIP3    H258199   3.719   0.886  15.467 -0.4222  4.0054  0.7700
12262TIP3   OH258200   3.922   5.783  17.264  0.0146  0.1009  0.2353
12262TIP3    H158201   3.886   5.731  17.336  1.5184  0.4745  1.3184
12262TIP3    H258202   3.863   5.768  17.190 -0.9994 -1.0995  1.2614
12263TIP3   OH258203   1.381   2.955  14.844 -0.0152 -0.2874 -0.4741
12263TIP3    H158204   1.455   2.924  14.792  0.8253  0.8213  0.0310
12263TIP3    H258205   1.404   2.934  14.935  0.3215  1.2623 -0.1743
12264TIP3   OH258206   6.561   4.716  16.885 -0.0514  0.0967  0.7814
12264TIP3    H158207   6.633   4.680  16.937  0.8022  0.8451  0.1466
12264TIP3    H258208   6.491   4.652  16.894  1.0993 -1.2616  0.4442
12265TIP3   OH258209   5.793   0.200  13.358 -0.3914  0.2102 -0.2991
12265TIP3    H158210   5.842   0.246  13.290  0.5782 -1.1159 -0.5417
12265TIP3    H258211   5.769   0.268  13.421  0.9916  1.0495 -0.6379
12266TIP3   OH258212   6.736   1.822  13.962 -0.4679 -0.6712  0.6466
12266TIP3    H158213   6.749   1.915  13.978  0.6056 -0.7186  0.1444
12266TIP3    H258214   6.641   1.810  13.963 -0.5910  0.1519  2.1821
12267TIP3   OH258215   6.704   4.675  14.140  0.1623 -0.0270 -0.1321
12267TIP3    H158216   6.704   4.580  14.126  2.2023 -0.0559 -0.2061
12267TIP3    H258217   6.743   4.687  14.226 -2.2957  0.6943  0.9824
12268TIP3   OH258218   2.376   5.292   2.326  0.6782  0.5049 -0.6338
12268TIP3    H158219   2.311   5.360   2.310 -1.6353 -1.2882  0.4367
12268TIP3    H258220   2.420   5.318   2.407 -2.0586 -0.3952  1.3219
12269TIP3   OH258221   5.356   5.016   2.627  0.2669 -0.3826 -0.3500
12269TIP3    H158222   5.350   5.110   2.638 -1.3172 -0.5722  0.5988
12269TIP3    H258223   5.441   4.992   2.666  0.8936  0.6811 -1.0277
12270TIP3   OH258224   2.785   4.185  11.870  0.2467 -0.3256 -0.5914
12270TIP3    H158225   2.765   4.134  11.792  0.5061  0.8741 -1.4705
12270TIP3    H258226   2.838   4.258  11.838 -0.5102  0.7586  0.5404
12271TIP3   OH258227   0.845   2.707   1.415 -0.2476 -0.0742 -0.2172
12271TIP3    H158228   0.853   2.718   1.320  0.8696  0.9782 -0.0296
12271TIP3    H258229   0.920   2.653   1.439  0.3429  0.9121  0.2357
12272TIP3   OH258230   1.736   5.707   5.556  0.1410  0.5025 -0.0579
12272TIP3    H158231   1.671   5.661   5.609  0.7111 -1.8274 -1.2592
12272TIP3    H258232   1.685   5.745   5.484 -0.0870  0.1093 -0.1060
12273TIP3   OH258233   2.965   2.704  13.597 -0.3774 -0.1087  0.6545
12273TIP3    H158234   2.883   2.704  13.646 -0.2734 -2.9743  0.9383
12273TIP3    H258235   2.939   2.677  13.508  0.1838 -0.4619  0.5988
12274TIP3   OH258236   6.341   1.836   3.836  0.7441 -0.5178  0.2738
12274TIP3    H158237   6.434   1.849   3.818  0.9600 -0.2801  1.4815
12274TIP3    H258238   6.298   1.858   3.753  1.6426  0.9216  0.1485
12275TIP3   OH258239   2.464   0.863   4.689  0.5253  0.1345  0.1263
12275TIP3    H158240   2.481   0.929   4.756  0.3238 -0.1810  0.4892
12275TIP3    H258241   2.467   0.912   4.606 -0.9659  0.8777  0.4681
12276TIP3   OH258242   4.714   3.973  13.008 -0.0882  0.0820 -0.0100
12276TIP3    H158243   4.794   3.950  13.057 -0.5958 -2.1738 -0.1520
12276TIP3    H258244   4.735   3.952  12.917 -0.4061  0.7453 -0.2376
12277TIP3   OH258245   4.801   6.485   3.594  0.0269 -0.1205 -0.6928
12277TIP3    H158246   4.869   6.552   3.600 -0.7946  0.5998  2.8377
12277TIP3    H258247   4.847   6.406   3.564  1.9133  0.9354 -0.7129
12278TIP3   OH258248   1.343   4.721  14.202 -0.4611 -0.2060  0.2711
12278TIP3    H158249   1.413   4.717  14.267  0.4650  2.0019 -0.5122
12278TIP3    H258250   1.263   4.734  14.254  0.2900  1.8126  1.0051
12279TIP3   OH258251   2.739   1.957   3.053  0.7586  0.2308  0.7261
12279TIP3    H158252   2.717   2.048   3.031  1.0986  0.2158  0.3037
12279TIP3    H258253   2.720   1.950   3.147 -1.0350  0.2131  0.4021
12280TIP3   OH258254   3.699   3.048  12.999 -0.2167 -0.2337  0.6560
12280TIP3    H158255   3.750   3.005  12.930  0.6344  1.1090  0.3965
12280TIP3    H258256   3.609   3.021  12.983  0.1497 -1.0082 -0.1692
12281TIP3   OH258257   5.599   4.678   0.275  0.3265  0.3166 -0.3819
12281TIP3    H158258   5.534   4.741   0.307 -0.1318 -1.1850  1.9201
12281TIP3    H258259   5.573   4.660   0.185 -1.2620  1.2510 -0.1466
12282TIP3   OH258260   3.602   5.407  16.083  0.2655  0.1635 -0.2789
12282TIP3    H158261   3.523   5.404  16.137  0.1305 -0.1143 -0.4860
12282TIP3    H258262   3.611   5.318  16.049  0.9353  0.0799  0.1113
12283TIP3   OH258263   4.300   6.626  16.801 -0.0659  0.1780  0.8495
12283TIP3    H158264   4.351   6.677  16.738 -1.8661  1.1231  0.0858
12283TIP3    H258265   4.274   6.690  16.868 -0.0267 -0.3486  1.3787
12284TIP3   OH258266   5.400   2.611  14.876 -0.2919  0.5082 -0.3935
12284TIP3    H158267   5.476   2.562  14.845 -0.8171 -0.2401 -0.5450
12284TIP3    H258268   5.390   2.584  14.967  0.1531  1.2944 -0.1061
12285TIP3   OH258269   3.065   4.063  11.611  0.2102  0.2325 -0.4896
12285TIP3    H158270   3.057   4.156  11.590  0.8058  0.9040  1.9105
12285TIP3    H258271   3.136   4.032  11.556  0.8788  1.5418 -0.4136
12286TIP3   OH258272   2.751   5.269   5.942  0.4250  0.0192 -0.1015
12286TIP3    H158273   2.680   5.212   5.910  0.6678 -0.0418 -0.5452
12286TIP3    H258274   2.822   5.208   5.963 -0.0791 -0.0400  1.5522
12287TIP3   OH258275   1.538   3.368  16.995  0.4702  0.1194  0.1878
12287TIP3    H158276   1.606   3.320  16.948  0.3190 -2.4598  2.3749
12287TIP3    H258277   1.576   3.385  17.082 -0.5485  1.4772  0.4024
12288TIP3   OH258278   0.222   0.864  12.278  0.2707 -0.0212  0.3601
12288TIP3    H158279   0.266   0.857  12.193  0.3403 -1.6519  0.5025
12288TIP3    H258280   0.129   0.851  12.259 -0.1628  2.7421  0.1540
12289TIP3   OH258281   0.149   5.481  10.504 -0.5505 -0.6912  0.4648
12289TIP3    H158282   0.234   5.438  10.517  0.4469  0.8992 -0.4006
12289TIP3    H258283   0.111   5.438  10.428  1.2523  0.9946 -1.5333
12290TIP3   OH258284   3.847   6.300   5.764  0.1395 -0.0028  0.1571
12290TIP3    H158285   3.904   6.229   5.736  2.0228  1.0108  1.1802
12290TIP3    H258286   3.857   6.303   5.859  0.3576  1.7657  0.1249
12291TIP3   OH258287   6.663   0.611   4.523 -0.1087  0.5050  0.7289
12291TIP3    H158288   6.747   0.570   4.500 -0.4345  0.4450 -0.4081
12291TIP3    H258289   6.687   0.683   4.582  0.8680  1.2092 -0.4826
12292TIP3   OH258290   2.778   2.872   5.488 -0.1140  0.4355 -0.4944
12292TIP3    H158291   2.684   2.881   5.507  0.3834 -0.2733  3.0559
12292TIP3    H258292   2.794   2.778   5.489  0.5841  0.5333 -1.5230
12293TIP3   OH258293   3.469   3.829   2.774  0.1119  0.6745 -0.1249
12293TIP3    H158294   3.377   3.846   2.795  0.0199  0.1076 -0.0388
12293TIP3    H258295   3.466   3.777   2.694  0.3268  0.2186  0.1547
12294TIP3   OH258296   6.000   0.253  16.765  0.4843  0.0460 -0.2593
12294TIP3    H158297   6.015   0.221  16.854  1.2493  0.1892 -0.3270
12294TIP3    H258298   6.066   0.207  16.712  0.7072  0.7203 -0.5790
12295TIP3   OH258299   5.538   2.339   0.555  0.2378 -0.3853 -0.1020
12295TIP3    H158300   5.624   2.370   0.584 -0.2199 -0.2339  1.1251
12295TIP3    H258301   5.509   2.279   0.623 -2.3794  2.5981  1.6869
12296TIP3   OH258302   5.854   2.682   5.756  0.2411 -0.4707  0.4119
12296TIP3    H158303   5.893   2.641   5.834  1.0647  2.0478  1.4364
12296TIP3    H258304   5.928   2.708   5.703 -0.1324  1.0836  0.5936
12297TIP3   OH258305   4.124   3.164  12.279  0.5626  0.5755  0.5755
12297TIP3    H158306   4.191   3.158  12.347 -2.2271  1.0301  3.6307
12297TIP3    H258307   4.090   3.075  12.272 -0.6711  0.9384  1.5502
12298TIP3   OH258308   5.166   0.470   3.530  0.3276 -0.6061 -0.1533
12298TIP3    H158309   5.220   0.537   3.489 -1.0224 -0.4818 -1.8277
12298TIP3    H258310   5.106   0.441   3.461 -0.5696 -1.9875  1.1345
12299TIP3   OH258311   6.311   2.067   4.063 -0.1935  0.2769 -0.3389
12299TIP3    H158312   6.300   1.997   3.998 -0.6933 -0.8827  0.9360
12299TIP3    H258313   6.273   2.144   4.022  2.1831  0.3824 -2.6265
12300TIP3   OH258314   0.605   6.346   1.189 -0.1207  0.0306 -0.6977
12300TIP3    H158315   0.565   6.419   1.143 -0.5553  0.6793  0.6437
12300TIP3    H258316   0.625   6.381   1.276  2.1267 -0.6758 -0.8779
12301TIP3   OH258317   6.491   2.638  14.501  0.2530  0.1939 -0.4028
12301TIP3    H158318   6.575   2.637  14.547  1.0305  1.6523 -1.7074
12301TIP3    H258319   6.429   2.668  14.567  0.6118 -1.4922  0.7540
12302TIP3   OH258320   0.377   0.080   5.004  0.1837 -0.6645  0.4387
12302TIP3    H158321   0.414   0.078   5.092  0.6915  0.4695  0.2665
12302TIP3    H258322   0.307   0.146   5.008 -0.0321 -0.8638  0.0780
12303TIP3   OH258323   2.486   3.719  14.907 -0.7928 -0.2059 -0.2111
12303TIP3    H158324   2.393   3.733  14.928 -1.5518 -1.9844 -2.0379
12303TIP3    H258325   2.495   3.624  14.901  1.1345 -0.0517 -0.2308
12304TIP3   OH258326   2.053   6.073   0.906 -0.6238  0.0978  0.1138
12304TIP3    H158327   2.002   6.098   0.829 -0.7312  1.2018  0.5309
12304TIP3    H258328   2.110   6.002   0.875 -1.1875  0.0233 -0.7880
12305TIP3   OH258329   2.538   1.676   5.272 -0.2868  0.5744 -0.6327
12305TIP3    H158330   2.560   1.730   5.348 -1.4714 -0.9654  0.8941
12305TIP3    H258331   2.574   1.590   5.292 -1.7841 -0.2225 -1.1633
12306TIP3   OH258332   3.408   4.865   1.842 -0.3779 -0.3652  0.2217
12306TIP3    H158333   3.371   4.793   1.791 -0.5294 -0.2997  0.2386
12306TIP3    H258334   3.498   4.837   1.861 -0.7581 -1.0237  1.1149
12307TIP3   OH258335   6.113   1.014  15.939  0.5863  0.4937 -0.3210
12307TIP3    H158336   6.135   1.103  15.969  1.8214  0.4085 -0.8749
12307TIP3    H258337   6.198   0.975  15.918  0.1284 -1.1424  0.7429
12308TIP3   OH258338   2.981   4.540   0.319 -0.2634  0.2244  0.0058
12308TIP3    H158339   3.057   4.489   0.346 -1.0757 -0.4963  1.0721
12308TIP3    H258340   3.017   4.623   0.288  0.9524 -0.0791  0.5316
12309TIP3   OH258341   3.767   1.922   2.532  0.3611  0.1756 -0.4251
12309TIP3    H158342   3.738   2.010   2.505 -1.1929  0.0385  0.7005
12309TIP3    H258343   3.815   1.937   2.614  1.6313  0.1347 -1.1263
12310TIP3   OH258344   3.949   3.639   6.375 -0.1174  0.0266 -0.0796
12310TIP3    H158345   3.863   3.663   6.342  0.4474  0.0979 -1.5639
12310TIP3    H258346   3.998   3.612   6.298  0.1768 -3.2844  1.0968
12311TIP3   OH258347   5.379   5.501   4.072 -0.3909 -0.0364  0.3189
12311TIP3    H158348   5.305   5.528   4.017  0.1477 -0.8952 -0.8862
12311TIP3    H258349   5.435   5.452   4.012  0.1368 -1.1610  1.6983
12312TIP3   OH258350   5.315   1.065   5.866  0.4078  0.5453 -0.8940
12312TIP3    H158351   5.302   1.093   5.957 -0.1617  0.3705 -0.9161
12312TIP3    H258352   5.285   0.974   5.865 -0.9075  0.9651 -1.5609
12313TIP3   OH258353   0.662   0.237  16.073  0.3089 -0.3946  0.2714
12313TIP3    H158354   0.651   0.186  15.993 -1.4989  0.8148 -0.3154
12313TIP3    H258355   0.635   0.178  16.143  0.5855 -1.0148 -0.1377
12314TIP3   OH258356   3.464   0.189   4.957  0.0792 -0.1027  0.0659
12314TIP3    H158357   3.513   0.126   5.010  1.2163 -0.7927 -1.7007
12314TIP3    H258358   3.426   0.250   5.021  1.8776 -0.5248  1.6329
12315TIP3   OH258359   2.932   4.954   4.258  0.2576  0.4089  0.3945
12315TIP3    H158360   2.846   4.913   4.251  1.6542 -2.7360  0.1219
12315TIP3    H258361   2.915   5.047   4.241 -3.2306  0.1753  1.6350
12316TIP3   OH258362   1.260   1.728   3.605 -0.0211 -0.0975 -0.5990
12316TIP3    H158363   1.221   1.644   3.629 -0.9908 -0.7165 -3.8796
12316TIP3    H258364   1.349   1.724   3.641 -0.6794 -1.6097  1.0295
12317TIP3   OH258365   0.863   2.970  11.852 -0.4970  0.0888 -0.1458
12317TIP3    H158366   0.847   3.029  11.778  0.4607  0.7850  0.1800
12317TIP3    H258367   0.779   2.929  11.869 -1.1023  1.1105 -0.6100
12318TIP3   OH258368   4.888   1.347  16.912  0.0303  0.0713 -0.0102
12318TIP3    H158369   4.835   1.283  16.865  0.0664  0.4732 -0.6049
12318TIP3    H258370   4.867   1.333  17.004 -0.4478 -0.3574 -0.1835
12319TIP3   OH258371   6.002   5.089   0.134  0.3774 -0.4705 -0.3225
12319TIP3    H158372   6.006   5.113   0.041 -0.6398  1.8812  0.1775
12319TIP3    H258373   5.909   5.095   0.156  0.7294  0.0775  1.1082
12320TIP3   OH258374   6.024   2.317   3.304 -1.0455  0.1291  0.2019
12320TIP3    H158375   6.079   2.303   3.227 -1.1711 -0.7400  0.2653
12320TIP3    H258376   5.968   2.391   3.280 -0.8420  0.0948 -0.4029
12321TIP3   OH258377   6.293   5.620  15.607 -1.0019 -0.0025 -0.0886
12321TIP3    H158378   6.366   5.562  15.585 -0.7473  0.3122 -0.0717
12321TIP3    H258379   6.312   5.702  15.561 -0.8298  0.4134  0.7031
12322TIP3   OH258380   4.739   3.468  11.833 -0.3455 -0.5491 -0.3786
12322TIP3    H158381   4.780   3.455  11.918 -1.7305  0.4803  0.4821
12322TIP3    H258382   4.647   3.445  11.846 -1.6914  3.9522 -0.2509
12323TIP3   OH258383   1.710   2.915   6.627 -0.9074  0.1166 -0.2923
12323TIP3    H158384   1.766   2.871   6.562 -1.2169 -0.2513 -0.3167
12323TIP3    H258385   1.722   2.864   6.707  0.8806  1.6459  0.4602
12324TIP3   OH258386   6.461   4.252   6.266  0.1922 -0.0686  0.3492
12324TIP3    H158387   6.483   4.162   6.245 -0.2665 -0.0420 -0.2601
12324TIP3    H258388   6.429   4.249   6.356 -0.4472 -0.6186  0.1104
12325TIP3   OH258389   5.647   4.945   2.203  0.1641  0.4216 -0.2192
12325TIP3    H158390   5.712   4.947   2.132  0.5748 -0.2034  0.1259
12325TIP3    H258391   5.628   5.037   2.220  0.5454  0.6021 -0.7041
12326TIP3   OH258392   3.886   0.565   2.811  0.2296 -0.4627  0.4234
12326TIP3    H158393   3.870   0.501   2.880  2.6698 -1.1927  0.3974
12326TIP3    H258394   3.933   0.636   2.854  0.3421 -0.1638 -0.1828
12327TIP3   OH258395   1.014   4.098  13.752  0.7884 -0.0594 -0.3944
12327TIP3    H158396   1.060   4.073  13.672  2.5296  1.1956  0.1578
12327TIP3    H258397   1.024   4.021  13.809 -0.6942 -1.0654 -1.4287
12328TIP3   OH258398   2.175   3.515   0.011  0.8070 -0.3097 -0.3084
12328TIP3    H158399   2.131   3.596   0.036 -2.7870 -2.4281  1.0596
12328TIP3    H258400   2.142   3.496  -0.077  1.0074 -0.6566 -0.3124
12329TIP3   OH258401   2.430   4.604  12.341 -0.6849 -0.3425  0.0708
12329TIP3    H158402   2.432   4.582  12.434 -0.4216 -1.8054 -0.2483
12329TIP3    H258403   2.358   4.550  12.306 -0.8842  0.3132 -0.5438
12330TIP3   OH258404   5.959   3.510   5.925 -0.5866  0.0308 -0.2055
12330TIP3    H158405   6.023   3.559   5.873 -0.1791 -2.1924 -1.9674
12330TIP3    H258406   6.010   3.467   5.993 -0.7097  0.7240  0.3385
12331TIP3   OH258407   4.280   5.410   2.401 -0.5146  0.7245 -0.2297
12331TIP3    H158408   4.331   5.332   2.423 -0.7754  0.4864 -0.4560
12331TIP3    H258409   4.339   5.483   2.417  0.9826  0.3671 -3.3224
12332TIP3   OH258410   6.210   0.406  13.666  0.1706  0.5379 -0.2314
12332TIP3    H158411   6.252   0.346  13.605  0.1090 -0.0905  0.3373
12332TIP3    H258412   6.275   0.474  13.682 -0.3701  1.5849 -2.2191
12333TIP3   OH258413   6.463   2.154   3.150  0.7300  0.0277  0.3496
12333TIP3    H158414   6.515   2.222   3.193  0.6102  0.1796  0.2561
12333TIP3    H258415   6.378   2.195   3.134  1.9075  1.3474 -3.5373
12334TIP3   OH258416   4.718   5.089   0.857 -0.1212 -0.1790 -0.0194
12334TIP3    H158417   4.712   5.162   0.919 -0.2815 -0.9224  0.8728
12334TIP3    H258418   4.809   5.089   0.828 -0.3169  0.8844 -0.6840
12335TIP3   OH258419   3.135   3.780   1.514 -0.2825  0.0966 -0.2285
12335TIP3    H158420   3.068   3.732   1.465  0.6768 -1.0753 -0.4418
12335TIP3    H258421   3.204   3.796   1.449  0.1648  0.2154  0.2733
12336TIP3   OH258422   1.922   4.620  15.690 -0.2728 -0.0225 -0.2524
12336TIP3    H158423   1.875   4.624  15.773  0.9215  0.4016  0.4086
12336TIP3    H258424   2.002   4.669  15.704 -0.4488  0.8226 -1.9366
12337TIP3   OH258425   6.430   0.979   0.975 -0.3267  0.0035 -0.2891
12337TIP3    H158426   6.495   1.043   1.003 -0.2935 -0.9703  2.0798
12337TIP3    H258427   6.348   1.029   0.970  0.1645  0.7688 -1.1942
12338TIP3   OH258428   3.625   1.757   6.017 -0.3014  0.4605 -0.0020
12338TIP3    H158429   3.716   1.726   6.018  0.2120  1.9031  0.5948
12338TIP3    H258430   3.631   1.844   5.979 -1.4097  0.6787  0.3088
12339TIP3   OH258431   4.588   4.630   1.055  0.4649 -0.3555  0.1483
12339TIP3    H158432   4.522   4.680   1.007  1.2185  0.5504  0.0261
12339TIP3    H258433   4.637   4.696   1.104  3.1450 -0.5780 -1.9779
12340TIP3   OH258434   4.336   0.237   6.204 -0.2015  0.4289 -0.3107
12340TIP3    H158435   4.249   0.229   6.244 -0.2400  0.4699 -0.3881
12340TIP3    H258436   4.384   0.294   6.264  0.2262 -0.7523  0.5155
12341TIP3   OH258437   4.815   4.862  17.160  0.4670 -0.2761 -0.8880
12341TIP3    H158438   4.846   4.893  17.076 -0.1154  0.3767 -0.8711
12341TIP3    H258439   4.726   4.829  17.143  0.0634  0.5252 -0.4061
12342TIP3   OH258440   0.924   3.346  15.105  0.1310 -0.8862 -0.1610
12342TIP3    H158441   0.910   3.330  15.012  1.4979  0.0106 -0.5494
12342TIP3    H258442   0.852   3.402  15.132  0.4578 -0.0465 -1.0117
12343TIP3   OH258443   5.870   5.565   0.471 -0.1327 -0.2735 -1.0274
12343TIP3    H158444   5.829   5.544   0.387 -0.3443  1.4808 -1.4109
12343TIP3    H258445   5.909   5.652   0.457  0.7251 -0.4098  0.3813
12344TIP3   OH258446   2.872   4.408  15.583 -0.0864 -0.0850  0.1345
12344TIP3    H158447   2.908   4.495  15.600  0.3411 -0.0751 -0.7505
12344TIP3    H258448   2.949   4.352  15.573 -0.2873 -0.1214 -1.4902
12345TIP3   OH258449   2.654   3.019   1.353  0.2876  0.3984 -0.2118
12345TIP3    H158450   2.687   3.073   1.282  0.6932 -0.4240 -0.6688
12345TIP3    H258451   2.694   3.056   1.432 -2.3295  3.0541 -0.0006
12346TIP3   OH258452   3.635   3.374   4.168 -0.2634 -0.4964 -0.0068
12346TIP3    H158453   3.575   3.299   4.174 -0.0308 -0.7677 -1.0177
12346TIP3    H258454   3.722   3.336   4.178 -0.2477  0.0378  2.7062
12347TIP3   OH258455   4.903   6.764  15.240 -0.0651  0.1150  0.1126
12347TIP3    H158456   4.850   6.684  15.232  0.3427 -0.1824  0.3384
12347TIP3    H258457   4.978   6.748  15.183 -0.9442  1.1588 -1.4197
12348TIP3   OH258458   2.147   5.050   3.697  0.0781 -0.2030  0.2603
12348TIP3    H158459   2.113   5.107   3.629 -0.6744  0.7126  1.3596
12348TIP3    H258460   2.230   5.017   3.662  0.4728  1.4571 -0.4728
12349TIP3   OH258461   1.960   2.895  11.042 -0.2641  0.3889 -0.5684
12349TIP3    H158462   1.872   2.877  11.074 -0.2101 -0.0914 -0.6879
12349TIP3    H258463   1.949   2.966  10.979 -0.5405  0.4475 -0.4559
12350TIP3   OH258464   5.139   3.075  11.700  0.7687  0.4910  0.1390
12350TIP3    H158465   5.077   3.132  11.746  1.3241  0.8913  0.4048
12350TIP3    H258466   5.085   3.026  11.638 -0.0676 -0.3776  1.5023
12351TIP3   OH258467   5.868   5.771   1.486 -0.3030  0.2120 -0.0368
12351TIP3    H158468   5.927   5.790   1.559 -1.2352  1.6638  0.3919
12351TIP3    H258469   5.919   5.714   1.428  1.3400  1.0211  0.5340
12352TIP3   OH258470   3.302   3.489   2.381 -0.2185 -0.0436 -0.2075
12352TIP3    H158471   3.373   3.429   2.358  0.2423 -0.2199  1.5177
12352TIP3    H258472   3.340   3.546   2.449 -1.8311 -0.4314  1.0816
12353TIP3   OH258473   2.332   5.498  12.488 -0.8124 -0.5370  0.3866
12353TIP3    H158474   2.332   5.425  12.550  1.0033 -0.9695 -0.0519
12353TIP3    H258475   2.376   5.463  12.410 -0.1408  0.9416  0.0701
12354TIP3   OH258476   3.077   0.743   5.222  0.2770  0.2359 -0.5272
12354TIP3    H158477   3.069   0.664   5.276  1.1547  0.2622 -0.3551
12354TIP3    H258478   2.991   0.752   5.180  0.2065 -0.8605 -0.6250
12355TIP3   OH258479   1.278   6.147  12.725  0.4508 -0.1992 -0.4048
12355TIP3    H158480   1.282   6.242  12.715 -1.1609 -0.1038 -0.3250
12355TIP3    H258481   1.279   6.133  12.820 -0.0898 -0.2137 -0.3997
12356TIP3   OH258482   5.790   3.715  11.911  0.6249 -0.1530  0.2218
12356TIP3    H158483   5.797   3.630  11.954  0.6647  0.7399  2.0639
12356TIP3    H258484   5.878   3.733  11.878  0.3952 -1.2330 -1.0813
12357TIP3   OH258485   5.741   0.825   4.780  0.4237 -0.8023 -0.0915
12357TIP3    H158486   5.746   0.780   4.696 -0.4042  0.8060 -1.0503
12357TIP3    H258487   5.765   0.758   4.845  1.1764 -2.0409 -1.5958
12358TIP3   OH258488   0.483   1.373  14.508  0.3738  0.5611 -0.1293
12358TIP3    H158489   0.524   1.365  14.422 -0.5416  1.7127 -0.6957
12358TIP3    H258490   0.424   1.298  14.514 -1.8661  2.0299 -1.8575
12359TIP3   OH258491   1.276   4.859  15.111  0.0264 -0.0204  0.1590
12359TIP3    H158492   1.345   4.813  15.063  1.1536  0.5653  1.1367
12359TIP3    H258493   1.308   4.949  15.117  0.0967 -0.1288  2.2257
12360TIP3   OH258494   0.737   5.111   0.481 -0.5261 -0.1959  0.0898
12360TIP3    H158495   0.711   5.083   0.393  2.1074 -0.0532 -0.8142
12360TIP3    H258496   0.752   5.030   0.529 -0.4633 -0.2907 -0.0880
12361TIP3   OH258497   1.968   1.854  16.974 -0.4158  0.2943  0.4184
12361TIP3    H158498   2.058   1.886  16.975 -0.5119  0.5604  1.6072
12361TIP3    H258499   1.917   1.927  16.940 -0.3197  0.5583  0.8289
12362TIP3   OH258500   1.842   4.287  16.897 -0.1483  0.2001 -0.3165
12362TIP3    H158501   1.859   4.275  16.991  1.2053  0.4606 -0.5114
12362TIP3    H258502   1.750   4.314  16.893 -0.3075 -0.0813  0.9081
12363TIP3   OH258503   3.315   0.523   5.453  0.3655 -0.4110  0.0331
12363TIP3    H158504   3.324   0.429   5.439 -0.1021 -0.0379 -3.4275
12363TIP3    H258505   3.221   0.539   5.456  0.3873  0.1665 -1.6172
12364TIP3   OH258506   1.553   4.263   2.659 -0.6938  0.4969  0.5104
12364TIP3    H158507   1.587   4.222   2.580  0.5451 -0.0189  1.2687
12364TIP3    H258508   1.590   4.351   2.658  0.6605 -0.0312  1.2844
12365TIP3   OH258509   0.727   0.817  12.621 -0.3434 -0.1163  0.3712
12365TIP3    H158510   0.694   0.895  12.666 -1.2974 -0.1689 -0.2166
12365TIP3    H258511   0.822   0.823  12.631 -0.4382  0.7812  0.8914
12366TIP3   OH258512   4.200   6.314   0.955 -0.3165  0.3000  0.4838
12366TIP3    H158513   4.221   6.364   0.876  0.3038 -1.1342 -0.2934
12366TIP3    H258514   4.106   6.299   0.950 -0.1561 -0.4279 -0.3747
12367TIP3   OH258515   1.206   4.093  14.526 -0.3997  0.0207  0.0576
12367TIP3    H158516   1.157   4.127  14.601  2.4140  1.3810  1.4341
12367TIP3    H258517   1.282   4.050  14.564  0.2014 -0.8894 -2.0129
12368TIP3   OH258518   5.052   2.725  16.480 -0.0177 -0.3029  0.2348
12368TIP3    H158519   5.006   2.711  16.397 -0.0209 -0.0582  0.1935
12368TIP3    H258520   5.135   2.678  16.470  0.1043 -0.0414 -0.0207
12369TIP3   OH258521   4.042   2.918  13.145  0.6199  0.1819 -0.1276
12369TIP3    H158522   4.068   2.828  13.166 -1.2198 -0.6329 -1.1134
12369TIP3    H258523   4.096   2.942  13.070  1.3385  0.0515  0.3310
12370TIP3   OH258524   6.628   2.694  15.587 -0.3973 -0.0097  0.0761
12370TIP3    H158525   6.713   2.652  15.599 -0.1660 -0.1576 -1.8133
12370TIP3    H258526   6.566   2.622  15.584 -0.1938 -0.1591 -1.5352
12371TIP3   OH258527   6.165   0.392  15.791 -0.7494  0.0546  0.1142
12371TIP3    H158528   6.113   0.427  15.863 -0.0321  0.9470  0.2233
12371TIP3    H258529   6.164   0.461  15.725  0.3305  0.1202  0.1433
12372TIP3   OH258530   1.466   0.936  16.709  0.0452  0.0775 -0.7213
12372TIP3    H158531   1.440   1.009  16.653 -3.7941 -0.2201  0.3613
12372TIP3    H258532   1.561   0.937  16.708  0.2121  4.8223 -1.0776
12373TIP3   OH258533   5.733   4.421   2.645 -0.1493 -0.3718  0.1588
12373TIP3    H158534   5.646   4.382   2.634  0.5834 -1.6959 -1.2106
12373TIP3    H258535   5.723   4.510   2.611 -0.6462 -0.9504 -1.2726
12374TIP3   OH258536   4.973   2.814  12.118 -0.5097  0.0382 -0.5994
12374TIP3    H158537   4.924   2.896  12.107  1.0153  0.8502 -1.8730
12374TIP3    H258538   5.020   2.804  12.035  0.3799 -1.4439  0.0497
12375TIP3   OH258539   3.332   4.180   1.590  0.1285 -0.2782  0.1242
12375TIP3    H158540   3.250   4.141   1.618 -0.6834 -0.2520 -2.0168
12375TIP3    H258541   3.332   4.268   1.627  0.1974 -0.9783  1.8441
12376TIP3   OH258542   2.716   1.081  11.571  0.1799  0.1513 -0.2446
12376TIP3    H158543   2.734   1.017  11.639  1.1168  1.4592  0.7929
12376TIP3    H258544   2.623   1.103  11.581 -0.2260 -1.2306 -0.8126
12377TIP3   OH258545   6.127   4.726  13.808 -0.2751 -0.2032  0.4622
12377TIP3    H158546   6.107   4.643  13.851 -2.7910  1.4804  2.9156
12377TIP3    H258547   6.047   4.747  13.758  0.4362  0.6348 -0.3694
12378TIP3   OH258548   4.506   2.374   4.587 -0.0591 -0.2962 -0.4857
12378TIP3    H158549   4.502   2.469   4.578 -0.5766 -0.2391  0.2370
12378TIP3    H258550   4.516   2.341   4.498 -0.5863  0.3990 -0.8069
12379TIP3   OH258551   5.662   3.016   2.840  0.1110  0.3387 -0.6730
12379TIP3    H158552   5.700   3.098   2.873 -1.5717  1.7115 -1.9503
12379TIP3    H258553   5.620   2.976   2.916 -1.1200  1.9346 -0.4574
12380TIP3   OH258554   5.628   3.128  12.188  0.4740 -0.2486  0.1522
12380TIP3    H158555   5.603   3.131  12.096  3.8150  2.2280 -0.8858
12380TIP3    H258556   5.560   3.178  12.234 -0.7507 -0.7281 -1.0752
12381TIP3   OH258557   5.438   1.182  12.589 -0.1524  0.8202  0.1953
12381TIP3    H158558   5.483   1.262  12.618  1.3417  0.1253 -0.1108
12381TIP3    H258559   5.504   1.113  12.597 -1.3280 -0.3470  0.1809
12382TIP3   OH258560   4.544   3.281   3.031 -0.0919  0.2659 -0.0224
12382TIP3    H158561   4.516   3.224   3.103  1.6560 -2.1160 -1.0945
12382TIP3    H258562   4.630   3.312   3.057 -0.8909  2.2964  0.4006
12383TIP3   OH258563   3.848   5.814   1.407 -0.7342  0.2038  0.3699
12383TIP3    H158564   3.915   5.824   1.475 -2.6549  1.3783  2.2014
12383TIP3    H258565   3.772   5.860   1.442 -2.1476 -0.0716 -2.1556
12384TIP3   OH258566   4.810   1.248   4.173  0.1865 -0.2576 -0.0248
12384TIP3    H158567   4.884   1.237   4.233 -1.0956 -0.8890  1.5424
12384TIP3    H258568   4.843   1.221   4.088  1.8706 -0.0861  0.5419
12385TIP3   OH258569   6.429   5.606  12.584 -0.8441  0.1712 -0.2448
12385TIP3    H158570   6.464   5.684  12.540 -1.7093 -0.1398 -1.5469
12385TIP3    H258571   6.367   5.640  12.648 -0.7273  0.5817 -0.3477
12386TIP3   OH258572   5.175   4.635  14.940  0.4531  0.3350 -0.1199
12386TIP3    H158573   5.103   4.662  14.996 -0.1517 -0.9816 -0.2347
12386TIP3    H258574   5.155   4.673  14.854 -1.9010 -2.6380 -1.0561
12387TIP3   OH258575   5.884   1.585  12.847 -0.2829 -0.2588  0.7874
12387TIP3    H158576   5.826   1.509  12.839 -0.3042 -0.4672  2.5713
12387TIP3    H258577   5.827   1.661  12.836 -0.7638 -0.4769  1.6758
12388TIP3   OH258578   4.369   5.610   4.410 -0.3614 -0.7801 -0.9191
12388TIP3    H158579   4.408   5.598   4.496  0.5130  1.2341 -0.9746
12388TIP3    H258580   4.395   5.533   4.360 -0.2600 -1.6138  0.3999
12389TIP3   OH258581   1.813   1.478  10.648  0.2080  0.6099  0.0215
12389TIP3    H158582   1.900   1.450  10.620  0.0308 -0.3415  0.3574
12389TIP3    H258583   1.828   1.525  10.730  0.3839  0.1842  0.2370
12390TIP3   OH258584   0.460   0.803   2.753  0.1847 -0.4289 -0.4668
12390TIP3    H158585   0.511   0.726   2.777 -1.1843 -1.1612  0.1929
12390TIP3    H258586   0.492   0.872   2.812  0.6884 -0.7642 -0.3439
12391TIP3   OH258587   4.231   1.248   1.835  0.3691 -0.4305 -0.3524
12391TIP3    H158588   4.264   1.337   1.819  0.0109 -0.2096  0.1356
12391TIP3    H258589   4.182   1.255   1.916 -0.0024 -0.9906 -0.5271
12392TIP3   OH258590   5.247   5.334  15.232  0.6915  0.1640 -0.3251
12392TIP3    H158591   5.182   5.300  15.294 -0.4195 -1.0831 -2.0841
12392TIP3    H258592   5.213   5.419  15.205 -1.1382 -1.1169 -2.3835
12393TIP3   OH258593   2.777   1.934  12.006 -0.2905  0.4724 -0.3883
12393TIP3    H158594   2.733   1.994  11.946 -1.1895 -0.2992 -0.5303
12393TIP3    H258595   2.860   1.914  11.963 -0.0187  1.5332 -0.3798
12394TIP3   OH258596   3.992   4.346   3.982  0.1627 -0.6203  0.4205
12394TIP3    H158597   3.971   4.277   3.919  1.0056  0.3054 -0.9062
12394TIP3    H258598   3.921   4.410   3.972  1.3934  0.5898 -1.2357
12395TIP3   OH258599   5.144   0.409   0.053 -0.1785 -0.3386  0.0482
12395TIP3    H158600   5.145   0.333   0.112 -1.3159  0.4846  1.1939
12395TIP3    H258601   5.053   0.414   0.023  0.6112 -1.5251 -2.9273
12396TIP3   OH258602   6.306   3.721  13.467 -0.2982  0.0114  0.0176
12396TIP3    H158603   6.319   3.793  13.406  0.3769 -0.0131  0.1191
12396TIP3    H258604   6.221   3.739  13.508 -1.3566 -0.6333 -1.7799
12397TIP3   OH258605   3.885   4.260  17.158 -0.0513 -0.4664  0.4194
12397TIP3    H158606   3.928   4.180  17.189  0.7532 -0.2894 -0.2182
12397TIP3    H258607   3.903   4.262  17.064 -0.0927  0.4500  0.4254
12398TIP3   OH258608   0.592   2.507   1.941  0.1653 -0.1589  0.1721
12398TIP3    H158609   0.631   2.421   1.930  0.1330 -0.0546 -0.8515
12398TIP3    H258610   0.632   2.542   2.020  0.2219 -1.0814  0.5612
12399TIP3   OH258611   0.553   0.044   1.800 -0.4902 -0.7269 -0.1261
12399TIP3    H158612   0.483   0.101   1.834 -0.5367 -0.8010 -0.0966
12399TIP3    H258613   0.580  -0.007   1.876  1.1544  0.8742  0.4340
12400TIP3   OH258614   2.163   2.931   2.902  0.1183 -0.0829 -0.0156
12400TIP3    H158615   2.177   2.837   2.905  1.6781  0.0570 -1.3823
12400TIP3    H258616   2.207   2.965   2.980 -0.3516 -0.4625  0.4187
12401TIP3   OH258617   2.788   3.513  10.835 -0.1877  0.1997  0.5472
12401TIP3    H158618   2.877   3.491  10.862  0.0095  0.2984 -0.0211
12401TIP3    H258619   2.740   3.430  10.840 -0.2413  0.2799  1.5217
12402TIP3   OH258620   3.266   2.001   3.005 -0.3885 -0.3146  0.1187
12402TIP3    H158621   3.332   1.941   3.040  0.5547  0.8088  0.3190
12402TIP3    H258622   3.239   2.054   3.080 -0.0235  0.5818 -0.3630
12403TIP3   OH258623   4.314   3.809  14.326  0.3675 -0.5081 -0.1717
12403TIP3    H158624   4.334   3.857  14.407  0.1862 -0.8323  0.0684
12403TIP3    H258625   4.389   3.825  14.269 -0.1632  0.9572 -0.5115
12404TIP3   OH258626   0.647   1.513   1.066 -0.3346 -0.1161 -0.1507
12404TIP3    H158627   0.729   1.464   1.053 -1.1367 -1.4110 -0.5499
12404TIP3    H258628   0.645   1.575   0.993 -0.4111 -1.1233 -1.0366
12405TIP3   OH258629   2.100   3.533   2.824  0.2122 -0.4107  0.6111
12405TIP3    H158630   2.128   3.525   2.915 -1.3757  2.5262  1.4885
12405TIP3    H258631   2.170   3.582   2.781 -0.7515  1.7992  1.3723
12406TIP3   OH258632   0.864   5.782  11.077  0.1407  0.2696  0.1674
12406TIP3    H158633   0.895   5.700  11.116  1.3729  0.4800 -0.3266
12406TIP3    H258634   0.781   5.759  11.035  0.8826 -0.9267 -0.6888
12407TIP3   OH258635   0.792   0.649  13.218 -0.7011  0.4197 -0.9093
12407TIP3    H158636   0.835   0.725  13.257  0.2038 -0.7499  0.5036
12407TIP3    H258637   0.823   0.647  13.128 -0.6830  1.6627 -0.9495
12408TIP3   OH258638   5.224   4.077  14.359 -0.1568  0.4959  0.1852
12408TIP3    H158639   5.180   4.046  14.280 -1.9980 -1.4339  1.8132
12408TIP3    H258640   5.160   4.136  14.400 -0.9061 -1.4711  2.0369
12409TIP3   OH258641   2.005   2.287   1.585  0.1085 -0.1596 -0.0101
12409TIP3    H158642   2.009   2.308   1.492 -1.8567  0.8341  0.0756
12409TIP3    H258643   2.096   2.276   1.611  0.6660 -1.5674 -2.2639
12410TIP3   OH258644   4.833   1.059  11.050 -0.3442  0.4505 -0.6748
12410TIP3    H158645   4.838   1.102  10.964  1.9804  1.7555  0.0324
12410TIP3    H258646   4.835   0.966  11.031  1.7680  0.7135 -2.0386
12411TIP3   OH258647   3.184   1.044   1.274  0.1465 -0.1065  0.0103
12411TIP3    H158648   3.094   1.049   1.307 -0.1410  1.5139 -0.8724
12411TIP3    H258649   3.210   1.136   1.264  1.6959 -0.5584 -0.2922
12412TIP3   OH258650   2.330   0.826  14.373 -0.1567  0.0932 -0.0489
12412TIP3    H158651   2.286   0.839  14.457 -1.2211  1.3144 -0.7640
12412TIP3    H258652   2.371   0.910  14.354 -1.6865  0.5256 -1.7094
12413TIP3   OH258653   2.694   1.537  12.641 -0.4094 -0.1403 -0.7147
12413TIP3    H158654   2.668   1.630  12.633 -1.4432 -0.4761 -1.5997
12413TIP3    H258655   2.697   1.506  12.550  1.8241 -0.5159 -0.5630
12414TIP3   OH258656   2.065   4.322   1.693  0.1161  0.1156  0.1883
12414TIP3    H158657   2.008   4.398   1.681  0.5423  0.6506  1.4076
12414TIP3    H258658   2.066   4.279   1.608  1.6024  2.6933 -1.2078
12415TIP3   OH258659   3.957   6.231   2.404  0.3809 -0.3604 -0.0593
12415TIP3    H158660   3.882   6.186   2.443 -0.1016  0.1232 -0.4139
12415TIP3    H258661   3.920   6.309   2.364  1.3520  0.9641  1.4925
12416TIP3   OH258662   2.330   6.388   1.246 -0.0448 -0.4887  0.2540
12416TIP3    H158663   2.290   6.301   1.253 -0.5340 -0.3686 -0.9345
12416TIP3    H258664   2.286   6.429   1.172  1.6260  0.0094 -0.4919
12417TIP3   OH258665   1.953   6.175  14.918  0.3331 -0.2165 -0.3547
12417TIP3    H158666   1.865   6.153  14.885  0.0456 -1.3898  1.0765
12417TIP3    H258667   1.947   6.268  14.940 -0.6437 -0.3411 -0.0211
12418TIP3   OH258668   3.236   4.591   5.107  0.0477  0.4337  0.5073
12418TIP3    H158669   3.196   4.666   5.151  0.9730  1.3842 -0.2071
12418TIP3    H258670   3.326   4.619   5.090  0.3600 -0.7764  0.0445
12419TIP3   OH258671   4.604   4.679   4.063  0.3401  0.2776 -0.0058
12419TIP3    H158672   4.582   4.680   4.157 -0.4474 -2.7980 -0.0717
12419TIP3    H258673   4.527   4.716   4.021  0.2795  0.7278  0.4799
12420TIP3   OH258674   3.505   1.972  15.237 -0.6866 -0.5767  0.2321
12420TIP3    H158675   3.560   2.047  15.216  0.2649 -0.9879  1.1792
12420TIP3    H258676   3.415   2.006  15.230 -0.2936  0.4404 -0.0906
12421TIP3   OH258677   0.721   4.984  14.636 -0.0652 -0.2339  0.0514
12421TIP3    H158678   0.805   5.015  14.602  0.0571 -1.1677 -0.5261
12421TIP3    H258679   0.696   5.050  14.701  0.8688  0.3172 -0.1276
12422TIP3   OH258680   1.053   5.825   5.198 -0.4010 -0.4286 -0.6359
12422TIP3    H158681   1.119   5.870   5.145  0.2848 -0.1624  0.4118
12422TIP3    H258682   1.018   5.757   5.141  1.0631 -0.8278 -1.0803
12423TIP3   OH258683   1.763   5.177  15.897 -0.1858 -0.4428 -0.5952
12423TIP3    H158684   1.839   5.119  15.900  0.4015  0.3408  1.3428
12423TIP3    H258685   1.689   5.120  15.916  0.1729 -0.8783 -0.4782
12424TIP3   OH258686   0.389   5.150   5.306  0.1291  0.0542  0.2414
12424TIP3    H158687   0.480   5.181   5.314  0.2359  0.0568 -0.8482
12424TIP3    H258688   0.390   5.063   5.346  0.5294  0.2141  0.5838
12425TIP3   OH258689   0.685   3.084  12.710  0.5361  0.2018  0.1181
12425TIP3    H158690   0.711   3.014  12.769  1.9268  0.4739 -0.1265
12425TIP3    H258691   0.645   3.150  12.767  1.9919  0.5268  0.8053
12426TIP3   OH258692   5.513   0.034  15.278 -0.3304  0.1984 -0.2026
12426TIP3    H158693   5.518   0.107  15.340  0.5572  1.6963 -1.9508
12426TIP3    H258694   5.427  -0.003  15.293 -0.2465  0.6365  1.7498
12427TIP3   OH258695   1.405   0.748  12.813 -0.2377  0.3753 -0.0376
12427TIP3    H158696   1.387   0.685  12.744  0.7744 -1.2928  1.1433
12427TIP3    H258697   1.453   0.818  12.770 -1.3211  0.3370 -1.3702
12428TIP3   OH258698   1.975   3.003   1.088 -0.1407  0.0737  0.4400
12428TIP3    H158699   2.030   3.072   1.127 -1.5381  0.7622  1.2674
12428TIP3    H258700   1.998   2.925   1.138 -0.1407  0.4241  1.0020
12429TIP3   OH258701   3.341   1.632  14.557  0.6094 -0.1785  0.3035
12429TIP3    H158702   3.292   1.554  14.586  0.1739  0.5686  1.7082
12429TIP3    H258703   3.419   1.597  14.515 -0.1449 -1.3901 -0.1560
12430TIP3   OH258704   1.068   6.649   3.026 -0.4854  0.8515  0.3962
12430TIP3    H158705   0.999   6.641   2.960 -0.0058 -2.7259  0.1038
12430TIP3    H258706   1.121   6.724   2.997 -1.6390  0.8606 -1.9508
12431TIP3   OH258707   5.711   2.852  13.837 -0.1808  0.4722  0.4565
12431TIP3    H158708   5.707   2.948  13.838 -2.8228  0.4388  0.9953
12431TIP3    H258709   5.803   2.831  13.856  0.7392  2.8662 -0.9378
12432TIP3   OH258710   1.107   6.255  16.283  0.5758 -0.0728  0.1961
12432TIP3    H158711   1.152   6.314  16.344  0.2820  2.4356 -1.8434
12432TIP3    H258712   1.022   6.239  16.323  1.4193 -0.8899  1.7707
12433TIP3   OH258713   5.267   0.578   0.484  0.2358 -0.6551  0.0310
12433TIP3    H158714   5.178   0.543   0.473 -0.2360  0.1244  1.1158
12433TIP3    H258715   5.307   0.523   0.551  1.9125 -3.2873 -2.8912
12434TIP3   OH258716   3.859   5.076   5.426  0.3425  0.1913 -0.2812
12434TIP3    H158717   3.878   5.084   5.333 -0.3383  0.3613 -0.4124
12434TIP3    H258718   3.784   5.135   5.440 -1.6426 -2.1754 -0.2668
12435TIP3   OH258719   2.655   2.000   3.349 -0.1018  0.4873 -0.5256
12435TIP3    H158720   2.693   1.931   3.403 -2.6128 -1.1501 -0.6751
12435TIP3    H258721   2.721   2.069   3.347  1.2239 -0.5545  2.3126
12436TIP3   OH258722   5.525   1.087   2.001  0.2738  0.4853  0.0875
12436TIP3    H158723   5.487   1.065   1.916 -0.6723 -1.6230  0.9899
12436TIP3    H258724   5.602   1.031   2.007 -1.0503 -1.2950  1.5964
12437TIP3   OH258725   0.203   1.117  16.531  0.2777 -0.0249 -0.3079
12437TIP3    H158726   0.156   1.182  16.584  0.9772 -0.7549  1.2596
12437TIP3    H258727   0.141   1.045  16.520  0.0804  0.1906 -0.6060
12438TIP3   OH258728   0.554   4.567   5.028  1.0776 -1.1696 -0.0073
12438TIP3    H158729   0.544   4.524   5.113  0.1462 -1.2173 -0.1401
12438TIP3    H258730   0.492   4.523   4.971  0.0712  0.3401 -0.1422
12439TIP3   OH258731   5.245   4.703  11.665  0.5916  0.1398  0.4005
12439TIP3    H158732   5.189   4.731  11.593  0.8728 -1.7414 -0.6111
12439TIP3    H258733   5.196   4.633  11.708  1.0629  0.2343  1.1073
12440TIP3   OH258734   1.629   0.613   3.744 -0.3652 -0.0722 -0.3777
12440TIP3    H158735   1.715   0.625   3.705 -0.4347 -1.1181 -0.8884
12440TIP3    H258736   1.629   0.523   3.777  0.0133  1.0088  2.9394
12441TIP3   OH258737   1.501   0.008  11.842 -0.7343  0.2489  0.1927
12441TIP3    H158738   1.504   0.102  11.859 -0.1949  0.3387 -0.3534
12441TIP3    H258739   1.564  -0.005  11.771 -1.5998 -0.3677 -0.4851
12442TIP3   OH258740   5.028   1.738  15.891  0.4574 -0.3845  0.1596
12442TIP3    H158741   5.123   1.725  15.898  0.8605  2.1077  0.1298
12442TIP3    H258742   4.997   1.727  15.981  0.6143 -1.8961  0.0680
12443TIP3   OH258743   2.020   2.471   4.985 -0.2142  0.2776  0.1529
12443TIP3    H158744   1.929   2.492   4.964 -0.8821 -0.4959  2.0785
12443TIP3    H258745   2.014   2.408   5.057  1.8222 -0.9667 -0.6823
12444TIP3   OH258746   2.767   1.506   3.883 -0.3298 -0.3772  0.3939
12444TIP3    H158747   2.749   1.450   3.807  1.3156 -0.7823  0.2636
12444TIP3    H258748   2.705   1.578   3.875 -0.5622 -0.7042 -1.0384
12445TIP3   OH258749   4.939   0.624  16.939 -0.0866 -0.0796 -0.1702
12445TIP3    H158750   4.982   0.680  17.004 -0.9707  2.4623 -1.6299
12445TIP3    H258751   4.951   0.535  16.973  1.4695  0.9337  2.2558
12446TIP3   OH258752   4.649   1.094   4.355  0.2423  0.4928 -1.1262
12446TIP3    H158753   4.599   1.134   4.284 -2.5598 -1.0616 -0.1851
12446TIP3    H258754   4.605   1.011   4.372  2.4759 -0.4473  0.6475
12447TIP3   OH258755   3.297   5.111  17.081 -0.0165 -0.4256 -0.3232
12447TIP3    H158756   3.377   5.063  17.063  0.2019 -0.2819  0.2349
12447TIP3    H258757   3.255   5.062  17.152  0.7161  0.7354  0.9710
12448TIP3   OH258758   4.292   3.625  13.828 -0.3229 -0.2671 -0.0939
12448TIP3    H158759   4.288   3.634  13.923 -1.1574  0.1008 -0.1529
12448TIP3    H258760   4.201   3.611  13.801  0.1285 -2.3835 -0.6621
12449TIP3   OH258761   1.183   1.135  10.807  0.1684 -0.4017 -0.0065
12449TIP3    H158762   1.220   1.050  10.829  1.7308  0.0156 -0.9200
12449TIP3    H258763   1.166   1.131  10.713  0.7496  0.4684 -0.1558
12450TIP3   OH258764   5.157   5.433   5.020 -0.2233  0.1116  0.2122
12450TIP3    H158765   5.106   5.416   5.099 -0.8573 -0.0498 -0.2224
12450TIP3    H258766   5.133   5.362   4.960 -0.0981  0.4824 -0.2865
12451TIP3   OH258767   1.771   4.150  16.038 -0.0583  0.4815  0.8267
12451TIP3    H158768   1.728   4.070  16.067 -0.3903  1.6167  3.7585
12451TIP3    H258769   1.716   4.181  15.965 -0.1804 -1.6288 -0.0438
12452TIP3   OH258770   1.668   6.637  15.892 -0.0804 -0.5023 -0.2316
12452TIP3    H158771   1.709   6.614  15.975  1.2030 -1.5816 -1.1196
12452TIP3    H258772   1.577   6.609  15.902  0.1911 -1.1547  0.6118
12453TIP3   OH258773   1.327   4.911   4.865  0.4933 -0.0677 -0.0280
12453TIP3    H158774   1.393   4.893   4.797  0.5447  3.1806 -0.9895
12453TIP3    H258775   1.326   4.831   4.918  4.0829 -0.8755 -0.8816
12454TIP3   OH258776   5.267   6.735   5.982 -0.1078 -0.1186  0.5962
12454TIP3    H158777   5.236   6.650   6.013 -2.2365  0.5435  0.4809
12454TIP3    H258778   5.188   6.779   5.951  1.2827  0.9321 -1.7733
12455TIP3   OH258779   0.333   6.122  12.344  0.9002 -0.2687 -0.6718
12455TIP3    H158780   0.415   6.096  12.386  1.0593  0.1087 -0.7519
12455TIP3    H258781   0.360   6.160  12.260  0.5614 -1.5024 -1.3706
12456TIP3   OH258782   2.935   1.460  15.754  0.2648  0.5007 -0.4629
12456TIP3    H158783   3.026   1.484  15.737  1.3460 -1.1845  2.3170
12456TIP3    H258784   2.940   1.369  15.784 -2.2181  0.6756  0.6909
12457TIP3   OH258785   1.441   0.905   0.679  0.1388  0.4110  0.2596
12457TIP3    H158786   1.419   0.987   0.636 -1.3588 -0.5688 -0.9507
12457TIP3    H258787   1.537   0.903   0.681  0.1989  1.6132 -0.8007
12458TIP3   OH258788   4.686   0.992   3.811  0.5642  0.2400 -0.1658
12458TIP3    H158789   4.741   1.014   3.887 -1.3441 -1.5917  1.9115
12458TIP3    H258790   4.688   0.896   3.808 -1.4697  0.1751 -0.8162
12459TIP3   OH258791   3.390   2.477   3.137 -0.2730 -0.0669 -0.5900
12459TIP3    H158792   3.436   2.406   3.094 -0.4772 -0.4234 -0.2306
12459TIP3    H258793   3.339   2.519   3.068  1.0493  0.7175 -1.1127
12460TIP3   OH258794   4.059   1.088   2.310  0.3110 -0.0390  0.2992
12460TIP3    H158795   4.104   1.103   2.394 -0.4840 -1.3683  1.0066
12460TIP3    H258796   4.123   1.041   2.257  0.6835  0.4508  0.3125
12461TIP3   OH258797   1.685   5.304   4.565  0.4488 -0.5425  0.2366
12461TIP3    H158798   1.673   5.367   4.494 -0.6336  1.2393  1.9181
12461TIP3    H258799   1.752   5.344   4.621  1.2505 -1.8966  0.2849
12462TIP3   OH258800   1.957   4.558  12.535  0.2186 -0.6670 -0.5050
12462TIP3    H158801   1.949   4.618  12.609  0.7260 -0.5678 -0.5273
12462TIP3    H258802   1.986   4.475  12.573 -1.5861 -1.2683 -0.3199
12463TIP3   OH258803   6.691   5.562  15.706 -0.5391  0.1157 -0.4012
12463TIP3    H158804   6.712   5.478  15.664 -0.1074 -0.2386  0.5052
12463TIP3    H258805   6.713   5.549  15.798  1.8991  1.9684 -0.6062
12464TIP3   OH258806   2.508   3.970  16.587 -0.2150  0.0686  0.2403
12464TIP3    H158807   2.503   3.909  16.514 -0.9495  0.4867 -0.0559
12464TIP3    H258808   2.458   4.047  16.559  1.5862  1.2857  0.1618
12465TIP3   OH258809   0.598   3.221   1.265 -0.6943 -0.1878  0.4703
12465TIP3    H158810   0.593   3.213   1.170 -2.9166 -0.6261  0.5661
12465TIP3    H258811   0.673   3.167   1.290 -0.1664 -0.1779 -1.0104
12466TIP3   OH258812   5.136   0.805  12.269 -0.0599 -0.1492  0.7628
12466TIP3    H158813   5.220   0.768  12.244  0.7266  2.9602 -1.9112
12466TIP3    H258814   5.148   0.836  12.359  0.7812 -1.8474  1.2796
12467TIP3   OH258815   3.088   1.999   4.914 -0.4156  0.2395 -0.0476
12467TIP3    H158816   3.062   1.926   4.857 -1.3593  0.8662 -0.4555
12467TIP3    H258817   3.048   2.076   4.873 -0.2761  0.8403  0.9227
12468TIP3   OH258818   3.961   5.630  16.580 -0.2189  0.0702  0.8320
12468TIP3    H158819   4.019   5.679  16.638 -1.0488  1.1758  0.7751
12468TIP3    H258820   3.885   5.687  16.569 -1.9194 -1.8477  1.9381
12469TIP3   OH258821   4.780   4.566   2.622  0.6951  0.4885  0.4491
12469TIP3    H158822   4.870   4.561   2.653  1.2158  2.0572 -0.6798
12469TIP3    H258823   4.781   4.520   2.538  0.8779  1.9266 -0.3733
12470TIP3   OH258824   6.274   5.209   1.221  0.2938 -0.0967 -0.1343
12470TIP3    H158825   6.333   5.284   1.227 -0.9068  0.7746  1.3115
12470TIP3    H258826   6.332   5.133   1.225  1.2994  0.7221  1.7970
12471TIP3   OH258827   5.309   2.333  15.573  0.1123 -0.3974  0.5828
12471TIP3    H158828   5.231   2.292  15.611 -0.4413 -1.4744 -1.5530
12471TIP3    H258829   5.341   2.392  15.642 -0.2137 -2.9097  3.0748
12472TIP3   OH258830   1.467   5.789  16.679  0.3463  1.0636 -0.1777
12472TIP3    H158831   1.449   5.831  16.763  1.5094  0.4630  0.4082
12472TIP3    H258832   1.501   5.702  16.703  0.3104  0.7298 -1.2820
12473TIP3   OH258833   6.524   4.300   0.550 -0.2731  0.4103  0.3561
12473TIP3    H158834   6.429   4.290   0.560 -0.4548  0.2542 -1.3284
12473TIP3    H258835   6.541   4.285   0.457  1.2437  1.7191  0.3647
12474TIP3   OH258836   3.952   5.924   5.137 -0.4265  0.7503  0.4249
12474TIP3    H158837   4.020   5.889   5.080 -2.1494 -0.5894 -0.9263
12474TIP3    H258838   3.989   5.918   5.225  1.0312 -0.3186 -0.2193
12475TIP3   OH258839   6.063   5.114  12.478  0.9878  0.0419 -0.9317
12475TIP3    H158840   6.122   5.057  12.430  1.0670 -0.1917 -0.5580
12475TIP3    H258841   6.120   5.179  12.519  0.8725  0.6026 -1.6305
12476TIP3   OH258842   0.590   3.308   2.195 -0.6099 -0.4614 -0.1587
12476TIP3    H158843   0.677   3.347   2.206 -1.4933  1.4453  0.3032
12476TIP3    H258844   0.585   3.242   2.264  0.6126 -0.8787 -0.4439
12477TIP3   OH258845   3.190   6.731  17.109  0.1358  0.4400 -0.4348
12477TIP3    H158846   3.227   6.818  17.095 -0.3351  1.0815  1.8428
12477TIP3    H258847   3.095   6.747  17.114 -0.1719 -0.5756 -2.1874
12478TIP3   OH258848   5.232   5.144   3.067 -0.2042  0.2966  0.4542
12478TIP3    H158849   5.273   5.189   3.141 -1.9556 -1.5226  2.6658
12478TIP3    H258850   5.240   5.206   2.994  2.8977  1.5891  1.7103
12479TIP3   OH258851   1.308   2.175  11.173  0.1597  0.4067 -0.1107
12479TIP3    H158852   1.351   2.209  11.095  1.3339  0.2109  0.4218
12479TIP3    H258853   1.278   2.253  11.220 -0.7542  0.5155 -0.8463
12480TIP3   OH258854   3.692   2.634   5.299  0.0847 -0.1783  0.0501
12480TIP3    H158855   3.718   2.585   5.378  1.8525 -0.2953 -0.5642
12480TIP3    H258856   3.769   2.685   5.276 -0.9543  1.1070 -0.6998
12481TIP3   OH258857   0.059   3.532   4.614 -0.1030 -0.1984  0.2133
12481TIP3    H158858  -0.014   3.584   4.581 -1.1217 -0.4614  1.9451
12481TIP3    H258859   0.117   3.523   4.539 -1.4614  0.6834 -1.0055
12482TIP3   OH258860   5.761   6.522  14.873 -0.0340  0.0522 -0.3270
12482TIP3    H158861   5.733   6.544  14.784 -0.0497 -1.2041 -0.6477
12482TIP3    H258862   5.838   6.467  14.862  0.4013  0.4813  0.4645
12483TIP3   OH258863   0.887   4.544  16.458  0.6993  0.1033 -0.4487
12483TIP3    H158864   0.793   4.558  16.470  0.6505 -0.5600 -0.0173
12483TIP3    H258865   0.912   4.607  16.391  0.4665  2.1285  1.2845
12484TIP3   OH258866   0.445   6.720   5.648  0.1844 -0.0590  0.0222
12484TIP3    H158867   0.530   6.720   5.605  0.0875  1.9424 -0.2810
12484TIP3    H258868   0.395   6.652   5.603  1.0138  0.0306 -1.0811
12485TIP3   OH258869   3.665   2.863  15.890 -0.2468  0.3951 -0.4531
12485TIP3    H158870   3.579   2.904  15.893  0.4590  1.9010  0.8112
12485TIP3    H258871   3.696   2.866  15.981  0.6010 -1.3537 -0.6362
12486TIP3   OH258872   4.137   6.737   1.359 -0.0039 -0.3559 -0.5062
12486TIP3    H158873   4.190   6.695   1.426  2.7913  2.1060 -0.9531
12486TIP3    H258874   4.165   6.696   1.277  0.5163  0.3001 -0.6584
12487TIP3   OH258875   1.495   0.806  14.874 -0.3821  0.5269  0.0370
12487TIP3    H158876   1.505   0.714  14.848 -1.1477  0.3378  0.3724
12487TIP3    H258877   1.406   0.811  14.908 -0.8592  1.7321 -1.3124
12488TIP3   OH258878   1.334   1.310  10.974  0.0355 -0.3770 -0.0128
12488TIP3    H158879   1.299   1.285  11.059  1.4151 -0.3810  0.5728
12488TIP3    H258880   1.284   1.257  10.911 -0.5412 -0.8551  0.8261
12489TIP3   OH258881   6.136   3.684   4.897 -0.7767 -0.1626  0.2054
12489TIP3    H158882   6.100   3.713   4.981  2.6043 -0.1018  1.8036
12489TIP3    H258883   6.102   3.595   4.886 -2.0408  0.1740  1.1158
12490TIP3   OH258884   6.746   0.475   1.337 -0.1690  0.0219 -0.2870
12490TIP3    H158885   6.753   0.451   1.430  0.0554 -1.9895 -0.7702
12490TIP3    H258886   6.653   0.488   1.322 -0.1985  0.4384  0.2352
12491TIP3   OH258887   0.043   3.606  15.855 -0.0358  0.3498 -0.1021
12491TIP3    H158888  -0.006   3.683  15.883  0.2514  0.3633  0.3745
12491TIP3    H258889   0.135   3.634  15.859 -0.0164  0.6872 -2.0455
12492TIP3   OH258890   6.145   3.189   3.501  0.4059  0.1100  0.4224
12492TIP3    H158891   6.212   3.130   3.466  1.0440  1.9932 -1.7731
12492TIP3    H258892   6.194   3.256   3.548 -0.1558  0.0608  1.0906
12493TIP3   OH258893   4.019   5.374  12.366  0.2576 -0.2944 -0.1440
12493TIP3    H158894   3.992   5.466  12.365 -1.7211 -0.6534  3.4372
12493TIP3    H258895   3.951   5.329  12.316 -1.0472 -0.1895  1.4643
12494TIP3   OH258896   5.036   2.019   2.428  0.2304 -0.3741 -0.0558
12494TIP3    H158897   4.979   1.998   2.502  1.3645 -0.9728  0.6845
12494TIP3    H258898   4.982   2.004   2.350 -1.0903  0.5881  0.6431
12495TIP3   OH258899   3.541   1.167  14.016 -0.5074 -0.2878 -0.1447
12495TIP3    H158900   3.635   1.172  14.033 -0.3088 -1.9671 -0.5667
12495TIP3    H258901   3.503   1.126  14.094 -0.7326 -0.5818 -0.4030
12496TIP3   OH258902   0.907   6.668  13.806 -0.1560 -0.1000 -0.4568
12496TIP3    H158903   0.824   6.669  13.853 -0.3372 -0.3991 -0.7600
12496TIP3    H258904   0.908   6.582  13.763  0.9246 -0.6598  0.6307
12497TIP3   OH258905   6.746   1.358   2.074  0.4256  0.1358 -0.7075
12497TIP3    H158906   6.791   1.314   2.002  0.1954 -0.7027 -0.3595
12497TIP3    H258907   6.693   1.426   2.033 -1.1717 -1.5354 -1.5369
12498TIP3   OH258908   4.504   3.514  17.257 -0.2055 -0.1252 -0.0613
12498TIP3    H158909   4.441   3.505  17.329 -0.2321 -0.2623 -0.1022
12498TIP3    H258910   4.463   3.470  17.183  0.7514 -1.9500  0.4159
12499TIP3   OH258911   5.980   2.050   3.339  0.4315 -0.5545 -0.2653
12499TIP3    H158912   6.061   2.013   3.304  0.8161  0.2983 -0.2942
12499TIP3    H258913   5.992   2.145   3.333  0.0845 -0.3985  1.2444
12500TIP3   OH258914   5.854   0.319  15.776 -0.3951  0.1178 -1.1517
12500TIP3    H158915   5.791   0.376  15.819 -0.0821 -0.5300  0.2201
12500TIP3    H258916   5.936   0.368  15.777 -0.5629  0.4228 -1.7483
12501TIP3   OH258917   2.438   4.480  12.654 -0.1202  0.0254  0.4092
12501TIP3    H158918   2.497   4.502  12.726 -1.0833  0.1390  1.1913
12501TIP3    H258919   2.482   4.410  12.607  0.0164 -0.8796  1.8072
12502TIP3   OH258920   6.232   1.069  13.641  0.4883  0.3872 -0.2673
12502TIP3    H158921   6.254   1.034  13.727  2.3622 -1.1883 -1.3212
12502TIP3    H258922   6.144   1.036  13.624  0.1120  0.6704  0.9883
12503TIP3   OH258923   3.774   4.609   1.302  0.4161 -0.1377  0.0237
12503TIP3    H158924   3.748   4.572   1.387  0.1567  0.7948  0.3604
12503TIP3    H258925   3.741   4.546   1.238 -1.8422  0.4712  0.4739
12504TIP3   OH258926   0.224   5.516  14.261  0.3865 -0.0471 -0.0013
12504TIP3    H158927   0.289   5.554  14.320  0.0266  0.7789 -0.1287
12504TIP3    H258928   0.143   5.517  14.312  0.1554  0.3189 -0.3756
12505TIP3   OH258929   2.902   6.102   3.766  0.3813  0.2006 -0.3825
12505TIP3    H158930   2.937   6.031   3.712 -1.1435  1.0888 -2.7056
12505TIP3    H258931   2.902   6.178   3.708  0.5250  1.7359  1.5465
12506TIP3   OH258932   0.151   3.924   3.668 -0.2077  0.1996 -0.4784
12506TIP3    H158933   0.213   3.895   3.601  0.9272 -0.3685  0.7530
12506TIP3    H258934   0.147   3.851   3.729  0.2365  1.3894  1.0350
12507TIP3   OH258935   4.359   1.158  12.527 -0.3921  0.3781 -0.4922
12507TIP3    H158936   4.340   1.066  12.542  0.2817  0.4168  0.7205
12507TIP3    H258937   4.454   1.162  12.523 -0.3378  1.2101  0.9582
12508TIP3   OH258938   1.348   4.109   3.405 -0.5959  0.4495 -0.0588
12508TIP3    H158939   1.301   4.175   3.456 -0.7831 -0.7344  1.3821
12508TIP3    H258940   1.296   4.097   3.325 -2.9618 -0.9684  1.5628
12509TIP3   OH258941   4.569   4.566  16.950 -0.3695  0.2149  0.4100
12509TIP3    H158942   4.601   4.483  16.985  1.5228  0.5872 -0.3233
12509TIP3    H258943   4.543   4.545  16.861  0.2790  0.4331  0.1663
12510TIP3   OH258944   4.092   6.254   3.322 -0.1643  0.0474 -0.4388
12510TIP3    H158945   4.066   6.296   3.404 -1.2387  1.3772 -1.4333
12510TIP3    H258946   4.188   6.256   3.323 -0.1804  1.7458 -0.0558
12511TIP3   OH258947   2.712   5.457   4.250  0.3154  0.1692 -0.1797
12511TIP3    H158948   2.730   5.401   4.175 -1.3636  0.5770 -0.9378
12511TIP3    H258949   2.617   5.466   4.251  0.2401 -0.2570  2.3394
12512TIP3   OH258950   4.792   5.185   2.109  0.1492  0.0258 -0.2078
12512TIP3    H158951   4.812   5.118   2.043  1.7965  0.0411  0.2322
12512TIP3    H258952   4.874   5.233   2.120 -0.0254 -0.0610  1.9293
12513TIP3   OH258953   6.231   2.385   3.126  0.0849 -0.2717 -0.0530
12513TIP3    H158954   6.299   2.452   3.117 -1.9925  1.8965 -0.6371
12513TIP3    H258955   6.176   2.395   3.048 -0.5019 -2.4905 -0.0014
12514TIP3   OH258956   3.095   0.608   4.667 -0.6079 -0.0030 -0.0974
12514TIP3    H158957   3.086   0.555   4.745  1.6769 -0.7016 -0.2324
12514TIP3    H258958   3.046   0.688   4.686 -1.2659 -0.7405  1.4563
12515TIP3   OH258959   6.507   3.621   0.315  1.1034 -0.1311 -0.0895
12515TIP3    H158960   6.550   3.688   0.367 -0.6111  1.5318 -0.6757
12515TIP3    H258961   6.450   3.576   0.377 -0.1238  1.1294 -0.2411
12516TIP3   OH258962   1.981   5.313   0.817  0.4435  0.4742  0.3785
12516TIP3    H158963   1.916   5.262   0.767 -0.6849  1.2532  1.0039
12516TIP3    H258964   2.065   5.291   0.776 -0.1946 -0.6187 -0.4157
12517TIP3   OH258965   5.735   1.040  11.316  0.3507  0.1874 -0.1502
12517TIP3    H158966   5.682   1.066  11.240  0.2649  0.6731  0.0715
12517TIP3    H258967   5.675   0.989  11.371 -0.0738  1.2387  0.3904
12518TIP3   OH258968   6.189   6.719   0.051 -0.0051  0.5990  0.1090
12518TIP3    H158969   6.125   6.747   0.116  0.0511 -1.4532  1.1383
12518TIP3    H258970   6.257   6.674   0.101  0.7830  0.2205 -1.2372
12519TIP3   OH258971   4.071   4.627  14.179  0.2918 -0.2408  0.0350
12519TIP3    H158972   4.166   4.627  14.186  0.2436  1.7095  2.3501
12519TIP3    H258973   4.050   4.552  14.124  3.1621 -0.5087 -0.8347
12520TIP3   OH258974   3.908   1.032   3.875  0.1707  0.1835  0.1852
12520TIP3    H158975   3.866   0.954   3.839  0.7765 -0.2262  0.3486
12520TIP3    H258976   3.900   1.022   3.970 -0.4633  0.7222  0.1920
12521TIP3   OH258977   4.955   2.127  17.090  0.1067  0.0657  0.4896
12521TIP3    H158978   4.916   2.181  17.021  1.4368 -0.6056 -0.8391
12521TIP3    H258979   5.048   2.152  17.090  0.2008 -0.2456  1.7701
12522TIP3   OH258980   6.527   3.824  12.252 -0.2247  0.2500 -0.3974
12522TIP3    H158981   6.464   3.885  12.215 -0.3517  0.0039 -0.5853
12522TIP3    H258982   6.476   3.769  12.311 -0.5053 -0.9917 -1.7349
12523TIP3   OH258983   3.367   5.314  14.410  0.0781 -0.0164  0.2237
12523TIP3    H158984   3.319   5.252  14.354 -1.6213  0.9909  0.4729
12523TIP3    H258985   3.302   5.342  14.474  1.6072 -0.0991  1.8851
12524TIP3   OH258986   0.718   3.624   0.108 -0.6947 -0.2226 -0.2517
12524TIP3    H158987   0.692   3.538   0.075 -1.0431 -0.4537  0.5983
12524TIP3    H258988   0.757   3.606   0.194  2.1051  0.1269 -1.3475
12525TIP3   OH258989   2.890   5.049   6.262  0.2204 -0.0998  0.1705
12525TIP3    H158990   2.957   4.998   6.216  0.1662  1.1296 -1.3676
12525TIP3    H258991   2.878   5.004   6.346  1.4474 -1.5442 -0.3917
12526TIP3   OH258992   4.971   1.110   4.914 -0.4443  0.3739  0.5738
12526TIP3    H158993   5.043   1.068   4.868 -0.8460 -0.3603  0.6028
12526TIP3    H258994   4.972   1.071   5.001 -0.3869  0.9373  0.8284
12527TIP3   OH258995   1.618   3.057  13.671 -0.2669 -0.2762 -0.6438
12527TIP3    H158996   1.578   3.100  13.595 -2.1794  1.3492  1.1408
12527TIP3    H258997   1.681   3.121  13.704 -1.8025  0.5372  0.9437
12528TIP3   OH258998   4.295   1.134   5.131 -0.2082  0.5228 -0.0865
12528TIP3    H158999   4.225   1.160   5.191 -0.3146  0.4471 -0.1788
12528TIP3    H259000   4.316   1.044   5.156  1.6560  1.3405  1.7002
12529TIP3   OH259001   1.575   5.131   6.249  0.2673  0.3434 -0.2729
12529TIP3    H159002   1.518   5.127   6.326 -1.5340 -0.0415 -1.5898
12529TIP3    H259003   1.657   5.168   6.283 -0.6736  0.7508  1.7072
12530TIP3   OH259004   0.711   4.332  11.234  0.7238  0.0290 -0.3825
12530TIP3    H159005   0.688   4.410  11.285 -0.3571 -0.4588 -0.1032
12530TIP3    H259006   0.681   4.259  11.287  0.7507 -0.5396 -1.1350
12531TIP3   OH259007   5.646   4.163   4.757 -0.2824 -0.2771  0.0051
12531TIP3    H159008   5.653   4.258   4.764  0.0661 -0.4054  2.0222
12531TIP3    H259009   5.694   4.142   4.677 -1.4887  1.3287 -1.1952
12532TIP3   OH259010   0.301   2.823  14.756 -0.1612 -0.3653 -0.8409
12532TIP3    H159011   0.289   2.880  14.679  0.3585 -1.0911 -1.4786
12532TIP3    H259012   0.261   2.740  14.730 -1.4642 -0.1191  0.3161
12533TIP3   OH259013   0.756   1.762  11.343 -0.5238 -0.6902 -0.1862
12533TIP3    H159014   0.735   1.832  11.404 -1.0267 -1.5527  0.6422
12533TIP3    H259015   0.815   1.803  11.279  0.8714 -0.0362  1.4538
12534TIP3   OH259016   2.221   1.170  12.568 -0.0374  0.6899  0.0346
12534TIP3    H159017   2.305   1.213  12.583 -0.1171  0.5341  1.0156
12534TIP3    H259018   2.228   1.086  12.614  0.1334 -0.4043 -1.8966
12535TIP3   OH259019   3.869   2.852  16.381 -0.1809 -0.3730  0.2881
12535TIP3    H159020   3.924   2.791  16.331 -2.6276 -2.0332 -0.5604
12535TIP3    H259021   3.801   2.879  16.319 -0.3342  1.6840  1.2683
12536TIP3   OH259022   5.235   2.596   1.807 -0.1468 -0.5512  0.6514
12536TIP3    H159023   5.262   2.671   1.860 -0.7587 -0.9083  1.4748
12536TIP3    H259024   5.257   2.622   1.717  0.3492  0.2988  1.0051
12537TIP3   OH259025   6.347   0.019  13.288 -0.3363  0.1675 -0.2321
12537TIP3    H159026   6.291  -0.050  13.322  0.0482 -0.4748 -0.8879
12537TIP3    H259027   6.314   0.037  13.200 -0.9520  1.4095  0.2255
12538TIP3   OH259028   1.293   0.394   4.515  0.0463  0.0566 -0.1802
12538TIP3    H159029   1.252   0.479   4.503 -0.4741 -0.1567  0.0497
12538TIP3    H259030   1.324   0.370   4.427  0.5787  0.6673 -0.1659
12539TIP3   OH259031   1.431   3.826   5.661 -0.0494  1.0288  0.0879
12539TIP3    H159032   1.388   3.745   5.690  0.0677  0.9848  0.1365
12539TIP3    H259033   1.495   3.798   5.596 -1.0913  1.2353 -1.0640
12540TIP3   OH259034   5.662   1.137  14.232  0.0781 -0.2911 -0.0606
12540TIP3    H159035   5.640   1.044  14.222 -1.2246  0.1049 -1.1350
12540TIP3    H259036   5.587   1.175  14.277  1.2215  0.0083  1.6726
12541TIP3   OH259037   0.841   3.892   1.197  0.7159 -0.4915 -0.0123
12541TIP3    H159038   0.930   3.869   1.171  0.5129 -0.9448 -0.3129
12541TIP3    H259039   0.849   3.979   1.235  1.2170 -0.3509 -0.4360
12542TIP3   OH259040   1.782   5.553  14.963 -0.2293 -0.3818 -0.5867
12542TIP3    H159041   1.701   5.502  14.959 -0.1973 -0.4703 -0.1386
12542TIP3    H259042   1.775   5.615  14.890 -0.8827 -0.1140 -0.3012
12543TIP3   OH259043   5.147   4.788   5.819 -0.4716  0.1089  0.2998
12543TIP3    H159044   5.115   4.698   5.820 -0.6423  0.1722  0.9380
12543TIP3    H259045   5.114   4.826   5.900 -3.1874  1.7271 -1.4006
12544TIP3   OH259046   4.261   2.137  15.677 -0.2399  0.3726  0.4914
12544TIP3    H159047   4.180   2.101  15.711 -0.7531  0.8739 -0.1618
12544TIP3    H259048   4.319   2.062  15.665 -0.9715 -0.1237  0.0006
12545TIP3   OH259049   0.159   1.366  17.191 -0.3544  0.0318 -0.0407
12545TIP3    H159050   0.106   1.290  17.166 -0.4652  0.4847 -1.2176
12545TIP3    H259051   0.249   1.341  17.171  0.1409 -1.2450  3.1605
12546TIP3   OH259052   3.521   0.887   6.781 -0.4370  0.3250  0.1178
12546TIP3    H159053   3.474   0.831   6.843 -0.0035  0.1605  0.3034
12546TIP3    H259054   3.455   0.914   6.718 -0.7031 -0.1962  0.1691
12547TIP3   OH259055   4.719   6.759   3.818  0.2094 -0.8308 -0.2622
12547TIP3    H159056   4.680   6.684   3.772 -2.7230 -0.0084  0.6535
12547TIP3    H259057   4.735   6.824   3.750 -2.7639 -0.1612 -0.4666
12548TIP3   OH259058   3.136   1.577   5.943 -0.8852 -0.4148 -0.5541
12548TIP3    H159059   3.071   1.599   6.009 -1.8995  1.3273 -2.0265
12548TIP3    H259060   3.216   1.622   5.972 -0.2545 -2.5494  1.2508
12549TIP3   OH259061   3.347   2.677   2.501 -0.3256 -0.6103 -0.2517
12549TIP3    H159062   3.390   2.647   2.582 -1.5420  0.6838  0.9311
12549TIP3    H259063   3.288   2.606   2.477 -1.8656  0.0035  1.5034
12550TIP3   OH259064   1.563   5.136   4.181  0.7033  0.4235  0.2942
12550TIP3    H159065   1.522   5.078   4.245 -0.2486 -1.1042 -1.6200
12550TIP3    H259066   1.652   5.148   4.213  0.4051 -0.7035  1.6389
12551TIP3   OH259067   5.543   1.396   2.926 -0.1953  0.1341 -0.4286
12551TIP3    H159068   5.521   1.395   2.832 -1.2594 -0.7242 -0.1966
12551TIP3    H259069   5.466   1.358   2.968 -0.0265  1.1737  0.8703
12552TIP3   OH259070   6.082   6.024  13.341  0.1271 -0.3694 -0.7719
12552TIP3    H159071   6.134   5.960  13.389 -1.5398 -0.2105  1.4015
12552TIP3    H259072   6.115   6.109  13.370 -2.1064 -0.2462  1.6969
12553TIP3   OH259073   4.832   5.193  13.340  0.4835 -0.0578  0.7161
12553TIP3    H159074   4.866   5.261  13.398  1.5315 -1.6501  2.0540
12553TIP3    H259075   4.911   5.151  13.305 -0.1439  0.1525 -1.0222
12554TIP3   OH259076   3.649   4.529   0.642  0.5092  1.1883 -1.0661
12554TIP3    H159077   3.570   4.517   0.696  1.1679 -0.9374 -0.4978
12554TIP3    H259078   3.647   4.622   0.619 -0.3655  1.9930  1.7863
12555TIP3   OH259079   1.684   4.427  14.183 -0.0456  0.5965 -0.0860
12555TIP3    H159080   1.641   4.499  14.136 -2.0376  0.3050  1.1925
12555TIP3    H259081   1.699   4.361  14.115  1.4259  1.9761 -1.2003
12556TIP3   OH259082   2.323   5.286   5.335  0.6841  0.5316  0.4398
12556TIP3    H159083   2.395   5.346   5.318 -0.0898  1.0987 -0.9091
12556TIP3    H259084   2.256   5.340   5.377 -0.2199  0.7758 -1.2453
12557TIP3   OH259085   3.967   2.340  15.124 -0.4158 -0.3705  0.1255
12557TIP3    H159086   3.996   2.356  15.034  0.4443 -0.7732  0.3251
12557TIP3    H259087   3.967   2.427  15.165 -1.6086 -0.0633 -0.4799
12558TIP3   OH259088   3.342   1.741  11.954  0.2053  0.8320 -0.3849
12558TIP3    H159089   3.357   1.786  11.870  1.1604 -0.5836 -1.0218
12558TIP3    H259090   3.363   1.649  11.935 -1.1532  0.1982  1.0033
12559TIP3   OH259091   4.612   1.481  13.727  0.0029 -0.2443 -0.8012
12559TIP3    H159092   4.520   1.475  13.700 -0.2817 -1.1265  0.2707
12559TIP3    H259093   4.630   1.575  13.730 -1.1939 -0.0087 -0.0220
12560TIP3   OH259094   5.211   3.579  13.100 -0.0749  0.2737 -0.1779
12560TIP3    H159095   5.185   3.617  13.016 -0.6468 -0.6666 -0.4408
12560TIP3    H259096   5.269   3.645  13.139  0.7426  0.4252 -1.5991
12561TIP3   OH259097   6.494   0.126   1.350 -0.0707  0.3340  0.1467
12561TIP3    H159098   6.468   0.181   1.424  0.1524  1.3323 -0.4976
12561TIP3    H259099   6.499   0.186   1.276 -2.8419 -0.9986 -1.3147
12562TIP3   OH259100   6.206   3.657   3.232  0.0809  0.1282  0.0225
12562TIP3    H159101   6.276   3.621   3.287 -0.4362 -0.0432  0.5824
12562TIP3    H259102   6.175   3.733   3.281 -1.5353 -1.0068  0.8457
12563TIP3   OH259103   0.010   3.044   4.215  0.2364 -0.2736  0.4056
12563TIP3    H159104   0.059   2.979   4.165 -0.7665 -0.3153 -0.5562
12563TIP3    H259105   0.009   3.009   4.304  0.5632 -1.0748  0.1064
12564TIP3   OH259106   5.599   6.268  14.942  0.3129  0.4125  0.1237
12564TIP3    H159107   5.604   6.342  15.002  1.2293 -0.0056  0.5771
12564TIP3    H259108   5.506   6.243  14.943  0.3885  0.0705  1.8098
12565TIP3   OH259109   4.816   3.016  10.751 -0.3861  0.0616 -0.1457
12565TIP3    H159110   4.833   3.064  10.670 -2.3758  3.0936  1.0490
12565TIP3    H259111   4.795   2.927  10.721  2.1112  0.1572 -2.6144
12566TIP3   OH259112   1.871   4.291   0.596  0.5871  0.2508  0.3767
12566TIP3    H159113   1.790   4.258   0.557  0.8179 -0.5543  0.5588
12566TIP3    H259114   1.919   4.329   0.522  0.7900 -0.8057 -0.0555
12567TIP3   OH259115   3.487   1.340  14.953 -0.2373  0.1336 -0.0328
12567TIP3    H159116   3.549   1.375  14.889  0.0919  1.0602  0.7742
12567TIP3    H259117   3.542   1.305  15.023 -0.6101  1.3175  0.8763
12568TIP3   OH259118   5.719   0.962  10.955 -1.0895 -0.0877 -0.2468
12568TIP3    H159119   5.761   0.905  11.019 -2.9388  0.3423  1.4799
12568TIP3    H259120   5.628   0.931  10.952 -1.6757  1.5468 -0.6953
12569TIP3   OH259121   3.964   3.645   2.328 -0.0804  0.3041  0.0818
12569TIP3    H159122   3.883   3.658   2.378 -0.3352  0.9168 -0.4843
12569TIP3    H259123   3.944   3.571   2.270 -0.6236  1.1680 -0.8508
12570TIP3   OH259124   4.193   1.037   4.105 -0.1398 -0.3164 -0.5880
12570TIP3    H159125   4.107   1.075   4.091 -0.2276 -1.5211 -4.6785
12570TIP3    H259126   4.177   0.943   4.111  0.7475 -0.4018  0.9909
12571TIP3   OH259127   2.710   3.311   1.312  0.3460  0.0420  0.3095
12571TIP3    H159128   2.767   3.306   1.235  1.2788 -0.4650  1.0133
12571TIP3    H259129   2.660   3.392   1.299  1.8441  0.9839  0.0693
12572TIP3   OH259130   6.012   1.229   0.223  0.5231  0.2570  0.2412
12572TIP3    H159131   5.998   1.154   0.281  0.5623 -1.1948 -1.5457
12572TIP3    H259132   5.928   1.275   0.222 -0.4614 -1.4591 -0.8954
12573TIP3   OH259133   6.022   6.739  12.639  0.5446  0.9077  0.4583
12573TIP3    H159134   6.005   6.669  12.576  0.9508 -2.6069  3.8113
12573TIP3    H259135   6.104   6.778  12.610 -0.2986  0.8702 -2.2024
12574TIP3   OH259136   0.256   4.038   2.476  0.4886 -0.2539  0.1784
12574TIP3    H159137   0.319   4.098   2.514  0.2808 -1.2284  2.1774
12574TIP3    H259138   0.192   4.022   2.545 -0.8884 -0.7984 -1.1439
12575TIP3   OH259139   5.786   6.760  15.298  0.3666 -0.0637  0.0613
12575TIP3    H159140   5.692   6.748  15.311  0.9297 -2.7549  2.7091
12575TIP3    H259141   5.811   6.694  15.233  0.3979  1.0182 -1.0626
12576TIP3   OH259142   3.418   5.639   2.489 -0.0261  0.0575  0.1130
12576TIP3    H159143   3.496   5.625   2.435  0.6925  1.1552  0.8360
12576TIP3    H259144   3.425   5.574   2.559  0.1920  0.0977  0.1280
12577TIP3   OH259145   0.890   0.425   3.333 -0.1040  0.5238 -0.1559
12577TIP3    H159146   0.858   0.477   3.407  0.9795 -0.3988  1.0245
12577TIP3    H259147   0.906   0.339   3.371 -0.2418 -0.1918 -1.6739
12578TIP3   OH259148   1.810   1.931  11.960  0.2258 -0.0517  0.1641
12578TIP3    H159149   1.768   1.852  11.993 -2.2110  2.1805  2.9399
12578TIP3    H259150   1.879   1.899  11.901 -0.8815 -4.1453  0.8102
12579TIP3   OH259151   2.944   4.127   4.585  0.2902  0.2813  0.4553
12579TIP3    H159152   2.869   4.183   4.566 -0.4954 -0.6451  0.7546
12579TIP3    H259153   2.955   4.074   4.506  0.7769  0.5695  0.3268
12580TIP3   OH259154   2.002   4.727  13.603  0.3751 -0.3292  0.1178
12580TIP3    H159155   1.977   4.661  13.668  1.6597 -0.4603  0.5158
12580TIP3    H259156   1.924   4.782  13.593 -0.1348 -0.8457  1.1008
12581TIP3   OH259157   1.070   3.293  12.399  0.1519  0.1349  0.3259
12581TIP3    H159158   1.028   3.378  12.387  1.0765  0.5547 -0.1016
12581TIP3    H259159   1.025   3.253  12.473 -0.3672  0.9514  0.4610
12582TIP3   OH259160   0.294   4.744  10.867  0.6301  0.0755  0.3328
12582TIP3    H159161   0.202   4.769  10.859  0.1988 -1.6623 -0.8575
12582TIP3    H259162   0.326   4.794  10.942 -0.4691  2.9058 -0.9459
12583TIP3   OH259163   2.201   4.194   2.358  0.4529  0.5271 -0.3034
12583TIP3    H159164   2.109   4.219   2.372 -0.1931 -2.4000  1.9018
12583TIP3    H259165   2.239   4.267   2.311 -2.7021  2.4461 -0.1896
12584TIP3   OH259166   4.293   6.595  16.460 -0.2010  0.1965  0.8904
12584TIP3    H159167   4.227   6.536  16.496 -1.7703  1.1096 -0.3571
12584TIP3    H259168   4.268   6.606  16.368  3.0031 -1.1890 -0.3036
12585TIP3   OH259169   5.348   1.617   2.192  0.1675  0.0044  0.1320
12585TIP3    H159170   5.295   1.576   2.260  1.0231 -4.7313 -1.6439
12585TIP3    H259171   5.439   1.603   2.221  0.5241  0.2372 -0.8353
12586TIP3   OH259172   0.401   6.056  14.226 -0.1012  0.7496  0.2643
12586TIP3    H159173   0.419   6.123  14.292 -0.4421 -0.4149  1.5862
12586TIP3    H259174   0.465   6.073  14.157  1.0304  1.3277  1.4114
12587TIP3   OH259175   4.371   5.671   5.303 -0.0200 -0.6014  0.3124
12587TIP3    H159176   4.446   5.626   5.341  1.4858  2.0170  0.6870
12587TIP3    H259177   4.407   5.721   5.229 -1.7493 -0.6949 -0.6569
12588TIP3   OH259178   4.439   1.341  11.321  0.0121  0.3674  0.1594
12588TIP3    H159179   4.398   1.256  11.340 -0.5646  0.7139  0.4923
12588TIP3    H259180   4.531   1.320  11.304  0.7410  0.0366  3.6985
12589TIP3   OH259181   3.213   6.745   4.403 -0.0351 -0.0771  0.2809
12589TIP3    H159182   3.169   6.665   4.372  0.3775  0.5020 -1.9922
12589TIP3    H259183   3.150   6.815   4.386  1.0989  0.5653 -1.6234
12590TIP3   OH259184   6.003   4.943   2.535 -0.0506 -0.0507  0.8784
12590TIP3    H159185   5.932   4.879   2.531 -0.8727  0.8710  0.2702
12590TIP3    H259186   6.014   4.961   2.628 -0.4513 -0.3783  0.9897
12591TIP3   OH259187   0.084   1.973  16.594 -0.4034  0.0346 -0.0596
12591TIP3    H159188   0.163   1.983  16.647  0.5128  0.1894 -1.4112
12591TIP3    H259189   0.019   1.939  16.655  1.0128 -1.2125  0.8387
12592TIP3   OH259190   1.411   2.016   3.815  0.0893 -0.0814 -0.4662
12592TIP3    H159191   1.381   1.970   3.892 -0.7938  1.4162  0.1243
12592TIP3    H259192   1.464   1.952   3.767 -0.8580 -1.5769  0.4387
12593TIP3   OH259193   6.288   1.062   1.228 -0.3445 -0.8532 -0.1830
12593TIP3    H159194   6.228   1.104   1.167  0.6775  1.5012  0.3302
12593TIP3    H259195   6.364   1.120   1.232  1.7117 -3.3658 -0.2742
12594TIP3   OH259196   5.371   1.172  11.750 -0.3452  0.4370  0.3761
12594TIP3    H159197   5.386   1.243  11.812  1.6673 -0.0629  0.5584
12594TIP3    H259198   5.370   1.092  11.803 -0.7895  0.1884  0.0006
12595TIP3   OH259199   5.361   0.025  11.025 -0.3834  0.2892  0.0274
12595TIP3    H159200   5.404   0.002  10.943  1.8213  2.0790  0.5655
12595TIP3    H259201   5.395  -0.038  11.089  0.9655  1.2501  0.3001
12596TIP3   OH259202   3.628   3.714   4.966  0.1914 -0.1646  0.1519
12596TIP3    H159203   3.544   3.755   4.947 -0.6907 -1.5013  1.0090
12596TIP3    H259204   3.654   3.751   5.051 -1.2012 -2.1468  1.5360
12597TIP3   OH259205   0.544   2.231   1.135 -0.4621 -0.0120 -0.4079
12597TIP3    H159206   0.452   2.241   1.108 -0.4703  0.0165 -0.3690
12597TIP3    H259207   0.545   2.260   1.226 -0.5968 -0.8964 -0.1151
12598TIP3   OH259208   4.058   0.055   5.580 -0.0322  0.6354 -0.1878
12598TIP3    H159209   4.026   0.068   5.669  1.8676  2.2304  0.3253
12598TIP3    H259210   4.084  -0.037   5.577 -2.4009 -0.0934  0.0762
12599TIP3   OH259211   0.167   1.980  14.874 -0.7219 -0.4758  0.1378
12599TIP3    H159212   0.152   1.969  14.968  1.0179 -1.6813  0.3097
12599TIP3    H259213   0.258   2.009  14.867 -0.9309 -0.0335 -1.1759
12600TIP3   OH259214   5.625   3.351  16.576 -0.0741 -0.1137  0.2598
12600TIP3    H159215   5.653   3.442  16.583 -0.7528  0.3404 -2.0255
12600TIP3    H259216   5.693   3.308  16.525 -0.2302 -0.6737  0.5094
12601TIP3   OH259217   5.959   5.534  16.957 -0.1179 -0.1270 -0.0329
12601TIP3    H159218   5.865   5.549  16.964  0.0775  2.0577 -1.2364
12601TIP3    H259219   5.998   5.619  16.976  1.8362 -1.5151  2.9720
12602TIP3   OH259220   2.659   2.739   2.543 -0.0434 -0.0697 -0.2464
12602TIP3    H159221   2.686   2.670   2.605 -0.5702 -1.6968 -1.7408
12602TIP3    H259222   2.622   2.808   2.598  0.3768 -1.0409  1.3092
12603TIP3   OH259223   5.034   4.608   5.460  0.5038  0.4788 -0.1105
12603TIP3    H159224   5.011   4.524   5.419  0.9093  1.2555 -2.0277
12603TIP3    H259225   4.975   4.614   5.535  0.5893 -1.5956  0.1818
12604TIP3   OH259226   4.961   6.574   3.981  0.6372  0.5487  0.6472
12604TIP3    H159227   4.936   6.667   3.982  0.2140  0.4358  1.4939
12604TIP3    H259228   4.935   6.541   4.067  0.4829 -0.4394  0.2365
12605TIP3   OH259229   1.505   3.440   2.450 -0.3553  0.2286  0.3322
12605TIP3    H159230   1.438   3.394   2.500 -0.2539 -1.0483 -0.6386
12605TIP3    H259231   1.587   3.403   2.480 -0.2568 -0.0894 -0.3116
12606TIP3   OH259232   5.919   0.592  14.945  0.2127  0.0086  0.6371
12606TIP3    H159233   5.867   0.531  14.892  1.6965  0.8056 -1.8916
12606TIP3    H259234   5.993   0.540  14.977  0.0697 -0.1309  0.7443
12607TIP3   OH259235   6.119   6.087  17.024 -0.2292 -0.0343  0.1319
12607TIP3    H159236   6.148   6.178  17.026  0.5860 -0.2983  0.9142
12607TIP3    H259237   6.142   6.052  17.110 -2.6630 -0.3584  0.7379
12608TIP3   OH259238   3.570   0.010   5.186 -0.3950  0.1189 -0.1876
12608TIP3    H159239   3.526   0.056   5.257 -0.5500  2.8364 -1.8872
12608TIP3    H259240   3.518  -0.070   5.172 -1.9315  0.8730  0.9785
12609TIP3   OH259241   6.643   0.307   2.837 -0.3980  0.8627  0.3938
12609TIP3    H159242   6.666   0.336   2.749  0.5768  0.2012  0.4231
12609TIP3    H259243   6.551   0.282   2.830 -0.0952 -0.0696 -0.6888
12610TIP3   OH259244   3.764   3.404  16.794  0.7449  0.1203 -0.4506
12610TIP3    H159245   3.757   3.494  16.762  0.8588  0.0311 -0.7339
12610TIP3    H259246   3.828   3.363  16.735  1.9105  0.2972  0.6618
12611TIP3   OH259247   2.252   6.581   0.213 -0.0186 -0.1108  0.2727
12611TIP3    H159248   2.229   6.504   0.160 -2.6854  0.6263  0.1868
12611TIP3    H259249   2.263   6.547   0.302  0.7122 -0.8220 -0.0740
12612TIP3   OH259250   2.141   0.739  12.447  0.3601 -0.2852 -0.4239
12612TIP3    H159251   2.148   0.659  12.394 -2.3760  0.1460 -1.5769
12612TIP3    H259252   2.094   0.801  12.392 -0.4839  1.0229  1.6358
12613TIP3   OH259253   4.463   4.373  16.764  0.0497 -0.2785  0.1723
12613TIP3    H159254   4.380   4.352  16.806 -0.0246  2.8414  1.9349
12613TIP3    H259255   4.528   4.321  16.811 -0.5663 -0.3546  0.9625
12614TIP3   OH259256   2.305   3.753  10.300 -0.7497  0.0694 -0.1699
12614TIP3    H159257   2.300   3.834  10.351  1.5380 -0.9919  2.0146
12614TIP3    H259258   2.284   3.684  10.363  0.6436 -1.2191 -1.0388
12615TIP3   OH259259   3.679   6.513  13.744 -0.1409 -0.0885 -0.0821
12615TIP3    H159260   3.605   6.531  13.685 -1.2073 -0.4781  1.0924
12615TIP3    H259261   3.744   6.470  13.688 -1.3098 -0.8950 -0.8764
12616TIP3   OH259262   3.782   2.097  16.245  0.0503  0.0516  0.4420
12616TIP3    H159263   3.833   2.018  16.227 -0.3271  0.0743 -0.7707
12616TIP3    H259264   3.753   2.085  16.336  1.6742 -0.2442  0.9577
12617TIP3   OH259265   3.219   0.240  11.776  0.2779 -0.3260 -0.2123
12617TIP3    H159266   3.238   0.332  11.796  2.4818 -0.7188 -0.2333
12617TIP3    H259267   3.183   0.205  11.857 -0.6156  0.5398 -0.2134
12618TIP3   OH259268   1.737   2.946   2.542  0.4399 -0.4495 -0.2722
12618TIP3    H159269   1.785   2.982   2.616 -1.5204 -1.5477  1.6364
12618TIP3    H259270   1.751   3.009   2.471  0.0167  2.1799  1.8734
12619TIP3   OH259271   0.122   6.572   4.359 -0.0334 -0.4096 -0.3724
12619TIP3    H159272   0.088   6.647   4.311  0.2070  0.5670  0.9175
12619TIP3    H259273   0.181   6.610   4.424  2.0942 -1.9179 -1.3048
12620TIP3   OH259274   6.743   4.548  16.133 -0.0026 -0.7334 -0.1940
12620TIP3    H159275   6.699   4.512  16.055 -4.6997 -1.1289  2.3035
12620TIP3    H259276   6.716   4.640  16.135  2.3916  0.0429 -0.3582
12621TIP3   OH259277   5.723   1.330   0.174  0.0366 -0.6737  0.4284
12621TIP3    H159278   5.709   1.274   0.098 -0.5751 -0.0156  0.0375
12621TIP3    H259279   5.728   1.418   0.138  1.3419 -0.4907  0.9953
12622TIP3   OH259280   0.326   6.543   5.131  0.3595 -0.0089 -0.1849
12622TIP3    H159281   0.302   6.468   5.185  0.8934 -1.0643 -1.3630
12622TIP3    H259282   0.409   6.574   5.168  0.3060 -0.2042  0.1009
12623TIP3   OH259283   3.502   2.283   0.294  0.4306 -0.6187  0.4811
12623TIP3    H159284   3.496   2.377   0.278 -0.4448 -0.8505 -0.6594
12623TIP3    H259285   3.552   2.276   0.376 -1.0276  0.9063  1.5764
12624TIP3   OH259286   6.560   1.009  17.140 -0.3202  0.0402  0.1897
12624TIP3    H159287   6.539   0.927  17.095 -1.1266 -0.6791  1.7843
12624TIP3    H259288   6.548   1.077  17.073 -1.3096 -0.9884 -0.7192
12625TIP3   OH259289   4.369   2.165   1.652  0.1456 -0.4500 -0.2627
12625TIP3    H159290   4.288   2.135   1.612 -0.1823  1.8973 -1.5781
12625TIP3    H259291   4.433   2.096   1.635 -1.2613 -1.8039 -0.2382
12626TIP3   OH259292   4.869   2.818   1.784  0.0845  0.4595 -0.6933
12626TIP3    H159293   4.795   2.866   1.822  0.5850  0.5373  0.2018
12626TIP3    H259294   4.944   2.875   1.797  0.3819  0.1921 -1.2165
12627TIP3   OH259295   1.055   3.759   4.094 -0.3350  0.5469  0.5631
12627TIP3    H159296   1.079   3.702   4.021 -3.4648 -0.5654  0.2249
12627TIP3    H259297   1.131   3.759   4.152  0.9816 -1.3140 -1.0574
12628TIP3   OH259298   5.822   5.459   2.070  0.3510  0.0024 -0.4335
12628TIP3    H159299   5.781   5.488   1.989  2.4508  0.8954 -1.2373
12628TIP3    H259300   5.749   5.439   2.129 -1.1893  1.0913 -1.9238
12629TIP3   OH259301   0.297   0.680  17.175  0.0121  0.4830 -0.5119
12629TIP3    H159302   0.286   0.774  17.189  0.2595  1.0656 -3.6694
12629TIP3    H259303   0.267   0.640  17.257 -0.5722  3.2507  0.7314
12630TIP3   OH259304   5.498   4.172  12.230  0.3169 -0.0032 -0.0893
12630TIP3    H159305   5.589   4.176  12.257  0.1341 -0.8752  0.7052
12630TIP3    H259306   5.451   4.140  12.307 -0.9643  2.2627  0.1549
12631TIP3   OH259307   0.795   3.801  12.540  0.3819 -0.3815  0.0346
12631TIP3    H159308   0.876   3.765  12.575  0.8635  1.9882  1.6082
12631TIP3    H259309   0.731   3.788  12.610  0.6768  1.9921  0.8451
12632TIP3   OH259310   4.889   1.333  17.175 -0.1472 -0.6052  0.0275
12632TIP3    H159311   4.856   1.265  17.234  0.2093  0.2107  1.2165
12632TIP3    H259312   4.838   1.411  17.198 -1.0625 -0.6187 -1.8160
12633TIP3   OH259313   4.249   3.886  16.558 -0.4422 -0.5214  0.0726
12633TIP3    H159314   4.225   3.818  16.494  2.2432 -0.7622 -0.8278
12633TIP3    H259315   4.311   3.941  16.511 -0.7688  1.1866  1.5589
12634TIP3   OH259316   1.123   1.458   4.642  0.1379 -0.1169 -0.1514
12634TIP3    H159317   1.151   1.377   4.599  0.5199  0.8894 -1.8938
12634TIP3    H259318   1.172   1.460   4.725 -0.6494 -2.1357  0.4095
12635TIP3   OH259319   2.934   1.006   0.823 -0.0599  0.7510  0.4813
12635TIP3    H159320   2.943   1.028   0.730  2.5927  0.0015  0.4598
12635TIP3    H259321   2.934   0.910   0.825 -1.1326  0.7468  1.2125
12636TIP3   OH259322   3.440   3.017  12.901  0.0250 -0.1242 -0.2808
12636TIP3    H159323   3.385   2.969  12.839 -1.1061 -0.2237  0.7650
12636TIP3    H259324   3.398   3.102  12.911  0.9611  0.3974 -0.6668
12637TIP3   OH259325   5.192   4.902   3.628  0.2749 -0.4814 -0.1370
12637TIP3    H159326   5.132   4.920   3.556  0.7162  0.2668 -0.3328
12637TIP3    H259327   5.272   4.949   3.604  0.2880  0.1297  1.0403
12638TIP3   OH259328   4.472   2.031  14.777 -0.5851  0.3982  0.1785
12638TIP3    H159329   4.471   2.052  14.870  0.2277  0.2450  0.2277
12638TIP3    H259330   4.408   1.960  14.768  0.2618 -0.4657  0.8395
12639TIP3   OH259331   0.237   0.096  16.973  0.1627 -0.1084  0.3658
12639TIP3    H159332   0.284   0.017  16.947 -0.0798 -0.1768  0.1269
12639TIP3    H259333   0.303   0.150  17.017  0.4555 -0.2150  0.0614
12640TIP3   OH259334   5.362   2.810  11.577  0.1130  0.5600  0.6694
12640TIP3    H159335   5.290   2.749  11.565  0.9956 -0.4602  0.4305
12640TIP3    H259336   5.380   2.844  11.489  0.6362 -0.0238  0.5459
12641TIP3   OH259337   1.671   3.137  15.826  0.0740 -0.2741  0.0683
12641TIP3    H159338   1.669   3.159  15.919 -0.6103 -1.4836  0.3626
12641TIP3    H259339   1.716   3.053  15.822 -1.4560 -1.1116 -0.4780
12642TIP3   OH259340   0.910   2.148  11.263 -0.1586 -0.1431  0.8289
12642TIP3    H159341   0.830   2.181  11.305 -0.6390 -0.2273  0.0232
12642TIP3    H259342   0.878   2.083  11.200  0.3752  1.1046 -0.7822
12643TIP3   OH259343   5.876   4.453  15.951  0.1792  0.0881  0.6808
12643TIP3    H159344   5.880   4.491  15.864 -1.6600  0.7545  0.8652
12643TIP3    H259345   5.899   4.525  16.010  1.6670 -0.4219  0.7742
12644TIP3   OH259346   5.057   4.265  12.697  0.0180 -0.5505 -0.0043
12644TIP3    H159347   5.071   4.172  12.680 -0.6678 -0.4361 -1.3454
12644TIP3    H259348   5.067   4.307  12.612 -0.1941  0.5425  0.4912
12645TIP3   OH259349   5.240   1.049   3.449  0.2675 -0.8214 -0.2632
12645TIP3    H159350   5.254   0.984   3.381 -1.5904 -0.0029 -1.4934
12645TIP3    H259351   5.205   1.125   3.403  1.7444  0.8665  1.2204
12646TIP3   OH259352   5.993   6.684  11.427 -0.8959 -0.4429  0.4933
12646TIP3    H159353   6.059   6.638  11.479  0.3061 -0.4240 -0.9728
12646TIP3    H259354   5.975   6.625  11.354 -1.1970  0.3393 -0.0680
12647TIP3   OH259355   5.620   6.598  12.486  0.3906 -0.3298 -0.0795
12647TIP3    H159356   5.646   6.508  12.468  0.1032 -0.6213  0.8755
12647TIP3    H259357   5.525   6.592  12.500  0.5245 -0.0654  1.0178
12648TIP3   OH259358   4.324   3.002   1.244  0.0058 -0.4758 -0.5619
12648TIP3    H159359   4.364   3.034   1.325  1.8674 -3.3579 -0.1929
12648TIP3    H259360   4.277   3.078   1.209  0.4212  1.3082  2.3826
12649TIP3   OH259361   4.081   0.450   4.417 -0.3839 -0.0335 -0.8580
12649TIP3    H159362   4.051   0.462   4.507 -0.2467  0.1195 -0.8322
12649TIP3    H259363   4.001   0.429   4.368 -0.4499 -0.1810 -0.6906
12650TIP3   OH259364   6.305   5.624   0.767 -0.7468 -0.5167 -0.4931
12650TIP3    H159365   6.226   5.572   0.779 -0.0467 -1.7487 -1.0083
12650TIP3    H259366   6.376   5.560   0.772  0.1898  0.5012 -0.4905
12651TIP3   OH259367   2.287   1.528  14.351  0.1668 -0.2360 -0.7501
12651TIP3    H159368   2.247   1.580  14.421  0.8121 -2.9620  1.8485
12651TIP3    H259369   2.214   1.479  14.314  0.1735 -0.5739 -0.3197
12652TIP3   OH259370   6.560   1.838   6.211  0.3190 -0.0080  0.1425
12652TIP3    H159371   6.531   1.866   6.124  0.0590 -1.2073 -0.1794
12652TIP3    H259372   6.511   1.894   6.271  0.0289  0.4192 -0.4776
12653TIP3   OH259373   1.493   3.169  10.712  0.0136  0.3803  0.3544
12653TIP3    H159374   1.419   3.229  10.718 -2.5206 -2.4835 -0.0178
12653TIP3    H259375   1.512   3.163  10.618 -1.2272 -0.9625  0.1510
12654TIP3   OH259376   0.987   6.741   5.296  0.1093  0.2882 -0.1163
12654TIP3    H159377   1.013   6.747   5.204 -0.5608 -2.0922 -0.5373
12654TIP3    H259378   0.895   6.713   5.293 -0.0981  0.7543  1.2842
12655TIP3   OH259379   1.591   1.944  13.748 -0.6836  0.2616 -0.1630
12655TIP3    H159380   1.530   1.921  13.677 -1.8168 -0.3524  0.9765
12655TIP3    H259381   1.569   2.034  13.771 -1.4287 -0.0800  0.4929
12656TIP3   OH259382   3.322   3.340  12.360  0.3420 -0.0238  0.1782
12656TIP3    H159383   3.304   3.257  12.316 -0.7607  0.8222 -1.0564
12656TIP3    H259384   3.398   3.376  12.314  0.9039 -0.3884  0.8005
12657TIP3   OH259385   5.698   5.471  13.383  0.1044  0.5929  0.0307
12657TIP3    H159386   5.666   5.515  13.304 -1.4268 -1.2659 -0.4852
12657TIP3    H259387   5.620   5.461  13.438  0.5186 -0.7975  0.4092
12658TIP3   OH259388   6.565   5.072  11.644 -0.6417 -0.0092  0.6226
12658TIP3    H159389   6.533   4.984  11.624  0.5045 -0.2127 -0.4683
12658TIP3    H259390   6.631   5.059  11.712  0.2265 -0.1427 -0.2170
12659TIP3   OH259391   0.518   3.852  15.698  0.4136 -0.4916 -0.4907
12659TIP3    H159392   0.530   3.786  15.766  0.6503  0.9200  0.9159
12659TIP3    H259393   0.559   3.931  15.734 -3.1087  1.5129 -0.4016
12660TIP3   OH259394   6.559   5.049   4.435  0.3299  0.1632  0.0048
12660TIP3    H159395   6.505   5.118   4.475  0.1949  0.2933 -0.3939
12660TIP3    H259396   6.636   5.044   4.491  0.3419  0.6400  0.0382
12661TIP3   OH259397   0.528   4.312  13.187  0.4322 -0.4430  0.2160
12661TIP3    H159398   0.486   4.327  13.272  0.5955  0.6139  0.1226
12661TIP3    H259399   0.479   4.239  13.149  0.5477 -1.1384  1.3334
12662TIP3   OH259400   4.238   5.518   1.268  0.2361  0.6171  0.5934
12662TIP3    H159401   4.304   5.463   1.310 -0.2230  0.7468  1.5059
12662TIP3    H259402   4.237   5.489   1.177  1.6775  0.7380  0.5151
12663TIP3   OH259403   4.141   1.157  11.589 -0.0664  0.5324  0.5368
12663TIP3    H159404   4.153   1.143  11.683 -1.3439  0.6500  0.7267
12663TIP3    H259405   4.128   1.251  11.580  1.5320  0.7480  0.0440
12664TIP3   OH259406   1.945   2.566  10.830  0.3288  0.2254 -0.4278
12664TIP3    H159407   1.873   2.504  10.843 -0.2066  1.1151  1.1621
12664TIP3    H259408   1.965   2.561  10.737 -0.5908 -1.3514 -0.5726
12665TIP3   OH259409   6.420   4.779  15.379 -0.5370 -0.1584  0.4717
12665TIP3    H159410   6.326   4.788  15.362 -0.7145 -0.4693  1.2838
12665TIP3    H259411   6.460   4.782  15.292 -1.2512  0.4807  0.1531
12666TIP3   OH259412   4.094   4.142   5.586  0.1754 -0.4770  0.0056
12666TIP3    H159413   4.076   4.236   5.578  1.1787 -0.1142  1.5573
12666TIP3    H259414   4.010   4.104   5.613 -0.2466 -0.0493 -0.6667
12667TIP3   OH259415   6.740   2.838  11.211  0.1730  0.4555 -0.1312
12667TIP3    H159416   6.788   2.785  11.147 -0.2013 -2.7090  2.0214
12667TIP3    H259417   6.809   2.885  11.259  0.9570 -1.5370  0.7953
12668TIP3   OH259418   6.583   0.762  10.447 -0.2189  0.3328  0.1723
12668TIP3    H159419   6.661   0.710  10.467 -0.1590  0.3208 -0.0790
12668TIP3    H259420   6.618   0.842  10.408 -0.2761  0.8706  1.1949
12669TIP3   OH259421   2.439   6.645   5.711 -0.0583  0.4545 -0.4180
12669TIP3    H159422   2.469   6.638   5.801 -0.7500 -0.2039 -0.2309
12669TIP3    H259423   2.459   6.560   5.672  0.6691  0.8904 -1.0315
12670TIP3   OH259424   4.492   2.373  10.660 -0.5721  0.6874 -0.3531
12670TIP3    H159425   4.451   2.333  10.584  1.3665  0.3252 -1.2637
12670TIP3    H259426   4.567   2.420  10.625  0.2008  0.7466  1.3094
12671TIP3   OH259427   5.083   6.396   4.366 -0.3206 -0.2677 -0.1463
12671TIP3    H159428   5.119   6.351   4.289 -0.0073 -0.6828  0.2370
12671TIP3    H259429   5.157   6.407   4.425 -0.6451 -0.3636  0.2900
12672TIP3   OH259430   4.406   2.457   4.178  0.6920  0.4341  0.1406
12672TIP3    H159431   4.488   2.409   4.188  1.0623  0.8508 -0.7343
12672TIP3    H259432   4.355   2.404   4.117 -0.3008 -0.5504  1.7451
12673TIP3   OH259433   6.063   3.729   1.979 -0.2172 -0.0545  0.2066
12673TIP3    H159434   6.040   3.770   2.063 -0.8326 -0.0849  0.0518
12673TIP3    H259435   6.094   3.641   2.003  1.6259  0.6484  0.5950
12674TIP3   OH259436   0.292   0.992  14.698 -0.4738 -0.7682  0.4470
12674TIP3    H159437   0.266   0.938  14.624  1.1627 -0.2184 -0.5923
12674TIP3    H259438   0.334   0.931  14.759  1.2568 -0.7615 -0.6645
12675TIP3   OH259439   1.748   3.185  13.243 -0.2732 -0.2146  0.3314
12675TIP3    H159440   1.673   3.210  13.189  0.6552  0.8240 -0.5182
12675TIP3    H259441   1.750   3.090  13.239 -1.5593 -0.2597  0.4053
12676TIP3   OH259442   0.194   6.522  16.868 -0.6148 -0.1995  0.2586
12676TIP3    H159443   0.265   6.460  16.849 -0.2177  0.5266 -0.7397
12676TIP3    H259444   0.158   6.492  16.951 -0.6098 -1.9352 -0.3129
12677TIP3   OH259445   6.108   3.372  13.047 -0.0151 -0.0284 -0.2108
12677TIP3    H159446   6.165   3.447  13.065 -1.9121  1.7968 -1.3089
12677TIP3    H259447   6.154   3.323  12.979  0.7732  0.7341 -0.2486
12678TIP3   OH259448   2.536   5.292  10.953 -0.0703  0.2514 -0.6624
12678TIP3    H159449   2.589   5.345  11.012 -1.4809  2.1598 -1.0084
12678TIP3    H259450   2.589   5.280  10.875  1.1237 -0.8058  0.2623
12679TIP3   OH259451   2.857   6.327   4.327  0.4396  0.0845 -0.2357
12679TIP3    H159452   2.782   6.354   4.380  1.8234  0.5023  1.6216
12679TIP3    H259453   2.871   6.235   4.349  1.2375  0.3534  0.4624
12680TIP3   OH259454   2.530   2.955  15.312  0.0653  0.0726 -0.4654
12680TIP3    H159455   2.593   2.886  15.332  1.3058  0.8420 -1.6080
12680TIP3    H259456   2.563   3.032  15.358 -0.2634  0.3814 -0.7447
12681TIP3   OH259457   3.686   5.808  12.388 -0.2153  0.3294  0.4490
12681TIP3    H159458   3.770   5.773  12.357 -0.4368  0.3523 -0.1953
12681TIP3    H259459   3.680   5.779  12.479  0.5618  0.4558  0.5470
12682TIP3   OH259460   0.890   1.990   6.161 -0.1841 -0.8760  0.0508
12682TIP3    H159461   0.887   1.961   6.252  1.8498 -2.4111 -0.2981
12682TIP3    H259462   0.864   1.913   6.110 -1.6403  0.0670 -0.6781
12683TIP3   OH259463   5.387   5.790   1.851  0.4055  0.3125  0.2016
12683TIP3    H159464   5.456   5.754   1.907  1.2220 -1.6850 -1.9445
12683TIP3    H259465   5.433   5.847   1.789  0.0917 -0.5548 -0.8618
12684TIP3   OH259466   6.666   3.331  12.193  0.1349  0.2548  0.3192
12684TIP3    H159467   6.633   3.399  12.135 -0.4975 -0.8363 -0.6290
12684TIP3    H259468   6.722   3.277  12.138 -0.9860 -1.1762  0.5220
12685TIP3   OH259469   1.617   6.435   4.208 -0.5999 -0.0696  0.4640
12685TIP3    H159470   1.608   6.442   4.113 -0.5388  1.0659  0.5256
12685TIP3    H259471   1.573   6.513   4.242  1.5373  0.8649  1.2470
12686TIP3   OH259472   4.161   0.689   2.328  0.0022 -0.3023  0.1550
12686TIP3    H159473   4.121   0.725   2.250  2.8614  1.4766 -0.6593
12686TIP3    H259474   4.221   0.622   2.296  0.0181 -0.7090  0.9960
12687TIP3   OH259475   2.937   3.278   5.652 -0.0246  0.2171 -0.1773
12687TIP3    H159476   2.878   3.209   5.625  1.9156 -1.4375 -0.4539
12687TIP3    H259477   2.990   3.296   5.575 -0.3972  1.9511 -0.0691
12688TIP3   OH259478   0.511   1.485  16.474 -0.3029  0.3404  0.4349
12688TIP3    H159479   0.486   1.393  16.469 -1.8538  0.7078  0.8738
12688TIP3    H259480   0.456   1.521  16.544  1.6136  1.1958  1.5947
12689TIP3   OH259481   5.347   2.065  11.477 -0.5354  0.1373  0.8715
12689TIP3    H159482   5.356   2.130  11.546  0.4715 -0.2095  1.0756
12689TIP3    H259483   5.314   2.114  11.402 -1.0333  0.6312  1.4066
12690TIP3   OH259484   2.925   5.146   0.043 -0.0649  0.8026 -0.1099
12690TIP3    H159485   2.838   5.156   0.004 -0.0707 -0.0296 -0.3440
12690TIP3    H259486   2.936   5.223   0.098  0.1267  2.2804 -2.0971
12691TIP3   OH259487   4.180   0.539   1.223  0.2440  0.3059 -0.0022
12691TIP3    H159488   4.197   0.488   1.145  1.3440 -1.2094  1.1783
12691TIP3    H259489   4.115   0.489   1.271 -0.1161  1.0132  0.2670
12692TIP3   OH259490   4.440   1.321  13.527 -0.2415 -0.1022  0.3588
12692TIP3    H159491   4.393   1.404  13.517 -1.9464 -0.8819  1.4877
12692TIP3    H259492   4.427   1.275  13.445 -0.3090  0.2361  0.1773
12693TIP3   OH259493   3.435   3.930  14.736 -0.1171  0.1429 -0.0592
12693TIP3    H159494   3.346   3.936  14.772 -0.2855  0.2070 -0.4800
12693TIP3    H259495   3.492   3.942  14.811 -0.4617  1.9952 -0.0618
12694TIP3   OH259496   2.366   5.905  16.768  0.1019  0.3706 -0.3952
12694TIP3    H159497   2.413   5.989  16.771  1.5987 -0.4419  0.1403
12694TIP3    H259498   2.350   5.889  16.675  0.0240  1.1233 -0.5176
12695TIP3   OH259499   2.819   6.055  13.146  0.3432  0.2438  0.0889
12695TIP3    H159500   2.793   6.093  13.062  1.3763 -0.0952 -0.4020
12695TIP3    H259501   2.834   5.962  13.126  1.6348  0.3732  0.3968
12696TIP3   OH259502   3.173   3.726   3.682 -0.9247  0.4484  0.4529
12696TIP3    H159503   3.228   3.767   3.615  1.1588 -1.3311  0.9316
12696TIP3    H259504   3.088   3.769   3.674 -0.7782  0.3767 -3.2806
12697TIP3   OH259505   5.537   5.306   6.243 -0.0612  0.1433 -0.2870
12697TIP3    H159506   5.503   5.381   6.195  1.1534 -0.2583 -1.8781
12697TIP3    H259507   5.555   5.339   6.331 -0.6649  1.3773 -0.6074
12698TIP3   OH259508   0.303   6.509   5.550 -0.3650  0.0323 -0.5708
12698TIP3    H159509   0.234   6.521   5.485 -1.2063  1.5393  0.5123
12698TIP3    H259510   0.296   6.418   5.576 -2.1394  0.1972 -0.3325
12699TIP3   OH259511   4.638   3.584  13.149  0.3839 -0.7546  0.5783
12699TIP3    H159512   4.699   3.543  13.088  0.8857  0.9037 -0.0749
12699TIP3    H259513   4.617   3.514  13.212  0.8764 -2.1082 -0.7088
12700TIP3   OH259514   4.216   3.014  13.983  0.2393  0.5247 -0.0087
12700TIP3    H159515   4.145   3.072  13.957  1.3860  0.8745 -2.6989
12700TIP3    H259516   4.290   3.040  13.927  1.7391 -1.4308  0.9389
12701TIP3   OH259517   6.781   0.347  15.964 -0.1805 -0.0210 -0.1787
12701TIP3    H159518   6.837   0.337  16.041 -0.4416  0.0318  0.0199
12701TIP3    H259519   6.828   0.410  15.909 -0.4427  0.6729  0.3680
12702TIP3   OH259520   1.583   0.734  16.980 -0.2417 -0.5774  0.2227
12702TIP3    H159521   1.530   0.733  17.060 -1.1216  1.4992 -0.2751
12702TIP3    H259522   1.673   0.743  17.012 -0.5665  0.0667  0.9895
12703TIP3   OH259523   1.462   4.682  14.991 -0.5960  0.1241  0.0848
12703TIP3    H159524   1.552   4.708  14.974 -0.2793 -0.6272  0.5653
12703TIP3    H259525   1.426   4.660  14.905 -0.9188  2.2146 -0.3566
12704TIP3   OH259526   2.318   6.406  13.968 -0.1250 -0.3368 -0.6128
12704TIP3    H159527   2.234   6.435  14.003 -0.7354 -0.8393 -1.6310
12704TIP3    H259528   2.340   6.472  13.901  0.2876 -0.2272 -0.3788
12705TIP3   OH259529   2.772   4.121   6.514 -0.3181 -0.6131 -0.2823
12705TIP3    H159530   2.838   4.060   6.547  1.4155  1.0439 -0.5401
12705TIP3    H259531   2.704   4.064   6.477  0.0588 -2.4101  1.5985
12706TIP3   OH259532   3.727   5.646  11.227  0.2691  0.0276 -0.5622
12706TIP3    H159533   3.714   5.629  11.321 -0.3129  0.2727 -0.5914
12706TIP3    H259534   3.643   5.623  11.187  0.1601  0.9446 -0.8811
12707TIP3   OH259535   1.618   6.231   3.456 -0.1103 -0.2697  0.0003
12707TIP3    H159536   1.569   6.151   3.475  0.5443 -0.7238 -0.2336
12707TIP3    H259537   1.689   6.204   3.399 -0.7517  0.7217 -1.3264
12708TIP3   OH259538   2.620   2.361   6.357 -0.0533  0.1547  0.1130
12708TIP3    H159539   2.550   2.371   6.422 -0.6563 -0.7988 -0.3621
12708TIP3    H259540   2.700   2.382   6.405 -0.7539  2.9012  0.2672
12709TIP3   OH259541   3.870   5.141  10.958 -0.0294 -0.1499 -0.2135
12709TIP3    H159542   3.805   5.083  10.919  0.4816 -1.0918  0.2955
12709TIP3    H259543   3.825   5.225  10.966 -0.2896 -0.0466 -2.3698
12710TIP3   OH259544   5.912   5.184  14.659  0.1424  0.6444 -0.0137
12710TIP3    H159545   5.983   5.191  14.723  0.1507 -2.6414  0.5212
12710TIP3    H259546   5.945   5.123  14.593 -1.3038  0.9520 -1.0682
12711TIP3   OH259547   5.661   5.911  11.972  0.1908 -0.0232 -0.1690
12711TIP3    H159548   5.648   5.995  12.015 -0.5878 -0.1501 -0.1412
12711TIP3    H259549   5.752   5.887  11.992  0.2743  0.5897  0.2047
12712TIP3   OH259550   4.271   2.249   3.733 -0.2264  0.8399 -0.2486
12712TIP3    H159551   4.265   2.249   3.829 -0.6920  0.4534 -0.2739
12712TIP3    H259552   4.188   2.211   3.704 -0.7285  2.3191 -0.8432
12713TIP3   OH259553   3.956   0.059  16.751  0.6382 -0.2060 -0.1097
12713TIP3    H159554   4.021   0.014  16.805  1.0525  0.4559 -0.0389
12713TIP3    H259555   3.983   0.151  16.753  0.8344 -0.2067 -1.6747
12714TIP3   OH259556   4.025   1.354  14.323 -0.4687  0.1466  0.2678
12714TIP3    H159557   3.948   1.318  14.367  0.9718  0.5483  3.3489
12714TIP3    H259558   3.999   1.443  14.298 -0.5861  0.8380  2.6606
12715TIP3   OH259559   0.471   0.537  11.070 -0.1899  0.0646  0.1499
12715TIP3    H159560   0.390   0.583  11.046  1.3083  2.0887 -1.4244
12715TIP3    H259561   0.499   0.579  11.151  1.0077  1.8952 -1.1198
12716TIP3   OH259562   1.508   3.528   3.875 -0.0329 -0.6630 -0.0654
12716TIP3    H159563   1.503   3.473   3.953  4.2786 -2.4085 -0.7163
12716TIP3    H259564   1.485   3.470   3.803  2.2396 -1.0574 -0.5488
12717TIP3   OH259565   6.744   2.806  16.467 -0.4452  0.6061 -0.2933
12717TIP3    H159566   6.834   2.833  16.449 -0.4223 -0.0881 -1.3101
12717TIP3    H259567   6.690   2.872  16.423 -0.4101  0.1742 -0.9965
12718TIP3   OH259568   2.460   0.084  13.152 -0.0074 -0.0556  0.2283
12718TIP3    H159569   2.420   0.057  13.069 -0.9759  0.4455  0.5130
12718TIP3    H259570   2.550   0.106  13.129  0.1617 -1.3312 -0.4156
12719TIP3   OH259571   2.547   2.007   3.632 -0.2564  0.0569  0.3396
12719TIP3    H159572   2.499   1.924   3.631  0.4001 -0.3363  0.3488
12719TIP3    H259573   2.536   2.043   3.545 -0.5519 -0.0407  0.3380
12720TIP3   OH259574   3.105   0.274  15.473 -0.5017  0.1841 -0.2217
12720TIP3    H159575   3.075   0.183  15.476  1.2051 -0.4155 -0.6630
12720TIP3    H259576   3.024   0.325  15.476 -1.4771 -1.3203  0.5576
12721TIP3   OH259577   2.087   3.205   5.844 -0.1169 -0.2966 -0.1911
12721TIP3    H159578   2.110   3.194   5.936 -1.2519 -0.9288  0.0366
12721TIP3    H259579   2.168   3.232   5.802  0.2933  0.5704  1.0886
12722TIP3   OH259580   6.159   0.032   5.271 -0.1526  0.3957 -0.4365
12722TIP3    H159581   6.230   0.040   5.207 -0.6228 -0.5553 -1.0953
12722TIP3    H259582   6.187   0.087   5.345  0.6719  1.0393 -1.2076
12723TIP3   OH259583   4.548   1.373   5.981  0.6787  0.1494  0.0903
12723TIP3    H159584   4.458   1.372   6.014  0.5096  1.6382 -0.2294
12723TIP3    H259585   4.550   1.446   5.919  1.2492 -1.8997 -2.4798
12724TIP3   OH259586   4.462   1.755   4.700 -0.1917  0.8673  0.0815
12724TIP3    H159587   4.417   1.766   4.784  0.9740 -0.4936  0.9439
12724TIP3    H259588   4.550   1.725   4.724  0.4442  1.2602 -1.6157
12725TIP3   OH259589   1.690   6.133  13.381  0.1781 -0.2454 -0.3491
12725TIP3    H159590   1.739   6.051  13.383 -0.1489 -0.4535 -0.6323
12725TIP3    H259591   1.669   6.145  13.288 -0.1254 -0.0535 -0.2554
12726TIP3   OH259592   5.262   3.441  12.502  0.0868 -0.1260 -0.5932
12726TIP3    H159593   5.333   3.497  12.471  0.4067 -1.1229 -1.6869
12726TIP3    H259594   5.227   3.400  12.423 -2.3781  1.0928 -0.2310
12727TIP3   OH259595   5.774   3.355   5.299  0.3032  0.0735 -0.0622
12727TIP3    H159596   5.788   3.450   5.301  3.4515 -0.2570 -0.6616
12727TIP3    H259597   5.728   3.336   5.380 -0.3529  2.0977  0.1099
12728TIP3   OH259598   3.367   3.632  14.302 -0.8059  0.3496 -0.5973
12728TIP3    H159599   3.376   3.634  14.397 -0.9703 -1.5856 -0.4890
12728TIP3    H259600   3.314   3.709  14.281 -0.9930  0.6630  0.9097
12729TIP3   OH259601   5.102   5.302  12.933  0.3851 -0.4564  0.0883
12729TIP3    H159602   5.157   5.264  12.865  2.5950  2.2452  0.2049
12729TIP3    H259603   5.121   5.395  12.930 -2.6616  0.3497  1.6275
12730TIP3   OH259604   1.700   0.569  12.179  0.1610  0.0613 -0.1047
12730TIP3    H159605   1.653   0.647  12.209 -0.0546  0.0741 -0.4646
12730TIP3    H259606   1.691   0.506  12.250 -5.1859 -2.0070 -2.1465
12731TIP3   OH259607   6.001   2.492   3.875  0.1654 -0.2671  0.0976
12731TIP3    H159608   5.959   2.410   3.849  0.3955  0.1404 -1.6529
12731TIP3    H259609   6.054   2.517   3.800  1.4188  0.6415  1.2440
12732TIP3   OH259610   3.486   6.181   2.571  0.1632 -0.2453  0.0505
12732TIP3    H159611   3.392   6.164   2.580 -0.1450  0.8610 -0.8404
12732TIP3    H259612   3.512   6.214   2.657 -0.2142 -0.7547  0.3698
12733TIP3   OH259613   3.318   2.480   0.479 -0.2193  0.5814 -0.1471
12733TIP3    H159614   3.377   2.523   0.417  0.4706  2.5635  1.7416
12733TIP3    H259615   3.233   2.479   0.434 -0.1286  3.4940 -0.5712
12734TIP3   OH259616   4.928   4.759   6.008 -0.1599 -0.1540  0.6050
12734TIP3    H159617   4.938   4.829   6.072 -1.4503 -0.7025  1.4362
12734TIP3    H259618   4.884   4.801   5.934 -0.4469  0.0316  0.8810
12735TIP3   OH259619   3.673   6.703  15.801  0.2039 -0.3221  0.0640
12735TIP3    H159620   3.582   6.693  15.827  0.4304 -1.8663  0.3578
12735TIP3    H259621   3.700   6.616  15.773  1.3331  0.3068 -0.9129
12736TIP3   OH259622   4.044   0.743   6.006  0.2846  0.1031  0.3548
12736TIP3    H159623   4.129   0.785   5.993  1.8017 -2.5758  0.7874
12736TIP3    H259624   4.002   0.747   5.920 -0.1306  3.2013  0.5792
12737TIP3   OH259625   6.453   4.822   6.035 -0.2662  0.0057  0.2133
12737TIP3    H159626   6.382   4.846   5.974  0.9921  1.7011 -0.6689
12737TIP3    H259627   6.409   4.813   6.120 -1.4611  1.9105 -0.1313
12738TIP3   OH259628   1.356   1.213  15.797 -0.1189  0.0990  0.1137
12738TIP3    H159629   1.392   1.278  15.737 -0.0604  1.1559  1.2404
12738TIP3    H259630   1.379   1.246  15.884 -1.6451 -0.5047  0.7766
12739TIP3   OH259631   0.294   3.516  11.741  0.0480 -0.4593 -0.0671
12739TIP3    H159632   0.289   3.604  11.779 -2.8610 -1.3430  1.9371
12739TIP3    H259633   0.383   3.488  11.759  0.7414  1.6841  0.1594
12740TIP3   OH259634   4.971   0.129   2.851 -0.7485 -0.5219  0.0556
12740TIP3    H159635   4.890   0.081   2.833  0.3098 -1.9728 -1.1521
12740TIP3    H259636   4.959   0.213   2.806 -1.3811 -0.9336 -0.5722
12741TIP3   OH259637   2.953   3.980  14.986  0.0144  0.5198  0.1707
12741TIP3    H159638   2.975   3.922  15.059 -0.5122 -0.7988 -0.6817
12741TIP3    H259639   2.866   3.952  14.957 -0.7696  2.4830  0.4222
12742TIP3   OH259640   6.482   3.184   1.139 -0.0972  0.2616 -0.0977
12742TIP3    H159641   6.453   3.159   1.051  0.8818 -0.6271 -0.1962
12742TIP3    H259642   6.576   3.199   1.130 -0.0144  0.3382  0.7587
12743TIP3   OH259643   2.748   4.479  14.593 -0.0526  0.4032  0.0132
12743TIP3    H159644   2.670   4.508  14.641 -1.2699 -0.9249 -1.0730
12743TIP3    H259645   2.714   4.422  14.524  1.7492  1.2318 -1.6409
12744TIP3   OH259646   5.174   3.760   3.726  0.4826  0.1123  0.4010
12744TIP3    H159647   5.153   3.677   3.684  1.5390 -0.2609  0.5768
12744TIP3    H259648   5.124   3.825   3.677 -1.1660 -0.7271  0.9125
12745TIP3   OH259649   3.490   3.606  11.706  0.5627  0.5042 -0.0238
12745TIP3    H159650   3.585   3.614  11.714  0.6185 -0.2781  0.1892
12745TIP3    H259651   3.474   3.607  11.611  0.6584  1.8015 -0.0500
12746TIP3   OH259652   5.948   0.686   1.337 -0.4459 -0.3508 -0.9813
12746TIP3    H159653   5.946   0.607   1.283 -1.1269 -0.2223 -1.1543
12746TIP3    H259654   5.929   0.757   1.276  0.2652 -0.0335 -0.8469
12747TIP3   OH259655   3.397   6.258  13.240  0.6381 -0.0312  0.0217
12747TIP3    H159656   3.336   6.185  13.237 -0.3334  0.7894 -2.9000
12747TIP3    H259657   3.480   6.221  13.210  0.4791 -0.2433 -0.1589
12748TIP3   OH259658   4.499   2.752   3.095 -0.3656 -0.2384  0.7383
12748TIP3    H159659   4.553   2.685   3.136  0.7932 -1.0334 -1.8719
12748TIP3    H259660   4.428   2.768   3.158  0.9880 -1.6837  2.7454
12749TIP3   OH259661   6.299   5.490  10.638 -0.3148 -0.2233  0.2465
12749TIP3    H159662   6.273   5.420  10.698  1.8348  0.2133  1.7895
12749TIP3    H259663   6.394   5.494  10.645 -0.2054  1.4603 -1.4269
12750TIP3   OH259664   2.019   5.700  11.697 -0.6888 -0.1723 -0.1486
12750TIP3    H159665   2.037   5.719  11.789  0.2941  0.5235 -0.4676
12750TIP3    H259666   2.023   5.605  11.691 -1.4816 -0.2676  0.6605
12751TIP3   OH259667   4.464   6.602   1.207  0.0524  0.3357  0.2602
12751TIP3    H159668   4.452   6.524   1.153  0.6566  1.7092 -2.0094
12751TIP3    H259669   4.375   6.626   1.234 -0.3084 -0.2471 -0.3646
12752TIP3   OH259670   2.283   3.576   4.943 -0.2374  0.0079 -0.8673
12752TIP3    H159671   2.200   3.623   4.930 -0.9181 -0.1563  2.0710
12752TIP3    H259672   2.257   3.484   4.947  0.4269 -0.2403 -1.9972
12753TIP3   OH259673   5.059   5.266  15.431 -0.2394 -0.2287  0.0540
12753TIP3    H159674   5.013   5.185  15.453 -0.7817 -0.1035 -0.6015
12753TIP3    H259675   5.004   5.309  15.366  0.1939  0.5264  0.1703
12754TIP3   OH259676   3.393   6.180   3.674  0.3240 -0.0460 -0.2538
12754TIP3    H159677   3.410   6.246   3.742 -2.4110  0.4830  0.0277
12754TIP3    H259678   3.338   6.115   3.718  2.1118 -2.0661 -0.8182
12755TIP3   OH259679   2.569   3.191   2.668  0.1570  0.3018  0.2402
12755TIP3    H159680   2.475   3.189   2.684  0.0334  1.4613 -0.2617
12755TIP3    H259681   2.598   3.100   2.681 -0.8083  0.1650  1.6263
12756TIP3   OH259682   2.906   0.746  15.191 -0.0688 -0.0769 -0.3686
12756TIP3    H159683   2.994   0.712  15.204  0.9596  2.7907  1.0353
12756TIP3    H259684   2.905   0.781  15.102  0.1403 -0.2383 -0.4338
12757TIP3   OH259685   0.223   5.965   6.456 -0.5230 -0.1431 -0.1626
12757TIP3    H159686   0.186   5.900   6.396  1.8419 -1.9987  0.2022
12757TIP3    H259687   0.152   5.987   6.515 -1.7148 -1.6236 -0.9789
12758TIP3   OH259688   3.344   6.555   5.900  0.3145 -0.0025 -0.5361
12758TIP3    H159689   3.297   6.506   5.967  0.2216  0.1650 -0.4770
12758TIP3    H259690   3.290   6.633   5.885 -0.2462 -0.5768 -1.6088
12759TIP3   OH259691   3.768   4.792  16.972 -0.1992  0.2783  0.5417
12759TIP3    H159692   3.739   4.763  16.885 -0.9053 -0.0757  0.8822
12759TIP3    H259693   3.824   4.867  16.955 -1.0462  0.7722 -0.1826
12760TIP3   OH259694   6.683   6.485  15.323  0.0993  0.1503  0.3976
12760TIP3    H159695   6.670   6.457  15.414 -2.0819  0.4425  0.2256
12760TIP3    H259696   6.600   6.525  15.298  1.0104  1.0448 -1.4072
12761TIP3   OH259697   1.603   6.710  17.168  0.3411 -0.2525 -0.1015
12761TIP3    H159698   1.628   6.752  17.251  2.6457  0.2941 -1.0157
12761TIP3    H259699   1.530   6.764  17.136  2.0978  2.0886 -0.3842
12762TIP3   OH259700   3.198   3.795  12.923 -0.3396  0.5103 -0.2300
12762TIP3    H159701   3.163   3.746  12.997 -0.8691  0.4192 -0.5360
12762TIP3    H259702   3.266   3.738  12.887 -0.5851  0.2298 -0.2586
12763TIP3   OH259703   2.137   4.370   5.200 -0.0634  0.4344 -0.2705
12763TIP3    H159704   2.221   4.389   5.158  0.5894 -0.3673  0.6355
12763TIP3    H259705   2.076   4.433   5.161  0.8004  0.5845 -1.4350
12764TIP3   OH259706   5.950   0.890   1.085 -0.3525  0.0403 -0.6189
12764TIP3    H159707   5.984   0.978   1.068  1.5977 -0.5718 -0.1394
12764TIP3    H259708   5.883   0.876   1.019  0.6238  1.1844 -1.8919
12765TIP3   OH259709   0.037   5.885   5.109  0.2966  0.0876  0.2030
12765TIP3    H159710   0.035   5.963   5.053  2.0638  0.3819  0.4948
12765TIP3    H259711   0.128   5.878   5.138 -0.5475  0.0575  3.1927
12766TIP3   OH259712   0.463   4.964   4.779 -0.3586 -0.4912  0.1174
12766TIP3    H159713   0.384   4.974   4.725  0.7744 -1.0613 -1.7438
12766TIP3    H259714   0.492   4.874   4.762  1.3296  0.0799 -0.1961
12767TIP3   OH259715   6.128   2.425   4.765  0.2262 -0.3540  0.1222
12767TIP3    H159716   6.108   2.343   4.721 -1.5327  1.0002 -1.7868
12767TIP3    H259717   6.103   2.493   4.702  2.5327  1.6680  1.2209
12768TIP3   OH259718   3.594   3.261   3.282  0.0251 -0.4295 -0.6990
12768TIP3    H159719   3.523   3.306   3.237 -0.7133 -2.0529 -1.2127
12768TIP3    H259720   3.673   3.308   3.255 -0.4905 -0.7300 -2.9240
12769TIP3   OH259721   0.662   2.991  16.599 -0.1254 -0.2813 -0.0911
12769TIP3    H159722   0.674   2.961  16.508 -1.7423 -0.2491 -0.3432
12769TIP3    H259723   0.700   3.078  16.601 -0.4573 -0.1127 -0.8567
12770TIP3   OH259724   4.753   2.049  16.126  0.8513 -0.5239  0.5263
12770TIP3    H159725   4.792   2.034  16.212 -0.7351  0.8366  1.5559
12770TIP3    H259726   4.659   2.055  16.143  0.6096  1.4101 -1.0097
12771TIP3   OH259727   0.188   0.637  16.547 -0.5238 -0.4176 -0.3103
12771TIP3    H159728   0.244   0.621  16.623 -1.1862 -1.5850 -0.0518
12771TIP3    H259729   0.130   0.708  16.574 -0.3410 -0.4019  0.0456
12772TIP3   OH259730   3.077   2.837  11.463  0.3588  0.6293  0.3013
12772TIP3    H159731   3.124   2.826  11.380  0.9372  0.2718  0.6642
12772TIP3    H259732   3.141   2.878  11.521  0.5370 -0.7018  1.0770
12773TIP3   OH259733   3.331   6.767   5.382  0.2105 -0.5959  0.5084
12773TIP3    H159734   3.264   6.727   5.438 -0.8231  0.6637  0.2221
12773TIP3    H259735   3.289   6.774   5.296  0.8222 -0.0614  0.2430
12774TIP3   OH259736   0.951   1.713   4.636  0.0882 -0.3355 -0.5705
12774TIP3    H159737   0.859   1.706   4.607 -0.0394  1.3772 -0.6669
12774TIP3    H259738   0.977   1.622   4.652 -2.3983 -0.7506  1.9062
12775TIP3   OH259739   3.425   5.077   2.954  0.1591 -0.0055  0.1326
12775TIP3    H159740   3.339   5.073   2.995 -0.7261  0.4270 -1.6193
12775TIP3    H259741   3.483   5.108   3.024 -1.1586  0.0683  1.2321
12776TIP3   OH259742   5.710   1.403  12.211  0.7973 -0.0805  0.1933
12776TIP3    H159743   5.704   1.491  12.249  0.0632  0.3702 -0.9371
12776TIP3    H259744   5.765   1.415  12.133  1.2199 -0.7564  0.3793
12777TIP3   OH259745   1.910   3.880  14.124  0.2956  0.0582 -0.1166
12777TIP3    H159746   1.992   3.834  14.140  0.6028  0.0753 -1.5071
12777TIP3    H259747   1.842   3.818  14.151  0.7263  0.5697  2.4017
12778TIP3   OH259748   4.797   3.191   5.538  0.2797  0.0802  0.0887
12778TIP3    H159749   4.873   3.217   5.589  0.1146 -0.3793  0.5805
12778TIP3    H259750   4.723   3.201   5.598 -0.1418  1.1505 -0.5844
12779TIP3   OH259751   0.470   2.466   0.887 -0.4559  0.3312  0.1668
12779TIP3    H159752   0.422   2.395   0.931 -1.4615 -0.3780 -1.9459
12779TIP3    H259753   0.556   2.429   0.869 -1.3825 -0.9450 -2.0891
12780TIP3   OH259754   5.985   6.258   1.904  0.2030 -0.6005 -0.3499
12780TIP3    H159755   6.073   6.225   1.889  0.7174  0.2886  0.6033
12780TIP3    H259756   5.996   6.353   1.910 -0.3656 -0.6519  2.5866
12781TIP3   OH259757   5.614   1.898  15.848 -0.4734 -0.1011  0.4408
12781TIP3    H159758   5.568   1.828  15.802 -0.0100 -0.4915  0.5642
12781TIP3    H259759   5.600   1.880  15.941 -1.3153  0.6239  0.4714
12782TIP3   OH259760   4.501   2.112   3.864  0.1509  0.0122 -0.0462
12782TIP3    H159761   4.575   2.082   3.813  0.1589 -0.4522  0.2282
12782TIP3    H259762   4.450   2.165   3.804 -0.6186 -1.6974 -0.9905
12783TIP3   OH259763   5.931   0.154   4.500  0.4377  0.2687 -0.1716
12783TIP3    H159764   5.915   0.065   4.532  1.5078  0.0185 -0.2771
12783TIP3    H259765   5.866   0.167   4.432  1.1983 -1.0152 -1.1931
12784TIP3   OH259766   1.178   5.657  16.856  0.6519  0.5007  0.1742
12784TIP3    H159767   1.123   5.715  16.908  1.3746  0.9705  0.4300
12784TIP3    H259768   1.245   5.626  16.916  0.6530 -0.0884 -0.1241
12785TIP3   OH259769   3.368   2.355  13.124 -0.0480 -0.6631  0.5960
12785TIP3    H159770   3.457   2.335  13.151  0.1847  0.5708  0.8382
12785TIP3    H259771   3.350   2.441  13.163 -2.1950 -1.8812  2.5657
12786TIP3   OH259772   1.895   5.084   2.293 -0.4996 -0.2750 -0.1593
12786TIP3    H159773   1.972   5.123   2.252  1.4927  1.0998  4.2520
12786TIP3    H259774   1.918   4.991   2.303 -0.0126 -0.1626 -0.1931
12787TIP3   OH259775   1.056   2.588   4.964 -0.3525  0.2205 -0.3117
12787TIP3    H159776   1.046   2.507   5.014  0.7519 -0.2431 -0.8111
12787TIP3    H259777   1.119   2.640   5.015  0.4276 -0.0611 -0.9788
12788TIP3   OH259778   3.577   0.018   5.936 -0.0395  0.3904  0.2161
12788TIP3    H159779   3.500  -0.036   5.918 -0.4318  0.7139  0.8800
12788TIP3    H259780   3.634   0.005   5.861 -0.1499 -0.9056  0.3427
12789TIP3   OH259781   3.206   2.170   2.037 -0.0063  0.4691  0.1483
12789TIP3    H159782   3.115   2.179   2.065  0.4914  1.6424  1.5095
12789TIP3    H259783   3.231   2.256   2.006  0.3177 -0.1353 -1.3331
12790TIP3   OH259784   0.960   4.399  11.430 -0.0045 -0.2783  0.5305
12790TIP3    H159785   0.942   4.391  11.336 -1.1605 -1.7405  0.8327
12790TIP3    H259786   0.996   4.315  11.455 -0.8331 -0.3400  1.6034
12791TIP3   OH259787   3.582   0.704   4.094 -0.4283  0.1554 -0.2211
12791TIP3    H159788   3.525   0.639   4.135 -1.0089  0.1787 -0.9614
12791TIP3    H259789   3.633   0.653   4.029  2.1878 -0.3453  2.0345
12792TIP3   OH259790   3.265   5.432  15.968  0.3616 -0.1248  0.1674
12792TIP3    H159791   3.330   5.376  15.924  0.3391 -1.4538  1.7099
12792TIP3    H259792   3.184   5.382  15.964  0.7403 -1.1721  3.1769
12793TIP3   OH259793   2.661   5.871   3.396  0.3104 -1.3271  0.0341
12793TIP3    H159794   2.691   5.781   3.411 -0.4075 -1.3853  1.2256
12793TIP3    H259795   2.565   5.865   3.396  0.0173 -1.3970 -5.1301
12794TIP3   OH259796   2.961   2.064   1.463 -0.0652  0.1603 -0.1375
12794TIP3    H159797   2.998   1.981   1.494 -1.5057  0.3214  2.3089
12794TIP3    H259798   3.037   2.121   1.452  0.6950 -0.1323  2.7001
12795TIP3   OH259799   3.484   6.558   5.114  0.0445  0.4461 -0.5999
12795TIP3    H159800   3.433   6.574   5.034 -0.1515  0.7094 -0.4239
12795TIP3    H259801   3.570   6.529   5.083 -0.6073 -1.3072 -0.9122
12796TIP3   OH259802   4.414   2.251  14.208 -0.3098  0.5183  0.6629
12796TIP3    H159803   4.388   2.160  14.219  0.6988  0.0244 -0.7893
12796TIP3    H259804   4.345   2.301  14.253 -2.4293 -0.8103 -0.9204
12797TIP3   OH259805   3.418   5.005   1.301  0.0059  0.3571  0.2885
12797TIP3    H159806   3.508   4.974   1.304 -0.0419  0.1080 -0.7588
12797TIP3    H259807   3.388   5.000   1.392  0.6476 -0.7425  0.4506
12798TIP3   OH259808   1.728   0.460  14.009  0.3307  0.0072  0.3594
12798TIP3    H159809   1.772   0.544  13.996 -1.6064  0.8297 -1.5351
12798TIP3    H259810   1.798   0.395  14.004  1.6233  1.3895 -0.1885
12799TIP3   OH259811   4.931   5.289  16.907 -0.2695 -0.2197 -0.4893
12799TIP3    H159812   4.965   5.352  16.970  0.3361 -0.7261 -0.3033
12799TIP3    H259813   4.853   5.331  16.871  1.0242  1.3910 -1.6004
12800TIP3   OH259814   3.410   3.583  13.619  1.2279  0.0706 -0.1383
12800TIP3    H159815   3.344   3.625  13.565 -0.3767 -1.5884  0.4221
12800TIP3    H259816   3.420   3.641  13.695  0.9210  0.6671 -0.5523
12801TIP3   OH259817   1.253   5.736   3.655  0.1711 -0.2525  0.0324
12801TIP3    H159818   1.280   5.700   3.739 -0.5501  0.3502  0.5301
12801TIP3    H259819   1.158   5.750   3.664 -0.5014 -2.8036 -1.8360
12802TIP3   OH259820   1.011   5.830  14.278 -0.3550  0.3335  0.8410
12802TIP3    H159821   1.101   5.863  14.273  0.3060 -1.5539 -2.1406
12802TIP3    H259822   1.016   5.760  14.344  0.9109 -0.9628 -0.5234
12803TIP3   OH259823   4.928   2.214   3.865  0.2422  0.1024  0.4251
12803TIP3    H159824   4.991   2.187   3.931  2.1183  1.8953 -0.5130
12803TIP3    H259825   4.976   2.276   3.810 -1.9449  0.4807 -1.1972
12804TIP3   OH259826   5.467   2.792   5.566 -0.0583 -0.2720  0.4619
12804TIP3    H159827   5.389   2.756   5.609 -0.1104  0.2355  0.8029
12804TIP3    H259828   5.449   2.886   5.560  0.8599 -0.0346  1.2514
12805TIP3   OH259829   4.961   1.368   5.346  0.5784  0.6304  0.3288
12805TIP3    H159830   4.934   1.459   5.331 -0.3586  0.1461 -1.2477
12805TIP3    H259831   4.941   1.351   5.438  2.2657  2.4669  1.1048
12806TIP3   OH259832   5.863   2.713   2.279 -0.2627 -0.1469  0.2037
12806TIP3    H159833   5.945   2.724   2.231  0.0499 -1.1262  0.4953
12806TIP3    H259834   5.860   2.788   2.338 -0.3213  0.7091 -0.8477
12807TIP3   OH259835   0.998   5.773   6.272  0.1710  0.0240 -0.1159
12807TIP3    H159836   1.046   5.707   6.221 -0.6255 -1.3554  0.8528
12807TIP3    H259837   0.956   5.723   6.342 -0.6152  1.5541  0.5468
12808TIP3   OH259838   0.798   6.385  16.130 -0.0908 -0.0311  0.0453
12808TIP3    H159839   0.809   6.457  16.067  0.2546  0.3149  0.4865
12808TIP3    H259840   0.714   6.346  16.108  0.3265 -0.3443 -1.0580
12809TIP3   OH259841   4.428   2.476   2.358  0.0806 -0.1532 -0.2442
12809TIP3    H159842   4.369   2.524   2.300  0.7436 -0.1270 -0.9141
12809TIP3    H259843   4.499   2.538   2.377  1.0058 -0.8685 -1.2089
12810TIP3   OH259844   2.381   6.553  16.663 -0.0195 -0.3609  0.2165
12810TIP3    H159845   2.339   6.578  16.581 -1.3204 -0.0383  0.9469
12810TIP3    H259846   2.318   6.579  16.731  1.2330 -0.1613  1.3483
12811TIP3   OH259847   4.526   3.441   2.394 -0.1083  0.2607 -0.2253
12811TIP3    H159848   4.464   3.474   2.458  1.6128  1.9759  0.6794
12811TIP3    H259849   4.561   3.520   2.352  1.1064 -0.6651 -1.0152
12812TIP3   OH259850   5.441   0.937  11.001 -0.2329 -0.7505  0.5398
12812TIP3    H159851   5.359   0.962  10.958  0.0765 -1.6596 -0.6312
12812TIP3    H259852   5.437   0.842  11.006  1.0505 -0.8661 -0.1829
12813TIP3   OH259853   2.753   0.330  11.251  0.1230 -0.3402  0.5575
12813TIP3    H159854   2.753   0.337  11.156  0.1531  0.3622  0.6062
12813TIP3    H259855   2.817   0.262  11.271 -0.1707 -0.7661  0.0583
12814TIP3   OH259856   1.720   6.757   1.412 -0.4284  0.1043 -0.2778
12814TIP3    H159857   1.626   6.746   1.395 -0.2550 -0.2134 -1.0286
12814TIP3    H259858   1.751   6.668   1.432 -0.2871  0.2152  0.0072
12815TIP3   OH259859   0.400   2.502  14.136  0.2860 -0.8019  0.1488
12815TIP3    H159860   0.479   2.502  14.191  0.2689  0.2852  0.1851
12815TIP3    H259861   0.368   2.412  14.142  2.1982 -1.6216 -0.8480
12816TIP3   OH259862   0.258   3.153   2.652  0.5166  0.8965  0.3962
12816TIP3    H159863   0.185   3.128   2.708  1.9730  0.6749  2.3009
12816TIP3    H259864   0.306   3.072   2.637 -0.5667  0.6487 -2.4512
12817TIP3   OH259865   3.089   0.304  14.900 -0.0295 -0.3777 -0.2965
12817TIP3    H159866   3.081   0.348  14.985  1.3065  1.3159 -0.9858
12817TIP3    H259867   3.045   0.363  14.839  1.2452 -0.2963 -1.1603
12818TIP3   OH259868   0.244   3.828   4.935  0.0039  0.0280 -0.3471
12818TIP3    H159869   0.317   3.849   4.993  0.4585 -0.1080 -0.8560
12818TIP3    H259870   0.207   3.913   4.910  0.4095  0.1302 -0.6115
12819TIP3   OH259871   3.463   2.286   1.686 -0.4334  0.3533 -0.0586
12819TIP3    H159872   3.503   2.350   1.745  0.5469 -0.9081  0.6908
12819TIP3    H259873   3.374   2.274   1.720 -0.3713  0.7531  0.2457
12820TIP3   OH259874   6.292   3.653  16.334  0.1604  0.6980  0.0985
12820TIP3    H159875   6.205   3.642  16.296  0.7545 -0.5779 -0.9627
12820TIP3    H259876   6.320   3.740  16.304 -0.3656  0.7179 -0.3624
12821TIP3   OH259877   6.245   4.663  14.266 -0.0552  0.7679  0.4852
12821TIP3    H159878   6.327   4.625  14.298  0.2075  0.5827 -0.3771
12821TIP3    H259879   6.239   4.748  14.310 -0.4085 -0.0272  2.0748
12822TIP3   OH259880   2.983   1.334  13.227  0.4200  0.2157 -0.0911
12822TIP3    H159881   3.037   1.256  13.240  0.4578  0.2401 -0.1032
12822TIP3    H259882   2.902   1.301  13.187  0.9714  0.3480 -1.3574
12823TIP3   OH259883   0.841   3.668  14.953 -0.2663  0.4116 -0.3143
12823TIP3    H159884   0.876   3.599  14.897  0.7454  0.1623  0.5889
12823TIP3    H259885   0.919   3.709  14.991 -0.8404  2.0743 -0.8484
12824TIP3   OH259886   1.419   4.949  12.096 -0.0198  0.0177 -0.0251
12824TIP3    H159887   1.349   4.987  12.150  0.1046 -0.8283  0.7537
12824TIP3    H259888   1.404   4.986  12.009  0.2042  1.9796  0.7202
12825TIP3   OH259889   6.614   1.131   0.201 -0.7092 -0.3223  0.3770
12825TIP3    H159890   6.657   1.118   0.286  2.6103  1.0119 -0.9149
12825TIP3    H259891   6.597   1.043   0.169  0.8026 -0.9442  1.1780
12826TIP3   OH259892   2.863   5.261  13.306  0.2848 -0.0525 -0.1662
12826TIP3    H159893   2.876   5.267  13.211 -1.4469 -0.4986 -0.4714
12826TIP3    H259894   2.796   5.193  13.316  1.4144 -0.9819  1.4804
12827TIP3   OH259895   1.898   3.563  17.005  0.5284 -0.0280  0.1134
12827TIP3    H159896   1.968   3.507  17.038  1.4536  1.5846  1.0272
12827TIP3    H259897   1.915   3.570  16.911  0.1809 -1.5268 -0.0837
12828TIP3   OH259898   1.106   6.768   3.768  0.1041  0.0587  0.1328
12828TIP3    H159899   1.064   6.730   3.691  0.7410 -0.7902  0.1935
12828TIP3    H259900   1.193   6.796   3.738  1.8370 -3.5132  1.2395
12829TIP3   OH259901   5.619   0.481   5.127  0.5046  0.0138 -0.4252
12829TIP3    H159902   5.665   0.412   5.175  2.2653  1.7099  0.4714
12829TIP3    H259903   5.536   0.441   5.101  0.2158 -1.5799  2.4948
12830TIP3   OH259904   0.671   4.834  15.949  0.3933 -0.0429  0.4753
12830TIP3    H159905   0.649   4.828  15.857  0.3263 -0.3713  0.5126
12830TIP3    H259906   0.706   4.923  15.960  1.3601 -0.3437 -0.0727
12831TIP3   OH259907   6.495   0.939  12.084  0.0483  0.7294 -0.3581
12831TIP3    H159908   6.487   1.005  12.154 -2.3587  0.9400 -0.7241
12831TIP3    H259909   6.476   0.987  12.004  1.9157  0.2998 -1.1050
12832TIP3   OH259910   1.615   2.914  14.714 -0.0626  0.2429 -0.0396
12832TIP3    H159911   1.666   2.859  14.774  0.1687  1.0718  0.5515
12832TIP3    H259912   1.618   2.869  14.630  1.2686  0.0468  0.0977
12833TIP3   OH259913   1.818   6.433  11.928 -0.1845  0.7995 -0.1686
12833TIP3    H159914   1.799   6.365  11.863  0.6597 -0.2715  0.6721
12833TIP3    H259915   1.740   6.488  11.929 -0.6959  0.1225 -1.1991
12834TIP3   OH259916   3.814   4.037   1.557 -0.1609 -0.0027  0.4185
12834TIP3    H159917   3.728   4.013   1.592 -0.3566 -0.4601 -0.3697
12834TIP3    H259918   3.823   4.131   1.578 -1.0024  0.1354  0.1877
12835TIP3   OH259919   6.532   2.040  16.465 -0.3542  0.1685 -0.5419
12835TIP3    H159920   6.499   1.972  16.406 -2.0060  1.8218 -1.6529
12835TIP3    H259921   6.477   2.032  16.543  1.9524 -2.1397  0.9863
12836TIP3   OH259922   4.311   2.560  10.941 -0.1035 -0.6334  0.0171
12836TIP3    H159923   4.360   2.617  10.881 -1.6973  2.2624  1.2750
12836TIP3    H259924   4.376   2.532  11.005  0.9333 -1.1636 -1.2051
12837TIP3   OH259925   3.205   5.071   0.769 -0.5611 -0.5951 -0.6004
12837TIP3    H159926   3.135   5.073   0.703  0.0487 -0.8828 -1.2683
12837TIP3    H259927   3.220   5.163   0.790 -0.5241 -0.4760 -1.1239
12838TIP3   OH259928   3.690   5.278  14.687 -0.2842 -0.1374  0.3780
12838TIP3    H159929   3.722   5.190  14.664 -1.9016 -0.2541 -1.7198
12838TIP3    H259930   3.667   5.318  14.603  0.7141  2.4717  1.2303
12839TIP3   OH259931   5.536   1.552   1.062  0.0739 -0.5516  0.3706
12839TIP3    H159932   5.610   1.596   1.019 -0.0873 -0.7147 -0.0753
12839TIP3    H259933   5.460   1.604   1.036 -0.0643 -0.8449  0.1916
12840TIP3   OH259934   0.678   6.239   3.078 -0.2963 -0.1392  0.0604
12840TIP3    H159935   0.694   6.209   2.988 -0.4130 -2.4738  0.7567
12840TIP3    H259936   0.595   6.286   3.072 -0.2126 -0.0905 -1.0766
12841TIP3   OH259937   2.847   1.302  17.199  0.5379 -0.0304  0.0927
12841TIP3    H159938   2.877   1.390  17.218 -1.6223  0.9828 -0.8401
12841TIP3    H259939   2.881   1.249  17.270  0.4196  1.8879  1.6510
12842TIP3   OH259940   4.116   2.495  13.053  0.2343 -0.1126 -0.5006
12842TIP3    H159941   4.164   2.566  13.010 -0.6266  0.1246 -1.1175
12842TIP3    H259942   4.127   2.420  12.994 -0.2410 -0.0201 -0.7158
12843TIP3   OH259943   0.023   3.601   5.144  0.4437 -0.2461  0.1827
12843TIP3    H159944   0.014   3.514   5.106  2.3676 -0.7568  0.7993
12843TIP3    H259945   0.078   3.648   5.082 -2.0737  1.2345 -1.1257
12844TIP3   OH259946   5.078   0.891  15.448  0.1530  0.3593  0.2593
12844TIP3    H159947   5.080   0.925  15.359 -0.4515  0.8823  0.4466
12844TIP3    H259948   5.013   0.821  15.445 -1.0966  1.4643  0.6651
12845TIP3   OH259949   3.000   5.176   0.624  0.7101  0.8541  0.1735
12845TIP3    H159950   3.023   5.180   0.531  1.1237  2.8555  0.3028
12845TIP3    H259951   2.942   5.251   0.638  0.2195  0.2776  1.4335
12846TIP3   OH259952   2.378   5.912  13.756 -0.3425  0.2738 -0.6544
12846TIP3    H159953   2.422   5.877  13.833 -0.6458 -1.9580 -1.3946
12846TIP3    H259954   2.438   5.976  13.720  0.3924  0.3606  0.6819
12847TIP3   OH259955   4.440   3.288  14.349  0.3460 -1.0555  0.2966
12847TIP3    H159956   4.372   3.252  14.293  0.1118  0.8124 -0.6764
12847TIP3    H259957   4.399   3.296  14.435  0.3375 -2.8128  0.4888
12848TIP3   OH259958   5.562   1.921   4.861 -0.7309  0.3731  0.4065
12848TIP3    H159959   5.508   1.926   4.782 -0.5747  0.2539  0.2913
12848TIP3    H259960   5.574   1.827   4.875 -2.2059  0.3279  1.5681
12849TIP3   OH259961   2.354   4.686  16.192 -0.1666  0.1546 -0.2390
12849TIP3    H159962   2.285   4.694  16.127  1.5269  1.2499 -1.9921
12849TIP3    H259963   2.420   4.630  16.151  0.2372 -0.4899  1.2091
12850TIP3   OH259964   2.610   4.871   2.560  0.0006 -0.0897 -0.3643
12850TIP3    H159965   2.669   4.843   2.630 -0.2208 -0.0325 -0.1539
12850TIP3    H259966   2.663   4.928   2.504 -0.3238  1.4343  0.8103
12851TIP3   OH259967   0.496   5.094   3.093 -0.2763  0.4655  0.2755
12851TIP3    H159968   0.497   5.156   3.165  0.3241  0.2439  0.4589
12851TIP3    H259969   0.576   5.112   3.044 -1.1349  1.2552 -0.8982
12852TIP3   OH259970   4.770   1.584   4.112 -0.2929 -0.5660 -0.3643
12852TIP3    H159971   4.726   1.499   4.114 -0.1793 -0.7961 -3.0274
12852TIP3    H259972   4.704   1.644   4.078  0.7141 -0.4655 -2.2985
12853TIP3   OH259973   4.891   3.286   5.785 -0.2013 -0.3065  0.2488
12853TIP3    H159974   4.874   3.232   5.862 -0.4808  0.5549  0.8103
12853TIP3    H259975   4.826   3.356   5.790 -0.0602 -0.1010 -0.6389
12854TIP3   OH259976   2.386   3.107  11.742  0.2632 -0.2710  0.1134
12854TIP3    H159977   2.438   3.179  11.777  0.6652  0.0073 -1.0040
12854TIP3    H259978   2.451   3.045  11.708 -0.1015 -0.6917  0.1676
12855TIP3   OH259979   4.154   0.058  13.510 -0.4207  0.1517 -0.1005
12855TIP3    H159980   4.224   0.108  13.552 -2.1043  2.2974  0.3083
12855TIP3    H259981   4.194   0.025  13.429  0.2011  4.3612 -1.7416
12856TIP3   OH259982   2.694   5.675   0.377  0.2585 -0.5681 -0.0973
12856TIP3    H159983   2.732   5.686   0.290  0.4626  0.3728  0.1002
12856TIP3    H259984   2.610   5.720   0.373 -0.8137 -2.4750 -0.4745
12857TIP3   OH259985   1.119   0.062   0.355  0.0512  0.4245 -0.2125
12857TIP3    H159986   1.036   0.069   0.308  0.6794  2.1692 -1.1592
12857TIP3    H259987   1.126   0.144   0.405  1.9202  1.1048 -1.4637
12858TIP3   OH259988   0.323   3.065  10.804  0.4082 -0.0676  0.3478
12858TIP3    H159989   0.265   3.132  10.840  1.2365  0.1526  1.3369
12858TIP3    H259990   0.391   3.113  10.758  0.0719 -0.3077 -0.4184
12859TIP3   OH259991   1.597   0.035   0.474  0.2089  0.3791  0.1198
12859TIP3    H159992   1.673  -0.023   0.481 -0.3651 -0.5334 -0.7933
12859TIP3    H259993   1.544   0.015   0.551 -0.6305 -1.3400 -0.8317
12860TIP3   OH259994   1.831   2.334  15.339 -0.2369  0.2956  0.6584
12860TIP3    H159995   1.820   2.427  15.361 -0.0337  0.2406  1.0111
12860TIP3    H259996   1.868   2.334  15.251 -2.3810  0.4968 -0.3008
12861TIP3   OH259997   0.908   2.645   0.476 -0.0740 -0.1567  0.0039
12861TIP3    H159998   0.817   2.617   0.467 -0.3978  0.9925 -0.5746
12861TIP3    H259999   0.939   2.602   0.555 -0.2874 -2.6876 -1.2051
12862TIP3   OH260000   5.323   3.925   5.358 -0.0142 -0.6883  0.0797
12862TIP3    H160001   5.234   3.958   5.358 -0.2321 -1.1721 -1.8670
12862TIP3    H260002   5.317   3.840   5.313  1.1255 -1.6269  1.6102
12863TIP3   OH260003   4.082   4.511  15.580 -0.2360 -0.0074  0.2967
12863TIP3    H160004   4.171   4.486  15.556  0.1287  0.2461  1.3070
12863TIP3    H260005   4.092   4.556  15.664 -1.3882 -0.5583  0.7545
12864TIP3   OH260006   0.228   6.717   0.111 -0.6834 -0.9585 -0.1667
12864TIP3    H160007   0.283   6.678   0.179  0.7154 -0.3065 -0.9044
12864TIP3    H260008   0.170   6.776   0.159  0.7491  0.0213  0.4391
12865TIP3   OH260009   5.963   1.767   4.368 -0.4465 -0.4333 -0.0834
12865TIP3    H160010   5.994   1.824   4.298  0.3277  0.0944  0.6572
12865TIP3    H260011   5.992   1.811   4.448 -1.4451 -0.9441  0.5731
12866TIP3   OH260012   5.044   6.127  16.556 -0.1040 -0.3825  0.4138
12866TIP3    H160013   5.094   6.122  16.474  1.3748 -1.8532  1.3207
12866TIP3    H260014   4.955   6.148  16.529  0.4701 -0.2036 -1.5190
12867TIP3   OH260015   2.944   1.873  14.288  0.3857 -0.8168 -0.8596
12867TIP3    H160016   2.972   1.929  14.361  0.8905 -0.6342 -1.1894
12867TIP3    H260017   2.991   1.790  14.303  1.4741 -0.3588 -1.6645
12868TIP3   OH260018   0.753   0.506  13.508  0.1223 -0.0587  0.1506
12868TIP3    H160019   0.820   0.573  13.518  0.1810 -0.0290 -0.3817
12868TIP3    H260020   0.695   0.518  13.583  0.0530  0.6808 -0.0125
12869TIP3   OH260021   0.441   3.505  16.625  0.0656 -0.8034 -0.4443
12869TIP3    H160022   0.355   3.537  16.650 -0.1778 -1.0889 -0.8937
12869TIP3    H260023   0.502   3.570  16.658 -0.5178  1.5189 -3.4555
12870TIP3   OH260024   3.307   0.381   1.401 -0.1551 -0.4008  0.0545
12870TIP3    H160025   3.285   0.352   1.490  1.2616 -1.4049  0.0982
12870TIP3    H260026   3.399   0.404   1.405 -0.4589  1.1110 -0.7906
12871TIP3   OH260027   4.336   6.745   1.578 -1.0190  0.5402 -0.7413
12871TIP3    H160028   4.287   6.806   1.633 -0.9839 -0.2822  0.2408
12871TIP3    H260029   4.405   6.798   1.538  1.2679  0.6193  2.8108
12872TIP3   OH260030   3.423   2.635   5.897  0.4871 -0.0312 -0.1384
12872TIP3    H160031   3.344   2.628   5.950 -1.6048  1.7144 -2.7429
12872TIP3    H260032   3.419   2.561   5.837  1.2540 -0.3563  0.1980
12873TIP3   OH260033   1.237   4.869  14.783  0.4252  0.8358 -0.3612
12873TIP3    H160034   1.312   4.815  14.810  1.3584  1.1882 -2.1081
12873TIP3    H260035   1.221   4.845  14.692 -1.7993  0.5980  0.0358
12874TIP3   OH260036   4.653   5.904   2.889 -0.1364 -0.2115  0.0801
12874TIP3    H160037   4.589   5.975   2.894 -0.1440 -0.1241 -1.1064
12874TIP3    H260038   4.610   5.830   2.934 -0.7438  0.0803 -0.0086
12875TIP3   OH260039   3.648   2.437  11.432 -0.3905  0.4750  0.3819
12875TIP3    H160040   3.662   2.526  11.398  2.9613  0.3137  0.9576
12875TIP3    H260041   3.625   2.451  11.524  0.8403  0.8224  0.6686
12876TIP3   OH260042   5.899   2.041   2.801  0.2163  0.2377  0.1770
12876TIP3    H160043   5.963   1.984   2.758  0.1109  0.4314 -0.2476
12876TIP3    H260044   5.855   2.086   2.729 -0.5508 -0.0572  0.4429
12877TIP3   OH260045   5.896   5.406   1.340  0.1409  0.2874  0.0893
12877TIP3    H160046   5.940   5.327   1.307  0.2524 -0.3293  1.6277
12877TIP3    H260047   5.803   5.385   1.334  0.1816 -0.6850  2.0412
12878TIP3   OH260048   1.839   0.754   5.854 -0.0325 -0.5577  0.0202
12878TIP3    H160049   1.760   0.719   5.896 -0.5970 -0.3800 -0.8428
12878TIP3    H260050   1.870   0.822   5.913 -0.9418 -0.1487  0.0511
12879TIP3   OH260051   1.380   1.966  15.349  0.2609 -0.7497 -0.3483
12879TIP3    H160052   1.465   1.922  15.355  0.9362  0.4970 -0.6310
12879TIP3    H260053   1.367   1.980  15.255 -0.1952 -0.7962 -0.2939
12880TIP3   OH260054   5.366   2.742  13.094 -0.0218 -0.0856  0.2584
12880TIP3    H160055   5.415   2.811  13.138  0.0724 -0.1753  0.2944
12880TIP3    H260056   5.428   2.670  13.084  0.9566  1.0376 -2.8833
12881TIP3   OH260057   5.034   6.772  14.588  0.3727 -0.2942  0.0626
12881TIP3    H160058   5.092   6.825  14.533 -0.2228 -1.7641 -2.1192
12881TIP3    H260059   5.053   6.682  14.563 -0.3023 -1.0305  1.9821
12882TIP3   OH260060   6.097   4.036  12.506  0.0399  0.0233 -0.3774
12882TIP3    H160061   6.008   4.052  12.538  0.2867  2.4973 -0.6793
12882TIP3    H260062   6.086   4.018  12.413 -0.2535 -1.6547 -0.0483
12883TIP3   OH260063   4.581   2.940  12.943  0.4100  0.0317 -0.2850
12883TIP3    H160064   4.662   2.992  12.948  0.9900 -0.7610 -1.1015
12883TIP3    H260065   4.559   2.923  13.035  0.8991  0.6622 -0.0364
12884TIP3   OH260066   6.187   6.552  15.306 -0.2623  0.2571 -0.9243
12884TIP3    H160067   6.254   6.592  15.250 -0.2185 -0.3639 -1.3370
12884TIP3    H260068   6.197   6.596  15.390  0.9281 -0.0709 -0.8662
12885TIP3   OH260069   2.661   0.722   0.919 -0.2826  0.3264 -0.0436
12885TIP3    H160070   2.688   0.652   0.977 -0.1239 -1.8846 -2.5916
12885TIP3    H260071   2.728   0.724   0.851  0.2187  3.6357  0.3664
12886TIP3   OH260072   0.883   5.286   5.598  0.2309 -0.2702  0.1933
12886TIP3    H160073   0.968   5.328   5.610  0.7167 -1.2267  0.1789
12886TIP3    H260074   0.901   5.214   5.536 -0.9405  0.6319 -1.2670
12887TIP3   OH260075   0.987   0.142   5.486 -0.1194  0.0374 -0.1243
12887TIP3    H160076   0.999   0.075   5.419 -0.4863 -0.1587  0.0080
12887TIP3    H260077   1.052   0.120   5.554  0.4033  0.3646 -0.5120
12888TIP3   OH260078   0.939   0.730  15.861 -0.0177 -1.2244 -0.3429
12888TIP3    H160079   0.993   0.699  15.934  0.9986 -0.2638 -0.6591
12888TIP3    H260080   0.911   0.650  15.817  0.6433 -1.7688  0.1935
12889TIP3   OH260081   1.277   0.737  13.838 -0.3144  0.2922 -0.7220
12889TIP3    H160082   1.279   0.663  13.777 -0.9509  0.0478 -0.4639
12889TIP3    H260083   1.310   0.701  13.920  1.1583  0.7868 -1.0731
12890TIP3   OH260084   4.423   4.831  12.858  0.3936 -0.0021  0.0751
12890TIP3    H160085   4.330   4.813  12.846  0.2519  1.3523 -1.1574
12890TIP3    H260086   4.464   4.801  12.776  1.0878 -0.7204  0.6632
12891TIP3   OH260087   1.187   1.967  12.258  0.1907 -0.1453 -0.1068
12891TIP3    H160088   1.253   1.934  12.319  0.8554 -0.8135 -1.1347
12891TIP3    H260089   1.136   2.030  12.308  0.6710 -0.7208  1.1380
12892TIP3   OH260090   1.063   0.962  15.672  0.6740 -0.2115  0.4530
12892TIP3    H160091   1.067   0.955  15.767  1.3116 -2.2332  0.3207
12892TIP3    H260092   1.154   0.971  15.644  0.4182  1.3924  0.0731
12893TIP3   OH260093   3.598   4.991  12.263 -0.5923 -0.1031  0.2561
12893TIP3    H160094   3.563   4.903  12.279 -0.9122 -0.7520 -3.3107
12893TIP3    H260095   3.534   5.033  12.207  0.0470  2.0956  1.0659
12894TIP3   OH260096   4.232   3.144  14.252 -0.0551  0.0323  0.0823
12894TIP3    H160097   4.220   3.093  14.172  2.0126  0.5416 -0.6273
12894TIP3    H260098   4.180   3.223  14.239 -0.4058 -0.2701 -0.3879
12895TIP3   OH260099   1.595   1.330  15.561  0.5278 -0.3196 -0.3613
12895TIP3    H160100   1.550   1.415  15.567 -0.9424 -0.9953 -1.4059
12895TIP3    H260101   1.537   1.276  15.508  0.6820 -2.4870  1.5274
12896TIP3   OH260102   2.780   2.348   1.031 -0.8557  0.2225 -0.5007
12896TIP3    H160103   2.846   2.392   0.977  1.1168 -1.0969  0.7065
12896TIP3    H260104   2.764   2.409   1.103  2.2553 -1.0365  1.4498
12897TIP3   OH260105   6.477   0.932  14.139 -0.4778 -0.1665  0.0652
12897TIP3    H160106   6.556   0.935  14.193 -0.6286 -0.1880  0.2868
12897TIP3    H260107   6.443   1.021  14.141  0.7437  0.4060 -1.8344
12898TIP3   OH260108   3.449   6.620  13.596  0.4038 -0.3860  1.3636
12898TIP3    H160109   3.363   6.614  13.554  0.3294  1.1064  1.2582
12898TIP3    H260110   3.430   6.627  13.689  0.3844  0.4892  1.2952
12899TIP3   OH260111   2.861   5.267   1.348  0.0689 -0.3191 -0.3471
12899TIP3    H160112   2.799   5.279   1.420  2.4195  1.9935  1.4669
12899TIP3    H260113   2.875   5.172   1.345 -2.8941 -0.8761 -0.3933
12900TIP3   OH260114   2.039   0.073   3.125 -0.2232 -0.5724 -0.6661
12900TIP3    H160115   2.131   0.075   3.152 -0.1102 -0.3297 -1.0577
12900TIP3    H260116   2.014  -0.019   3.130 -0.4649 -0.4481  1.1037
12901TIP3   OH260117   0.587   4.896   4.117 -0.4323  0.0845 -0.0288
12901TIP3    H160118   0.601   4.876   4.024 -0.6831 -2.5523  0.4071
12901TIP3    H260119   0.495   4.876   4.131 -0.1908 -0.3903  0.9479
12902TIP3   OH260120   4.462   1.108  10.945  0.1589  0.2120 -0.5543
12902TIP3    H160121   4.446   1.137  10.856  0.5117  2.2253 -0.0110
12902TIP3    H260122   4.389   1.144  10.995  0.5745  0.0745  0.1665
12903TIP3   OH260123   4.761   4.442   4.011  0.7682 -0.9612 -0.0406
12903TIP3    H160124   4.724   4.358   4.040  0.9344 -0.6549  1.1209
12903TIP3    H260125   4.686   4.501   4.010  0.9148 -0.7432  0.7237
12904TIP3   OH260126   2.858   3.184   4.171  0.0143 -0.3416 -0.0468
12904TIP3    H160127   2.876   3.112   4.232 -2.0884  0.0298  1.1338
12904TIP3    H260128   2.899   3.260   4.213  0.6045 -0.5025 -0.3239
12905TIP3   OH260129   5.800   0.464   3.066  0.4392  0.2391  0.0402
12905TIP3    H160130   5.770   0.426   2.983  1.0393  0.8811 -0.4974
12905TIP3    H260131   5.722   0.467   3.121 -0.2043  0.7041 -0.8567
12906TIP3   OH260132   1.604   6.434   3.626 -0.5722 -0.1266 -0.2210
12906TIP3    H160133   1.510   6.453   3.619 -0.7001 -0.4628  0.4329
12906TIP3    H260134   1.615   6.351   3.579 -0.7531 -0.4772  0.3299
12907TIP3   OH260135   5.273   0.579   3.963 -0.0348  0.0740  0.0503
12907TIP3    H160136   5.285   0.631   3.883 -1.1312  0.1516 -0.0862
12907TIP3    H260137   5.181   0.592   3.986  0.1461 -0.3379  1.0612
12908TIP3   OH260138   3.699   4.986   4.918 -0.2609 -0.6029 -0.2176
12908TIP3    H160139   3.707   5.021   4.829  1.5185  0.0662  0.1652
12908TIP3    H260140   3.734   4.898   4.913 -2.0736 -1.3532 -0.5692
12909TIP3   OH260141   0.356   6.226  11.520  0.0236 -0.3080 -0.0187
12909TIP3    H160142   0.264   6.200  11.529 -0.3052  0.5196 -0.7736
12909TIP3    H260143   0.383   6.190  11.436  0.5050 -0.8288  0.3484
12910TIP3   OH260144   1.650   1.725  11.176 -0.4185 -0.4089  0.2444
12910TIP3    H160145   1.671   1.636  11.149 -1.0199 -1.1726  2.1523
12910TIP3    H260146   1.616   1.767  11.097 -0.5980 -2.0147 -0.5653
12911TIP3   OH260147   4.234   4.469  15.953  0.4460  0.4200 -0.6194
12911TIP3    H160148   4.243   4.387  15.906 -1.6209 -0.1418 -0.1273
12911TIP3    H260149   4.269   4.450  16.041  1.2307  0.4978 -0.9056
12912TIP3   OH260150   1.246   2.049   2.598  0.5602 -0.4379  0.0966
12912TIP3    H160151   1.256   2.068   2.691 -0.7676  1.8605 -0.1468
12912TIP3    H260152   1.322   2.089   2.556  0.9372 -1.0986  0.1403
12913TIP3   OH260153   3.544   1.138   3.601 -0.3680 -0.3279 -0.0375
12913TIP3    H160154   3.536   1.190   3.682 -3.5028 -1.3323  0.4513
12913TIP3    H260155   3.634   1.152   3.572  1.1377 -0.4423  3.9751
12914TIP3   OH260156   0.607   3.878   2.766  0.0491  0.8936 -0.3776
12914TIP3    H160157   0.604   3.792   2.806  1.3442  1.0808  0.1528
12914TIP3    H260158   0.523   3.918   2.788  0.0813  0.3673  0.7281
12915TIP3   OH260159   5.520   4.157   5.615  0.1109 -0.2935 -0.3358
12915TIP3    H160160   5.595   4.136   5.671 -0.9107 -1.1977  0.7282
12915TIP3    H260161   5.486   4.239   5.651  1.1927  0.7213 -1.4970
12916TIP3   OH260162   2.732   2.063  13.407 -0.0714 -0.6371  0.2315
12916TIP3    H160163   2.817   2.059  13.451 -0.6028 -0.1092  1.3435
12916TIP3    H260164   2.753   2.074  13.314  1.0700 -0.3571  0.5130
12917TIP3   OH260165   5.333   5.141  12.825  0.1110  0.1897  0.1166
12917TIP3    H160166   5.401   5.153  12.759  2.1602 -0.3703  2.0063
12917TIP3    H260167   5.372   5.083  12.890 -2.1900 -0.1425  1.3333
12918TIP3   OH260168   6.400   5.040   1.883  0.0037  0.5245  0.5917
12918TIP3    H160169   6.416   5.017   1.974 -0.7259 -0.9828  0.3581
12918TIP3    H260170   6.316   5.086   1.884 -0.7340 -0.7997  0.5066
12919TIP3   OH260171   1.379   2.287  14.689  0.2598  0.2791  0.2016
12919TIP3    H160172   1.328   2.363  14.661 -1.6910 -0.9143  0.2942
12919TIP3    H260173   1.314   2.226  14.722  1.7323 -1.5539 -0.1110
12920TIP3   OH260174   5.293   2.063   4.831  0.6432  0.3158 -0.0563
12920TIP3    H160175   5.207   2.032   4.805 -0.6636  2.0554  1.8191
12920TIP3    H260176   5.314   2.013   4.910  0.7429  0.7855  0.2204
12921TIP3   OH260177   4.018   5.775  10.621 -0.1667 -0.0026 -0.6403
12921TIP3    H160178   3.963   5.712  10.667 -0.6037  0.8043 -0.0177
12921TIP3    H260179   4.095   5.785  10.677  0.0848 -0.2719 -0.9342
12922TIP3   OH260180   6.303   6.313  16.272 -0.1898 -0.2505 -0.7165
12922TIP3    H160181   6.325   6.243  16.333 -1.4130 -0.4183 -0.4430
12922TIP3    H260182   6.378   6.373  16.277  0.5916 -1.2085 -0.4901
12923TIP3   OH260183   4.419   0.157   4.142 -0.5051  0.2153 -0.1815
12923TIP3    H160184   4.407   0.103   4.220 -0.4658  2.2690  1.3074
12923TIP3    H260185   4.383   0.242   4.165 -0.0865  1.0312 -2.2704
12924TIP3   OH260186   5.367   0.361  14.286  0.0463 -0.3605 -0.2989
12924TIP3    H160187   5.276   0.340  14.305 -0.2244  1.1832  0.2502
12924TIP3    H260188   5.365   0.400  14.198  0.1832 -0.3914 -0.3162
12925TIP3   OH260189   1.908   1.093   3.025  0.4014 -0.5889  0.0884
12925TIP3    H160190   1.869   1.038   2.957 -0.9864 -0.8668  1.0767
12925TIP3    H260191   1.998   1.107   2.995  0.1140 -1.5077 -1.3086
12926TIP3   OH260192   2.759   0.840   4.708 -0.4879 -0.4113 -0.3551
12926TIP3    H160193   2.823   0.911   4.715 -1.1101  0.2583 -1.2263
12926TIP3    H260194   2.798   0.780   4.643 -0.2551 -0.5606 -0.0830
12927TIP3   OH260195   2.464   6.675  11.950 -0.2053 -0.3848  0.1755
12927TIP3    H160196   2.497   6.594  11.910 -0.7332  0.5671 -2.3042
12927TIP3    H260197   2.528   6.742  11.926 -0.0491  0.0837  1.7675
12928TIP3   OH260198   5.202   0.203  12.655  0.4537 -0.0999  0.4821
12928TIP3    H160199   5.113   0.226  12.679  1.2212  1.7842  1.7367
12928TIP3    H260200   5.206   0.107  12.663 -0.8321 -0.0250  2.6128
12929TIP3   OH260201   6.722   5.728   4.375  0.0381  0.0632 -0.2237
12929TIP3    H160202   6.663   5.661   4.410 -0.5562 -0.0790 -1.4537
12929TIP3    H260203   6.805   5.683   4.363  0.3492  0.1918  1.2508
12930TIP3   OH260204   4.054   1.330   4.489  0.1552 -0.4594 -0.8963
12930TIP3    H160205   4.144   1.304   4.508 -0.0162 -0.9121 -0.7171
12930TIP3    H260206   4.005   1.248   4.486 -0.9261 -0.0589  2.3407
12931TIP3   OH260207   4.796   6.301  15.434 -0.3595 -0.2851  0.0455
12931TIP3    H160208   4.878   6.275  15.477  0.1894  0.3807 -0.5621
12931TIP3    H260209   4.770   6.224  15.384  1.3944  0.3130 -1.9562
12932TIP3   OH260210   5.756   0.573  15.906  0.2373  0.2737 -0.1306
12932TIP3    H160211   5.807   0.652  15.925 -0.2491  0.6810 -0.4769
12932TIP3    H260212   5.668   0.606  15.884 -0.4906 -0.4761  1.5056
12933TIP3   OH260213   6.301   0.862  17.064  0.2626  0.2926  0.1440
12933TIP3    H160214   6.278   0.926  16.996  2.6119  0.2254 -0.8376
12933TIP3    H260215   6.261   0.896  17.144  0.3216  2.2893 -0.6175
12934TIP3   OH260216   6.486   4.617  15.058  0.1952  0.9028  0.0473
12934TIP3    H160217   6.479   4.712  15.070 -2.2942  0.6323  1.2922
12934TIP3    H260218   6.396   4.585  15.062  0.6652 -1.2744 -3.0344
12935TIP3   OH260219   2.620   4.982   0.032 -0.2376 -0.1364 -0.5830
12935TIP3    H160220   2.640   5.047  -0.036 -0.0273  0.2495 -0.1624
12935TIP3    H260221   2.652   4.899  -0.003 -2.1101 -0.3540 -1.8997
12936TIP3   OH260222   1.013   5.119  13.906  0.4821  0.3317  0.1822
12936TIP3    H160223   0.936   5.174  13.903  0.6781  0.6240  0.5069
12936TIP3    H260224   0.993   5.047  13.846  0.7956  1.4868 -1.3713
12937TIP3   OH260225   4.841   4.721   4.479 -0.1058  0.7409  0.3291
12937TIP3    H160226   4.832   4.708   4.573 -0.7986  0.3014  0.2055
12937TIP3    H260227   4.853   4.633   4.443 -1.1582  0.7610 -0.1228
12938TIP3   OH260228   5.339   4.051  12.749  0.4091 -0.0392  0.3974
12938TIP3    H160229   5.382   4.003  12.820  0.8599  0.7532  0.6729
12938TIP3    H260230   5.248   4.020  12.751  0.7320 -1.0318  0.4289
12939TIP3   OH260231   3.032   3.651  14.656  0.2571  0.0185  0.1037
12939TIP3    H160232   3.058   3.620  14.742 -1.9121  1.2569  1.3079
12939TIP3    H260233   3.072   3.738  14.649  2.1862 -0.9032 -1.1180
12940TIP3   OH260234   1.780   6.215   0.029  0.6030 -0.5572  0.0263
12940TIP3    H160235   1.859   6.162   0.038  1.2112  0.3782  0.3997
12940TIP3    H260236   1.811   6.305   0.042 -0.5816 -0.2114  0.5257
12941TIP3   OH260237   6.516   5.396   2.912 -0.1174  0.1155  0.0782
12941TIP3    H160238   6.562   5.430   2.989  2.2259  0.4540 -1.3708
12941TIP3    H260239   6.564   5.317   2.889 -1.4427 -0.5519 -0.4544
12942TIP3   OH260240   1.610   2.149   0.393 -0.6339  0.0229 -0.1053
12942TIP3    H160241   1.545   2.155   0.323  0.8610  1.2029 -1.4711
12942TIP3    H260242   1.596   2.227   0.446 -0.8302 -0.1218  0.0558
12943TIP3   OH260243   1.418   5.272   3.061 -0.3201 -0.6644 -0.3091
12943TIP3    H160244   1.450   5.346   3.009  0.0325 -1.3257 -1.0605
12943TIP3    H260245   1.373   5.313   3.135 -0.7167  0.3170 -1.0499
12944TIP3   OH260246   0.107   6.163  10.873  0.1221 -0.7156  0.1959
12944TIP3    H160247   0.041   6.229  10.895  1.2645  0.2566  0.8299
12944TIP3    H260248   0.064   6.080  10.891 -0.4259 -0.0579  2.1854
12945TIP3   OH260249   6.138   1.720   3.998 -0.1009  0.1736 -0.7263
12945TIP3    H160250   6.210   1.762   3.951  0.4685 -0.0214 -0.0552
12945TIP3    H260251   6.180   1.676   4.072 -0.6710 -1.5832 -1.3931
12946TIP3   OH260252   6.396   5.155  10.663 -0.2541 -0.3603 -0.0473
12946TIP3    H160253   6.371   5.068  10.631 -0.2123 -0.5368  0.3838
12946TIP3    H260254   6.329   5.175  10.729 -1.5118  0.8645 -1.6334
12947TIP3   OH260255   0.631   3.891  13.728 -0.0378 -0.4053  0.5013
12947TIP3    H160256   0.537   3.901  13.711 -0.6351 -1.3766  2.8707
12947TIP3    H260257   0.673   3.921  13.647 -2.3859 -0.4360 -0.8238
12948TIP3   OH260258   3.379   5.133  12.201  0.1033  0.1066  0.2987
12948TIP3    H160259   3.287   5.117  12.184  0.0689 -0.4625  0.9635
12948TIP3    H260260   3.393   5.225  12.176 -1.2198  0.9620  2.4572
12949TIP3   OH260261   0.409   0.200  16.755  0.3420 -0.7295 -0.1149
12949TIP3    H160262   0.490   0.232  16.795  1.0747 -3.4311  0.8130
12949TIP3    H260263   0.418   0.105  16.757 -2.9105 -1.1452  0.0936
12950TIP3   OH260264   4.648   1.809  12.313  0.0461 -0.1999  0.2593
12950TIP3    H160265   4.592   1.812  12.390 -0.0970 -0.5735  0.1732
12950TIP3    H260266   4.727   1.762  12.342 -0.6518 -1.7267 -0.2145
12951TIP3   OH260267   0.593   6.009   3.195 -0.7945  0.1706 -0.2614
12951TIP3    H160268   0.586   6.102   3.214  0.1383  0.0929  0.5390
12951TIP3    H260269   0.536   5.995   3.119 -1.7384  1.1953  0.2297
12952TIP3   OH260270   0.371   3.138   4.259  0.0258 -0.9748 -0.0419
12952TIP3    H160271   0.276   3.142   4.268  0.1287  1.1678  0.6635
12952TIP3    H260272   0.386   3.126   4.165 -0.9638  0.8521 -0.4856
12953TIP3   OH260273   1.420   0.978   1.963 -0.3140  0.0946  0.1696
12953TIP3    H160274   1.426   0.993   2.057 -0.4590  0.0284  0.1901
12953TIP3    H260275   1.392   0.887   1.955  0.1857 -0.0503  0.0517
12954TIP3   OH260276   1.132   2.909  11.403 -0.2245  0.9943 -0.1586
12954TIP3    H160277   1.145   2.939  11.493 -2.3044  1.5702  0.0109
12954TIP3    H260278   1.057   2.960  11.372 -0.7011 -0.4929 -1.5920
12955TIP3   OH260279   1.065   4.372   5.440  0.5288  0.4119  0.0307
12955TIP3    H160280   1.025   4.306   5.383  1.5039 -0.5800  0.4616
12955TIP3    H260281   1.157   4.346   5.446 -0.0694 -1.6731  4.7912
12956TIP3   OH260282   2.085   2.798   5.154 -0.0785  0.0483  0.0763
12956TIP3    H160283   2.000   2.826   5.186 -0.7307 -2.0497  0.3481
12956TIP3    H260284   2.073   2.785   5.060  0.3265  1.0006 -0.1175
12957TIP3   OH260285   6.391   0.124  15.351 -0.4075 -0.0190  0.1044
12957TIP3    H160286   6.314   0.127  15.407 -1.2026  0.7843 -0.9790
12957TIP3    H260287   6.360   0.158  15.267  0.1992 -3.0086 -1.4623
12958TIP3   OH260288   0.842   2.798  13.600 -0.2560 -0.0959 -0.1761
12958TIP3    H160289   0.821   2.878  13.551 -1.8200  0.3119  1.0884
12958TIP3    H260290   0.758   2.756  13.615 -0.2000  0.7984  3.7674
12959TIP3   OH260291   2.490   5.755   1.629  0.6537  0.0663 -0.2408
12959TIP3    H160292   2.419   5.768   1.692 -0.4649  0.1333 -1.4753
12959TIP3    H260293   2.446   5.742   1.545  2.1095  2.7948 -1.5806
12960TIP3   OH260294   6.728   5.970   5.597  0.1747 -0.1231 -0.1702
12960TIP3    H160295   6.772   5.993   5.678  0.2302  0.7231 -0.4344
12960TIP3    H260296   6.775   5.893   5.565 -0.4062 -1.0006  1.0365
12961TIP3   OH260297   3.299   1.743   0.007 -0.3010 -0.0331  0.2991
12961TIP3    H160298   3.205   1.760   0.001 -0.1387  1.1353  0.9528
12961TIP3    H260299   3.337   1.826   0.034  0.9422 -0.4689 -0.0604
12962TIP3   OH260300   6.296   2.365   1.521 -0.8084  0.1533  0.6297
12962TIP3    H160301   6.218   2.406   1.484 -0.3351  0.8467  0.3998
12962TIP3    H260302   6.323   2.302   1.454 -0.0036  1.3446 -0.1892
12963TIP3   OH260303   3.426   5.490   1.033 -0.5081 -0.3384  0.6051
12963TIP3    H160304   3.478   5.558   1.074 -2.0864  1.4948 -0.2794
12963TIP3    H260305   3.421   5.420   1.099  1.8380 -0.0173  1.2042
12964TIP3   OH260306   2.058   5.562   3.103  0.2224  0.2512  0.4529
12964TIP3    H160307   2.074   5.607   3.021 -0.4639  0.5673  0.4867
12964TIP3    H260308   2.061   5.469   3.080  1.1387  0.3023  0.2918
12965TIP3   OH260309   0.691   6.141   0.173 -0.1469  0.2455 -0.0007
12965TIP3    H160310   0.750   6.160   0.246 -1.6035  0.2400  1.2293
12965TIP3    H260311   0.626   6.082   0.210  0.1213 -1.2813 -1.8225
12966TIP3   OH260312   3.255   0.427  13.735  0.3871  0.2569 -0.2982
12966TIP3    H160313   3.242   0.403  13.827  2.4235 -0.0912 -0.0412
12966TIP3    H260314   3.169   0.454  13.705 -0.3992  0.0952  1.6326
12967TIP3   OH260315   3.994   3.490   2.628 -0.1159 -0.4577 -0.3641
12967TIP3    H160316   3.900   3.475   2.621  0.1430 -3.0282  0.7103
12967TIP3    H260317   4.018   3.456   2.714  1.7069  0.8102 -0.3116
12968TIP3   OH260318   0.131   5.104  12.627  0.4627  0.0251  0.5196
12968TIP3    H160319   0.068   5.102  12.554  0.9069  1.3703  0.0713
12968TIP3    H260320   0.184   5.025  12.614  1.6633  1.0924 -1.6891
12969TIP3   OH260321   6.310   5.499   5.599 -0.1457  0.2183 -0.5821
12969TIP3    H160322   6.238   5.467   5.653  0.1093  1.3729  0.4980
12969TIP3    H260323   6.367   5.546   5.661  1.0271  0.1587 -1.5803
12970TIP3   OH260324   1.881   1.478  14.726  0.1681 -0.5044 -1.5170
12970TIP3    H160325   1.810   1.435  14.774 -0.6806  1.9399 -0.4561
12970TIP3    H260326   1.941   1.406  14.705 -0.8865 -2.1500  0.6022
12971TIP3   OH260327   3.314   2.434  14.493 -0.3632 -0.1864  0.0061
12971TIP3    H160328   3.240   2.484  14.528 -0.7334  0.0927 -1.1320
12971TIP3    H260329   3.275   2.374  14.430  0.2698 -0.8013  0.1809
12972TIP3   OH260330   2.682   1.394  11.260 -0.3343  0.4896  0.2116
12972TIP3    H160331   2.659   1.410  11.352 -1.4586 -1.0696  0.2384
12972TIP3    H260332   2.632   1.316  11.236  0.2655  0.6228 -1.6148
12973TIP3   OH260333   0.970   5.612  14.433 -0.0468 -0.1232  0.0113
12973TIP3    H160334   0.875   5.614  14.443 -0.2380  0.5544 -1.6441
12973TIP3    H260335   1.002   5.592  14.521 -1.6530  1.1353  0.9682
12974TIP3   OH260336   4.730   2.533  17.205 -0.1537  0.1940 -0.3570
12974TIP3    H160337   4.792   2.466  17.235  0.2325  0.0307 -1.4767
12974TIP3    H260338   4.784   2.600  17.164 -0.6323  0.5969 -0.3460
12975TIP3   OH260339   3.730   3.860   0.814 -0.3446  0.3870  0.0395
12975TIP3    H160340   3.726   3.949   0.779  1.4539  0.4083 -0.2280
12975TIP3    H260341   3.823   3.837   0.809 -0.7770 -1.5066  0.1231
12976TIP3   OH260342   4.965   2.680  15.323  0.2532  0.4316  0.1686
12976TIP3    H160343   4.939   2.679  15.415  0.0497 -0.3284  0.1081
12976TIP3    H260344   5.059   2.663  15.324  0.0201 -0.9148  0.1718
12977TIP3   OH260345   0.835   1.556  14.016  0.7989 -0.2699 -0.5196
12977TIP3    H160346   0.917   1.594  13.983  0.1810  2.6516  0.9724
12977TIP3    H260347   0.796   1.625  14.068 -1.5469 -2.3668  0.7258
12978TIP3   OH260348   2.069   2.797  16.534  0.3977 -0.2420 -0.0857
12978TIP3    H160349   2.064   2.888  16.503  2.1432 -0.6124 -1.6536
12978TIP3    H260350   2.157   2.789  16.569  0.2042 -1.2940  0.1712
12979TIP3   OH260351   1.881   3.128  11.279 -0.4266 -0.3511  0.3233
12979TIP3    H160352   1.868   3.126  11.184 -0.2763 -1.5566  0.3135
12979TIP3    H260353   1.792   3.128  11.315 -0.5225 -2.2470  0.1870
12980TIP3   OH260354   6.716   1.439   0.383 -0.6203  0.5118 -0.0018
12980TIP3    H160355   6.681   1.351   0.396  0.1318  0.4326  1.6833
12980TIP3    H260356   6.769   1.432   0.304 -1.0251 -0.3965 -0.2022
12981TIP3   OH260357   5.435   2.351  15.327  0.5667  0.7837  0.2502
12981TIP3    H160358   5.397   2.270  15.294  0.1163  1.8257 -1.9758
12981TIP3    H260359   5.384   2.372  15.405 -1.7542  0.7518 -1.1700
12982TIP3   OH260360   0.688   6.319  11.430 -0.0763 -0.7433  0.1374
12982TIP3    H160361   0.672   6.225  11.438 -1.6536 -0.3637  2.2281
12982TIP3    H260362   0.618   6.350  11.372 -1.5248 -0.4376  1.9792
12983TIP3   OH260363   0.908   4.695  17.041  0.0933 -0.1770  0.4676
12983TIP3    H160364   0.877   4.671  17.128 -0.7018  0.1701  0.2962
12983TIP3    H260365   0.972   4.628  17.018 -0.4021 -0.8149  0.9240
12984TIP3   OH260366   3.760   5.273  12.283  0.4771 -0.3116 -0.0308
12984TIP3    H160367   3.701   5.325  12.336  0.9878 -0.9618  1.2190
12984TIP3    H260368   3.716   5.188  12.273  0.6992 -0.4253 -0.0586
12985TIP3   OH260369   3.931   6.135  13.464 -0.4259  0.0729  0.1610
12985TIP3    H160370   4.008   6.152  13.518 -0.4875  1.1975 -0.0939
12985TIP3    H260371   3.911   6.043  13.480  1.1985 -0.3546 -0.0579
12986TIP3   OH260372   5.695   2.866   5.322 -0.5677 -0.0200 -0.6329
12986TIP3    H160373   5.648   2.919   5.258  0.7892 -0.4792 -2.0682
12986TIP3    H260374   5.658   2.892   5.406 -2.0272  0.9948 -1.5485
12987TIP3   OH260375   0.366   4.959   1.792 -0.5565  0.7092 -0.0783
12987TIP3    H160376   0.445   4.941   1.843 -1.2352  0.4923  0.9224
12987TIP3    H260377   0.299   4.980   1.857 -2.0244 -1.6273 -0.7159
12988TIP3   OH260378   5.806   1.351  10.478  0.1987 -0.1306  0.0283
12988TIP3    H160379   5.771   1.265  10.503  0.3424 -0.0390  0.5601
12988TIP3    H260380   5.892   1.355  10.520 -0.4829  0.9354  1.3883
12989TIP3   OH260381   3.100   2.332  17.163 -0.2805  0.1381  0.3825
12989TIP3    H160382   3.137   2.361  17.247  0.8717  1.5779 -0.5800
12989TIP3    H260383   3.175   2.327  17.104 -1.2235  0.2347 -0.8606
12990TIP3   OH260384   1.190   4.178  16.692 -0.9642  0.2895  0.1365
12990TIP3    H160385   1.161   4.128  16.616 -0.2384  0.9362 -0.5800
12990TIP3    H260386   1.149   4.264  16.680 -1.4667  0.1685  0.8890
12991TIP3   OH260387   3.441   3.611   2.602 -0.0488 -0.2406  0.0840
12991TIP3    H160388   3.503   3.546   2.569  0.0400 -0.6989  1.1034
12991TIP3    H260389   3.413   3.576   2.687 -0.6412  0.6432  0.2661
12992TIP3   OH260390   4.906   0.223  10.756 -0.4914 -0.4083 -0.1143
12992TIP3    H160391   4.913   0.152  10.820 -0.8710 -2.0073 -1.7471
12992TIP3    H260392   4.990   0.221  10.710 -0.9390 -0.6130 -0.9421
12993TIP3   OH260393   2.502   4.138  15.882  0.2420  0.2398  0.0165
12993TIP3    H160394   2.512   4.056  15.930  1.1946 -0.5610 -1.4810
12993TIP3    H260395   2.586   4.183  15.892 -0.2825  1.0652  0.8474
12994TIP3   OH260396   5.505   3.578   4.203  0.3620 -0.0154 -0.4415
12994TIP3    H160397   5.570   3.569   4.274 -1.1696  1.2411  1.2112
12994TIP3    H260398   5.536   3.519   4.135  2.4434 -0.5612  0.8831
12995TIP3   OH260399   6.576   4.591  17.242 -0.4791 -0.0049  0.7233
12995TIP3    H160400   6.514   4.664  17.243 -0.3630  0.1523 -1.2171
12995TIP3    H260401   6.662   4.634  17.241 -0.4054 -0.1596 -0.0524
12996TIP3   OH260402   3.426   4.552  11.044  0.4787  0.2691  0.3817
12996TIP3    H160403   3.445   4.646  11.039  1.3177  0.0661 -0.7633
12996TIP3    H260404   3.331   4.546  11.037  0.0309  1.1877  3.8629
12997TIP3   OH260405   6.096   0.812   4.287 -0.1813 -0.2462 -0.2872
12997TIP3    H160406   6.057   0.883   4.236 -1.8380 -1.8001 -1.2898
12997TIP3    H260407   6.145   0.761   4.224 -0.7413 -1.1596 -0.0074
12998TIP3   OH260408   5.312   1.036  15.414 -0.0561 -0.4413 -0.3338
12998TIP3    H160409   5.242   0.997  15.466  1.7049  0.5551  3.0644
12998TIP3    H260410   5.389   0.984  15.436  1.0957  1.0816 -0.6174
12999TIP3   OH260411   4.162   6.503   0.752 -0.6808  0.2024  0.4979
12999TIP3    H160412   4.107   6.581   0.761 -0.3078  0.3808  1.3319
12999TIP3    H260413   4.108   6.441   0.703 -1.5264  0.4779  1.0628
13000TIP3   OH260414   1.521   4.728   5.409  0.2382 -0.0518  0.2848
13000TIP3    H160415   1.445   4.756   5.357  1.4130  0.4770 -1.2009
13000TIP3    H260416   1.525   4.791   5.482 -0.1879  0.4902 -0.1514
13001TIP3   OH260417   6.038   5.399   3.389  0.3294  0.4289  0.0727
13001TIP3    H160418   6.064   5.365   3.304  1.4920  0.9469  0.1990
13001TIP3    H260419   5.954   5.358   3.407  0.4261 -0.2634 -0.9845
13002TIP3   OH260420   3.620   6.677  11.005  0.3803  0.1632 -0.3024
13002TIP3    H160421   3.598   6.607  10.943 -1.6360  1.4529 -1.1421
13002TIP3    H260422   3.687   6.729  10.960 -0.3278  0.4961 -1.0077
13003TIP3   OH260423   0.589   4.613   0.948 -0.4144  0.5203 -0.1335
13003TIP3    H160424   0.603   4.651   1.035 -1.8580 -0.4305  0.5559
13003TIP3    H260425   0.496   4.627   0.931 -0.3766 -0.2485 -1.0571
13004TIP3   OH260426   0.132   4.711   1.372 -0.6804 -0.1401  0.0685
13004TIP3    H160427   0.171   4.773   1.310  1.1787 -1.7991 -0.5035
13004TIP3    H260428   0.151   4.749   1.458 -1.0681  0.9101 -0.2888
13005TIP3   OH260429   1.706   1.246  16.584  0.4130  0.5297  0.8452
13005TIP3    H160430   1.695   1.222  16.676 -0.8796  1.7146  1.0354
13005TIP3    H260431   1.704   1.342  16.583 -1.0948  0.5478 -0.5457
13006TIP3   OH260432   2.967   2.434   1.358 -0.1179  0.2587  0.4654
13006TIP3    H160433   3.060   2.412   1.355 -0.5705 -1.6929 -1.0436
13006TIP3    H260434   2.945   2.459   1.268 -0.8145  1.9822  1.0641
13007TIP3   OH260435   3.740   0.823  16.976 -0.0923  0.6950 -0.0613
13007TIP3    H160436   3.801   0.779  16.917  0.3411  2.3833 -0.9503
13007TIP3    H260437   3.793   0.844  17.053 -0.0573  0.4865 -0.0272
13008TIP3   OH260438   0.039   5.823  13.593  0.0792 -0.2881  0.2540
13008TIP3    H160439   0.128   5.850  13.616  1.0818 -3.4956  0.6901
13008TIP3    H260440   0.049   5.774  13.512 -1.8375  1.8135 -1.3800
13009TIP3   OH260441   5.148   6.376  15.783  0.3039 -0.0213 -0.0970
13009TIP3    H160442   5.113   6.300  15.830  1.7426 -1.4606 -1.2408
13009TIP3    H260443   5.237   6.385  15.815  0.5070  0.4898 -0.7906
13010TIP3   OH260444   1.522   5.988   6.012  0.6905  0.0454 -0.1223
13010TIP3    H160445   1.583   6.010   6.082  1.5384  0.8064 -1.0549
13010TIP3    H260446   1.483   6.072   5.987 -1.4048 -0.5334  1.0053
13011TIP3   OH260447   1.781   4.931   5.075  0.0566  0.1302  0.3066
13011TIP3    H160448   1.802   4.905   4.986  1.1928  1.4048  0.1810
13011TIP3    H260449   1.745   4.851   5.115  0.2849 -0.6740 -1.0277
13012TIP3   OH260450   0.910   2.686  16.144  0.1053  0.1367  0.2929
13012TIP3    H160451   0.911   2.603  16.191 -0.8378 -0.0567 -0.0065
13012TIP3    H260452   0.910   2.662  16.052  1.6414  0.5124  0.1610
13013TIP3   OH260453   4.835   0.605   4.344  0.4032 -0.3830 -0.3993
13013TIP3    H160454   4.790   0.642   4.268 -1.5040 -0.0198  0.8165
13013TIP3    H260455   4.859   0.681   4.397  1.5431 -0.6411 -0.5395
13014TIP3   OH260456   0.191   3.870  13.199  0.3210  0.1051 -0.1949
13014TIP3    H160457   0.138   3.882  13.120 -1.6381  3.6588  1.3914
13014TIP3    H260458   0.144   3.804  13.249  1.1741 -1.6294 -1.5834
13015TIP3   OH260459   3.425   0.785  13.005  0.1366  0.2077  0.7529
13015TIP3    H160460   3.422   0.877  13.030  0.5401  0.5017 -0.2665
13015TIP3    H260461   3.364   0.742  13.066 -0.0265  1.1294  1.2561
13016TIP3   OH260462   2.300   4.041   4.251  0.1148  0.1976 -0.5140
13016TIP3    H160463   2.327   4.120   4.298 -2.8995  0.0738  1.6704
13016TIP3    H260464   2.224   4.069   4.199 -0.6362 -1.1028 -0.1581
13017TIP3   OH260465   6.386   4.466  11.551 -0.0703  0.1390  0.1465
13017TIP3    H160466   6.413   4.387  11.504  0.1899 -0.2126  0.8789
13017TIP3    H260467   6.293   4.453  11.567 -0.1499  0.2383 -0.2258
13018TIP3   OH260468   1.494   3.772  13.658 -0.0001 -0.8516 -0.5680
13018TIP3    H160469   1.467   3.784  13.567 -0.6688  0.8308 -0.1907
13018TIP3    H260470   1.509   3.861  13.691  1.6818 -1.4798  0.5574
13019TIP3   OH260471   2.004   6.575   3.123  0.4532 -0.4054  0.4475
13019TIP3    H160472   2.056   6.557   3.045 -3.6639 -1.4258 -2.4113
13019TIP3    H260473   1.994   6.490   3.165  1.8825 -0.0186  1.6394
13020TIP3   OH260474   5.997   2.597  16.838 -0.4700  0.3651  0.1300
13020TIP3    H160475   5.912   2.632  16.864 -0.1639  1.3613 -0.1713
13020TIP3    H260476   5.977   2.516  16.792 -1.1590 -0.2355  1.4374
13021TIP3   OH260477   3.879   2.962   4.623  0.3324 -0.4483 -0.0271
13021TIP3    H160478   3.788   2.989   4.612  0.7828  0.7677 -0.9931
13021TIP3    H260479   3.879   2.910   4.703 -1.4485 -1.6301 -0.7385
13022TIP3   OH260480   0.836   4.129  12.204  0.2194  0.4743 -0.0141
13022TIP3    H160481   0.810   4.189  12.274  2.1617 -0.2994  1.4546
13022TIP3    H260482   0.811   4.042  12.236 -0.2302  0.2387 -0.9658
13023TIP3   OH260483   4.547   4.319  12.481 -0.0123 -0.7663  0.2776
13023TIP3    H160484   4.498   4.327  12.563 -2.4930  0.6524 -1.2130
13023TIP3    H260485   4.484   4.282  12.419  1.8923 -2.0901 -0.9608
13024TIP3   OH260486   2.092   3.795  17.037 -0.6780 -0.1191 -0.5020
13024TIP3    H160487   2.006   3.755  17.046 -0.7946  0.4425  1.3790
13024TIP3    H260488   2.119   3.814  17.127  0.1075  2.4627 -1.2111
13025TIP3   OH260489   1.202   1.436  14.756  0.0450  0.5840  0.3953
13025TIP3    H160490   1.225   1.381  14.831 -1.1310 -0.8902 -0.2689
13025TIP3    H260491   1.124   1.484  14.785 -0.3107  0.1390  0.1858
13026TIP3   OH260492   2.056   3.995   4.592  0.2376 -0.3683 -0.0994
13026TIP3    H160493   2.016   4.059   4.533 -2.9520 -4.1090 -2.5499
13026TIP3    H260494   2.129   3.958   4.543  0.2146 -0.6300  0.0591
13027TIP3   OH260495   3.829   1.099   2.931  0.5316  0.2698  0.2835
13027TIP3    H160496   3.845   1.178   2.984 -2.6547  1.0828  0.2394
13027TIP3    H260497   3.846   1.127   2.841 -2.2914  1.5987  0.0561
13028TIP3   OH260498   0.561   5.299  13.038 -0.1404  0.0472  0.2070
13028TIP3    H160499   0.538   5.218  12.991 -1.4941 -1.2131  2.8011
13028TIP3    H260500   0.613   5.349  12.975 -1.3306 -1.7178 -2.3833
13029TIP3   OH260501   2.422   4.306   1.043 -0.1213 -0.4940 -0.0010
13029TIP3    H160502   2.465   4.283   1.125  0.4435  1.8495  0.4395
13029TIP3    H260503   2.448   4.397   1.027 -0.9579 -0.5935 -2.3155
13030TIP3   OH260504   2.997   0.089  16.156 -0.1465  0.1897 -0.0277
13030TIP3    H160505   2.935   0.036  16.106  0.2613  0.1703 -0.5275
13030TIP3    H260506   3.081   0.076  16.111  0.0919  0.7132  0.2558
13031TIP3   OH260507   0.340   5.592   6.123 -0.0143  0.3585 -0.0730
13031TIP3    H160508   0.278   5.544   6.068  0.0533  0.0651  0.1101
13031TIP3    H260509   0.386   5.525   6.172  1.3078  0.4826 -1.0836
13032TIP3   OH260510   4.219   5.612   4.021  0.2532  0.7046 -0.4304
13032TIP3    H160511   4.221   5.692   3.968  1.8335  2.3679  1.8907
13032TIP3    H260512   4.163   5.635   4.095  1.3255 -0.0408  0.6434
13033TIP3   OH260513   5.287   2.388   0.473  0.0193  0.1084 -0.4268
13033TIP3    H160514   5.235   2.385   0.554  0.2891 -0.3527 -0.2638
13033TIP3    H260515   5.378   2.383   0.503  0.0895 -1.3661 -0.8034
13034TIP3   OH260516   4.112   3.881  14.019  0.0949  0.0398 -0.2390
13034TIP3    H160517   4.144   3.909  13.933 -2.4545 -0.2757 -1.3817
13034TIP3    H260518   4.099   3.786  14.010 -1.7338  0.2455 -0.0967
13035TIP3   OH260519   5.297   3.463   2.113  0.0397 -0.3227 -0.1582
13035TIP3    H160520   5.292   3.538   2.172  0.7962 -0.1571 -0.2888
13035TIP3    H260521   5.391   3.454   2.093 -0.2360 -0.0083 -1.7751
13036TIP3   OH260522   4.891   5.444  12.023  0.5856 -0.0687 -0.1941
13036TIP3    H160523   4.835   5.466  12.097  0.5380  0.3948 -0.3656
13036TIP3    H260524   4.855   5.362  11.989  1.7730 -1.3635  1.4870
13037TIP3   OH260525   2.118   4.701   3.547  0.2269 -0.0264  0.1225
13037TIP3    H160526   2.167   4.670   3.623  0.1962 -2.1086 -0.6608
13037TIP3    H260527   2.181   4.753   3.498  0.5795  0.3592  0.9652
13038TIP3   OH260528   0.883   1.657   4.052  0.2969 -0.0933 -0.2618
13038TIP3    H160529   0.810   1.596   4.041  2.2485 -2.7150  0.5314
13038TIP3    H260530   0.880   1.712   3.974 -2.7202  0.2065 -0.0772
13039TIP3   OH260531   6.321   4.185   3.010 -0.3735  0.2037  0.2637
13039TIP3    H160532   6.328   4.274   2.975  0.7135 -0.1193 -0.4041
13039TIP3    H260533   6.230   4.160   2.996 -0.5398  0.9863 -0.1063
13040TIP3   OH260534   2.293   2.445   4.269  0.3556  0.1194  0.2996
13040TIP3    H160535   2.257   2.417   4.185  0.8142  2.6161 -0.8329
13040TIP3    H260536   2.235   2.407   4.334 -1.0843 -0.4097 -1.2277
13041TIP3   OH260537   1.735   1.710  16.378  0.2057  0.2436  0.3178
13041TIP3    H160538   1.791   1.766  16.324  0.1776  1.0319  1.0942
13041TIP3    H260539   1.729   1.628  16.328  2.0285  0.1334  0.1909
13042TIP3   OH260540   3.899   2.018  12.479 -0.2921 -0.0454 -0.2907
13042TIP3    H160541   3.919   1.928  12.454 -0.4215 -0.3608  0.7056
13042TIP3    H260542   3.905   2.019  12.574  3.9498  1.9804 -0.3375
13043TIP3   OH260543   5.953   1.201  15.667  0.4499  1.0229  0.0622
13043TIP3    H160544   5.883   1.241  15.615  0.0923 -1.9478 -2.0321
13043TIP3    H260545   6.030   1.204  15.611  1.2696  1.7217  1.1999
13044TIP3   OH260546   5.224   2.472  16.407  1.0744 -0.4435  0.1475
13044TIP3    H160547   5.303   2.450  16.358  0.6711 -2.4129  0.2851
13044TIP3    H260548   5.162   2.504  16.341  1.4726 -0.3758 -0.1893
13045TIP3   OH260549   6.180   5.089   4.224 -0.0640  0.2623  0.2321
13045TIP3    H160550   6.194   5.036   4.145  0.2646  1.0964 -0.2795
13045TIP3    H260551   6.188   5.179   4.194 -0.1004  0.5954  1.1992
13046TIP3   OH260552   0.567   0.119   0.993 -0.3507 -0.2278 -0.6264
13046TIP3    H160553   0.501   0.097   1.059  0.3796 -1.3908 -0.2423
13046TIP3    H260554   0.563   0.214   0.985 -1.5791 -0.2176 -0.1070
13047TIP3   OH260555   2.494   3.360   5.323  0.3460  0.0196  0.0424
13047TIP3    H160556   2.551   3.372   5.247 -1.9015  1.3255 -1.5682
13047TIP3    H260557   2.549   3.382   5.398  2.5608 -0.9436 -1.1819
13048TIP3   OH260558   0.116   5.143   2.113  0.5180  0.5886  0.4897
13048TIP3    H160559   0.124   5.152   2.018  0.3817  2.5436  0.6152
13048TIP3    H260560   0.134   5.231   2.146  0.9779 -0.1629  2.3115
13049TIP3   OH260561   5.950   1.212  11.344  0.2808 -0.1774 -0.4377
13049TIP3    H160562   5.917   1.278  11.284 -1.0028  0.0128  0.4478
13049TIP3    H260563   5.895   1.135  11.327 -1.1321  0.3260  1.4626
13050TIP3   OH260564   0.492   2.281  17.103 -0.2125 -0.5119 -0.2015
13050TIP3    H160565   0.522   2.245  17.186 -0.1469 -1.2768 -0.5467
13050TIP3    H260566   0.471   2.372  17.122 -2.2574 -1.2208  1.1365
13051TIP3   OH260567   2.434   6.503   3.912  0.0797 -0.2952  0.4316
13051TIP3    H160568   2.449   6.411   3.937 -0.8200 -0.0155  2.1053
13051TIP3    H260569   2.347   6.503   3.871  0.7411 -0.4144 -1.0684
13052TIP3   OH260570   4.405   6.699   0.217 -0.5125  0.1984 -0.1585
13052TIP3    H160571   4.389   6.607   0.196 -1.5982  0.4456 -0.4634
13052TIP3    H260572   4.477   6.725   0.158  0.1730 -0.5866  0.3160
13053TIP3   OH260573   4.490   1.099  12.872  0.4264  0.7102  0.0086
13053TIP3    H160574   4.432   1.158  12.920 -0.3564 -1.2802  1.6642
13053TIP3    H260575   4.533   1.154  12.807 -2.8197  2.4396 -0.8715
13054TIP3   OH260576   4.871   3.603   4.273  0.7309  0.1423 -0.1899
13054TIP3    H160577   4.901   3.682   4.318  0.3596 -0.0207  0.3504
13054TIP3    H260578   4.931   3.534   4.303  1.9954  0.4767 -1.7883
13055TIP3   OH260579   6.171   5.683  14.694 -0.1708  0.0314  0.0797
13055TIP3    H160580   6.191   5.711  14.604  1.6703 -0.5627  0.2641
13055TIP3    H260581   6.163   5.765  14.743  1.2364  0.3424 -0.1659
13056TIP3   OH260582   4.894   4.200   5.518  0.3456 -0.0151 -0.2466
13056TIP3    H160583   4.912   4.265   5.449 -0.3759 -0.0521 -0.4858
13056TIP3    H260584   4.852   4.251   5.588 -0.9690 -0.3386 -0.7706
13057TIP3   OH260585   0.443   4.796  16.687  0.0013 -0.1854 -0.0929
13057TIP3    H160586   0.535   4.776  16.669  0.0474 -0.8127  0.7716
13057TIP3    H260587   0.442   4.890  16.705  0.5744 -0.2682  0.4171
13058TIP3   OH260588   6.100   4.814   5.103 -0.0550 -0.4991 -0.3289
13058TIP3    H160589   6.058   4.899   5.088 -1.0012 -0.7558  0.7539
13058TIP3    H260590   6.193   4.835   5.110 -0.2455  0.4102 -0.3786
13059TIP3   OH260591   2.291   5.730   0.576  0.0337 -0.0070 -0.1389
13059TIP3    H160592   2.248   5.664   0.631  0.2405 -0.0879 -0.0723
13059TIP3    H260593   2.219   5.775   0.532 -0.2894  1.3664  1.6548
13060TIP3   OH260594   5.959   3.380  14.985  0.1705  0.0988 -0.0196
13060TIP3    H160595   5.930   3.453  15.040 -1.4946 -1.5704  1.4696
13060TIP3    H260596   6.006   3.322  15.045  1.1414 -0.2524 -1.0848
13061TIP3   OH260597   1.226   1.063  10.490 -0.1629  0.8086  0.3488
13061TIP3    H160598   1.273   1.141  10.519  0.6812  1.2855 -2.0798
13061TIP3    H260599   1.158   1.097  10.432 -1.7754 -0.0972  1.6136
13062TIP3   OH260600   6.140   2.281   0.005  0.0364 -0.3078  0.0969
13062TIP3    H160601   6.213   2.272   0.066  0.8505 -0.9881 -0.9522
13062TIP3    H260602   6.128   2.376  -0.005  0.8466 -0.1922  0.1937
13063TIP3   OH260603   6.505   1.298  16.837  0.2429 -0.0655  0.3661
13063TIP3    H160604   6.412   1.315  16.817  1.3468  3.4759 -3.0169
13063TIP3    H260605   6.535   1.244  16.763  1.7477  2.7294 -1.2021
13064TIP3   OH260606   6.096   4.794  12.777 -1.3500 -0.2668 -0.1447
13064TIP3    H160607   6.070   4.816  12.867 -0.6399  1.9264 -0.4199
13064TIP3    H260608   6.158   4.863  12.753 -0.9101 -1.2779 -2.0460
13065TIP3   OH260609   3.717   0.882   2.617 -0.3782  0.1043 -0.4562
13065TIP3    H160610   3.712   0.873   2.522 -1.3483  0.7902 -0.4807
13065TIP3    H260611   3.807   0.858   2.638 -0.3982 -0.9485 -1.4441
13066TIP3   OH260612   0.972   3.226   4.764  0.3753  0.2555  0.1819
13066TIP3    H160613   1.052   3.231   4.711 -0.0308 -1.0674 -0.5899
13066TIP3    H260614   1.000   3.254   4.852  1.6542 -0.0692 -0.0948
13067TIP3   OH260615   5.034   2.939   6.639 -1.0043  0.6917 -0.1153
13067TIP3    H160616   5.129   2.949   6.647 -1.1528  2.0711  0.2250
13067TIP3    H260617   5.014   2.976   6.553 -1.2076  0.1218 -0.3174
13068TIP3   OH260618   2.061   6.231   1.791  0.6005 -0.1776 -0.3204
13068TIP3    H160619   2.036   6.168   1.859  0.2106  0.4571  0.1228
13068TIP3    H260620   2.122   6.181   1.735 -1.6853 -1.7992 -1.5185
13069TIP3   OH260621   5.167   0.903  13.615  0.0191 -0.1755  0.6836
13069TIP3    H160622   5.237   0.844  13.590 -0.5146 -0.1619 -0.9473
13069TIP3    H260623   5.134   0.939  13.532 -2.2028 -0.5114  1.3400
13070TIP3   OH260624   1.401   5.423  10.590  0.2471 -0.1215 -0.3657
13070TIP3    H160625   1.494   5.440  10.601  0.0553  0.5777  0.2461
13070TIP3    H260626   1.358   5.485  10.648 -0.5924 -0.7025 -0.3455
13071TIP3   OH260627   2.653   1.061  17.206 -0.2290 -0.5040 -1.0327
13071TIP3    H160628   2.667   1.045  17.299  0.3691 -0.8919 -1.1825
13071TIP3    H260629   2.667   1.155  17.195 -0.4510 -0.4325 -0.7080
13072TIP3   OH260630   1.532   1.622  13.568 -0.1024  0.5064  0.0747
13072TIP3    H160631   1.474   1.681  13.616  1.1334  0.1031  2.1777
13072TIP3    H260632   1.524   1.538  13.614  2.1902  0.4693  0.5026
13073TIP3   OH260633   2.384   5.264  14.636 -0.0727  0.3217  0.0172
13073TIP3    H160634   2.325   5.326  14.679 -0.1338  0.2147  0.0880
13073TIP3    H260635   2.472   5.296  14.656 -0.1123  0.8072 -0.5694
13074TIP3   OH260636   0.472   2.970   2.401  0.1787 -0.4805 -0.3326
13074TIP3    H160637   0.475   2.997   2.492  0.1958 -0.7184 -0.2610
13074TIP3    H260638   0.557   2.928   2.385  0.0555 -0.7175 -0.3684
13075TIP3   OH260639   6.625   0.062   3.223  0.2906 -0.1642  0.4633
13075TIP3    H160640   6.666  -0.022   3.204  0.4423  0.0190 -0.0402
13075TIP3    H260641   6.657   0.085   3.310 -0.2590 -0.9296  0.8792
13076TIP3   OH260642   0.922   4.326   2.115  0.0214  0.1472 -0.3802
13076TIP3    H160643   0.828   4.345   2.111 -0.0718  0.1944  1.2794
13076TIP3    H260644   0.926   4.232   2.132  0.2791  0.1304 -0.5307
13077TIP3   OH260645   0.954   3.126   3.274  0.9519  0.6777  0.0373
13077TIP3    H160646   0.937   3.210   3.316  1.9898  0.4936  0.8584
13077TIP3    H260647   0.956   3.063   3.346  1.1227  0.0907 -0.4702
13078TIP3   OH260648   3.810   1.807   3.690  0.1399  0.3555 -0.0346
13078TIP3    H160649   3.722   1.832   3.662 -0.3614 -0.4500  0.7664
13078TIP3    H260650   3.868   1.867   3.643 -0.6360 -0.7836 -2.6605
13079TIP3   OH260651   0.625   2.305  10.716  0.4870 -0.1014  0.0771
13079TIP3    H160652   0.537   2.270  10.731  0.3815 -0.3804 -1.0844
13079TIP3    H260653   0.615   2.399  10.726  0.3469 -0.2312  1.2641
13080TIP3   OH260654   5.148   5.769  16.700 -0.2888  0.0064  0.3499
13080TIP3    H160655   5.060   5.777  16.665 -0.5726 -1.0026  0.8213
13080TIP3    H260656   5.205   5.780  16.624 -0.8346 -0.1065 -0.0775
13081TIP3   OH260657   4.981   5.695   2.636 -0.4231  0.1239 -0.1198
13081TIP3    H160658   5.040   5.622   2.623 -0.4122 -0.5599  3.0505
13081TIP3    H260659   4.929   5.698   2.556  1.1861 -1.7742 -1.3358
13082TIP3   OH260660   1.833   6.129   5.192 -0.5487 -0.2039  0.1905
13082TIP3    H160661   1.867   6.218   5.182 -1.0368 -0.0879 -0.4745
13082TIP3    H260662   1.739   6.141   5.203 -0.4959 -0.5784  1.1934
13083TIP3   OH260663   3.665   5.717   4.482  0.1528  0.3849  0.7703
13083TIP3    H160664   3.621   5.647   4.434  0.8657  0.2338  0.3168
13083TIP3    H260665   3.604   5.741   4.552 -0.2150 -0.4848  0.7542
13084TIP3   OH260666   5.552   6.483   1.794 -0.0607 -0.3714  0.1789
13084TIP3    H160667   5.480   6.516   1.740 -0.2628  0.4322  0.9291
13084TIP3    H260668   5.578   6.402   1.751 -1.9522 -1.1192  0.3662
13085TIP3   OH260669   0.642   6.019  11.774  0.0033 -0.0170 -0.1317
13085TIP3    H160670   0.582   5.947  11.795 -0.1128  0.0744 -0.1501
13085TIP3    H260671   0.689   5.989  11.696  0.3488 -0.3064  0.1852
13086TIP3   OH260672   3.964   4.765  11.574 -0.3206 -0.1988  0.0112
13086TIP3    H160673   4.027   4.700  11.544 -1.0783 -0.1495 -1.7956
13086TIP3    H260674   3.893   4.714  11.614 -0.1122 -0.3610  0.1800
13087TIP3   OH260675   2.440   6.297  16.561  0.0003 -0.1341  0.3285
13087TIP3    H160676   2.412   6.373  16.612 -1.6715 -1.3734  1.3629
13087TIP3    H260677   2.360   6.247  16.547  1.0742 -1.7961 -0.1716
13088TIP3   OH260678   1.109   2.891  15.905 -0.1436 -0.0614 -0.3846
13088TIP3    H160679   1.112   2.896  15.809 -0.2868 -0.6112 -0.4181
13088TIP3    H260680   1.120   2.798  15.925 -2.2658 -0.2570  0.0532
13089TIP3   OH260681   2.628   5.045  13.280  0.2903  0.4928  0.1977
13089TIP3    H160682   2.565   4.990  13.234 -0.7113  1.7495 -0.0009
13089TIP3    H260683   2.703   4.988  13.296 -0.6835 -0.8962 -0.0287
13090TIP3   OH260684   3.628   1.676   6.744 -0.0515  0.4866 -0.1057
13090TIP3    H160685   3.691   1.665   6.815 -1.3222  0.7614  1.1184
13090TIP3    H260686   3.612   1.587   6.712  0.6906  0.3815 -0.1903
13091TIP3   OH260687   1.646   1.949  16.138 -0.5214  0.2012 -0.6457
13091TIP3    H160688   1.728   1.901  16.130  0.2153  1.6941 -3.7892
13091TIP3    H260689   1.667   2.025  16.193 -0.9630 -1.4132  1.9248
13092TIP3   OH260690   3.045   4.788  12.119  0.2587 -0.0951  0.0987
13092TIP3    H160691   3.009   4.719  12.177 -0.9525 -0.6123 -1.2045
13092TIP3    H260692   3.005   4.869  12.152  0.8497 -0.1397  0.9744
13093TIP3   OH260693   5.934   2.684  16.295  0.0097 -0.1526  0.5900
13093TIP3    H160694   5.974   2.692  16.209  0.8834 -0.1807  0.9859
13093TIP3    H260695   5.957   2.595  16.324 -1.5471 -0.7113  0.2320
13094TIP3   OH260696   5.846   2.654   1.267  0.5207 -0.2101  0.0495
13094TIP3    H160697   5.924   2.649   1.322  0.3167 -2.7520  0.2435
13094TIP3    H260698   5.877   2.635   1.179  0.3203  0.0834 -0.0830
13095TIP3   OH260699   1.580   2.375   0.560 -0.1141  0.0283 -0.0083
13095TIP3    H160700   1.658   2.429   0.575  0.2210 -0.5217  0.2673
13095TIP3    H260701   1.506   2.434   0.575  0.2448  0.6083 -0.4679
13096TIP3   OH260702   0.138   0.082   4.813  0.1928 -0.2064  0.0512
13096TIP3    H160703   0.044   0.070   4.823  0.1716  0.4416  0.6582
13096TIP3    H260704   0.167   0.003   4.767 -0.9705  0.5620 -2.1540
13097TIP3   OH260705   1.452   1.504  16.301  0.4129  0.1040 -0.1832
13097TIP3    H160706   1.446   1.496  16.396  0.1557 -0.4799 -0.2441
13097TIP3    H260707   1.379   1.452  16.268  1.2155 -0.7136 -0.7243
13098TIP3   OH260708   1.445   1.429  14.650  0.3581 -0.0488 -0.0263
13098TIP3    H160709   1.354   1.415  14.679  1.1294 -1.1138  2.0979
13098TIP3    H260710   1.469   1.513  14.688  0.1345  0.4622 -0.9908
13099TIP3   OH260711   2.075   1.581   4.151 -0.2465  0.3229 -0.2403
13099TIP3    H160712   2.042   1.671   4.145  0.9599  0.9318  1.5820
13099TIP3    H260713   2.162   1.584   4.111 -0.5321 -0.2507 -0.9338
13100TIP3   OH260714   6.406   2.717   0.093 -0.2065 -0.2275 -0.2589
13100TIP3    H160715   6.365   2.798   0.122 -0.7344 -0.6034  0.0651
13100TIP3    H260716   6.333   2.657   0.079  0.2616 -1.3686  1.7282
13101TIP3   OH260717   1.768   0.968  15.693 -0.1299  0.1449  0.1326
13101TIP3    H160718   1.847   0.916  15.710 -0.4625  0.3989  3.0269
13101TIP3    H260719   1.703   0.933  15.754 -0.9441  2.6869  0.8173
13102TIP3   OH260720   4.563   6.209   3.907  0.2860  0.0288 -0.0631
13102TIP3    H160721   4.504   6.208   3.831  0.1432 -2.2636 -0.0127
13102TIP3    H260722   4.603   6.296   3.906 -1.2811  0.7902 -1.5206
13103TIP3   OH260723   2.970   3.496  13.507  0.3966  0.6525 -0.6283
13103TIP3    H160724   2.989   3.526  13.596 -0.0799 -0.7236 -0.0274
13103TIP3    H260725   3.056   3.489  13.465  0.8000 -0.4615  0.3390
13104TIP3   OH260726   0.199   3.471  16.778 -0.2370  0.6286 -0.1804
13104TIP3    H160727   0.168   3.551  16.820 -1.7413  1.8225 -3.2031
13104TIP3    H260728   0.125   3.443  16.723  1.4126 -0.9047 -1.7613
13105TIP3   OH260729   1.041   6.641   6.277 -0.1731 -0.4239 -0.2136
13105TIP3    H160730   1.014   6.558   6.317 -0.5712 -0.7106 -1.0475
13105TIP3    H260731   0.959   6.680   6.246 -0.0344  0.4704  0.4943
13106TIP3   OH260732   0.198   6.359  12.964 -0.1013 -0.5163  0.5943
13106TIP3    H160733   0.264   6.389  13.026  0.1553  1.2582 -0.4588
13106TIP3    H260734   0.204   6.264  12.966  3.1496 -0.4471 -0.1152
13107TIP3   OH260735   3.100   4.722   6.588 -0.7138 -0.1683 -0.1454
13107TIP3    H160736   3.111   4.779   6.664  1.0692  0.5691 -0.9157
13107TIP3    H260737   3.021   4.755   6.544 -1.7393 -0.5768  1.3011
13108TIP3   OH260738   1.094   5.323   3.606 -0.8432 -0.2093 -0.2061
13108TIP3    H160739   1.163   5.264   3.638 -1.6796 -1.6566 -0.9849
13108TIP3    H260740   1.136   5.374   3.537 -0.5813 -1.2233 -0.8113
13109TIP3   OH260741   1.020   4.805  12.754  0.4925 -0.1371  0.4141
13109TIP3    H160742   0.983   4.797  12.666 -0.9495  0.9102  0.8887
13109TIP3    H260743   1.093   4.743  12.755  1.8686  1.3154 -2.1702
13110TIP3   OH260744   2.877   0.079  16.645 -0.1451 -0.6637  0.1139
13110TIP3    H160745   2.932   0.028  16.586 -0.7642  0.1391 -1.1973
13110TIP3    H260746   2.908   0.169  16.635 -1.2348 -0.2989 -0.1192
13111TIP3   OH260747   6.332   2.523  13.056 -0.5677  0.0845  0.0028
13111TIP3    H160748   6.406   2.466  13.075 -0.5447  0.0094 -0.3004
13111TIP3    H260749   6.347   2.553  12.966 -1.0208 -0.1223 -0.1516
13112TIP3   OH260750   5.733   4.450   2.170  0.3423  0.3856  0.1103
13112TIP3    H160751   5.701   4.429   2.083  1.6728  1.1148 -0.5948
13112TIP3    H260752   5.800   4.518   2.156  1.6336 -0.5106  1.5271
13113TIP3   OH260753   1.185   5.460  13.336 -0.6077 -0.1778 -0.5018
13113TIP3    H160754   1.123   5.522  13.374  0.3438  0.4259  0.1358
13113TIP3    H260755   1.162   5.376  13.374 -0.9278  0.0727 -0.1365
13114TIP3   OH260756   2.986   1.108   2.516 -0.5521  0.1257  0.1962
13114TIP3    H160757   2.985   1.202   2.531 -0.5048  0.0208  0.8658
13114TIP3    H260758   2.963   1.098   2.423  1.8975  0.9451 -0.5778
13115TIP3   OH260759   2.048   2.248  14.590  0.2371  0.0180  0.5650
13115TIP3    H160760   2.141   2.234  14.572 -0.0333 -0.2428 -0.7048
13115TIP3    H260761   2.047   2.312  14.662  1.3950 -0.6587  1.2098
13116TIP3   OH260762   0.914   2.084  13.296  0.0053  0.4898  0.3373
13116TIP3    H160763   0.960   2.155  13.341 -0.4714  0.8831  0.2102
13116TIP3    H260764   0.980   2.016  13.285  0.4555  0.8940  0.5084
13117TIP3   OH260765   1.702   6.003   0.214 -0.1707 -0.2098  0.6720
13117TIP3    H160766   1.732   6.065   0.149 -1.2980 -0.5389 -0.1951
13117TIP3    H260767   1.750   6.026   0.294  1.7758 -0.2576 -0.4307
13118TIP3   OH260768   2.174   3.051   1.677 -0.6776  0.2479 -0.4561
13118TIP3    H160769   2.091   3.056   1.630 -0.5746  0.9867 -0.5784
13118TIP3    H260770   2.239   3.028   1.610 -0.8098 -0.5832 -0.3146
13119TIP3   OH260771   6.695   4.710  12.947  0.3324  0.1922 -0.2586
13119TIP3    H160772   6.644   4.633  12.974  0.9649  0.2642  1.2144
13119TIP3    H260773   6.767   4.675  12.895 -0.7865  0.0332 -1.7702
13120TIP3   OH260774   1.836   6.635  12.202  0.8482 -0.1041 -0.0136
13120TIP3    H160775   1.790   6.574  12.260  2.5534 -1.6687 -0.2222
13120TIP3    H260776   1.790   6.629  12.118 -0.3938  0.6719  0.5718
13121TIP3   OH260777   2.056   5.724   6.224  0.2486 -0.1151  0.3847
13121TIP3    H160778   2.057   5.664   6.298  0.1755  1.9904  2.1747
13121TIP3    H260779   1.972   5.769   6.231 -1.1938 -1.9115 -2.8301
13122TIP3   OH260780   0.881   5.967   5.434  0.2522  0.9615  0.1268
13122TIP3    H160781   0.929   5.928   5.361 -0.5183  1.5642 -0.7298
13122TIP3    H260782   0.831   5.894   5.472 -2.6215  1.2704 -2.5967
13123TIP3   OH260783   2.980   2.688   2.126 -0.0068 -0.2245  0.5563
13123TIP3    H160784   2.940   2.723   2.046 -1.0735  2.0451  1.9740
13123TIP3    H260785   2.912   2.697   2.192  1.3325 -0.6507  2.0547
13124TIP3   OH260786   4.934   1.011  10.781 -0.0282  0.1960 -0.3674
13124TIP3    H160787   4.889   1.095  10.769 -2.0920 -0.7356  0.2520
13124TIP3    H260788   4.900   0.954  10.712 -1.1476 -1.0224  1.0990
13125TIP3   OH260789   1.926   3.341   5.066  0.0878 -0.1749 -0.0986
13125TIP3    H160790   1.998   3.330   5.003 -1.4100 -0.5903 -1.7990
13125TIP3    H260791   1.888   3.426   5.045  0.8203  0.6273  1.6356
13126TIP3   OH260792   3.812   6.068  15.176  0.4011  0.0305 -0.1761
13126TIP3    H160793   3.891   6.120  15.159  0.5214 -0.7739 -2.4611
13126TIP3    H260794   3.839   5.978  15.157 -0.3349 -0.6606  1.8125
13127TIP3   OH260795   2.023   6.649   2.587  0.5040  0.5545  0.2166
13127TIP3    H160796   2.099   6.704   2.607 -0.7085  2.0634  0.9362
13127TIP3    H260797   1.999   6.675   2.498 -0.7918  2.1836  0.9809
13128TIP3   OH260798   6.238   3.749  15.189  0.5460 -0.3029 -0.2784
13128TIP3    H160799   6.253   3.664  15.231 -0.3837 -1.0402 -1.3454
13128TIP3    H260800   6.149   3.742  15.154  0.2781  1.3100  0.0217
13129TIP3   OH260801   4.053   5.315   2.162  0.5957 -0.5882  0.1450
13129TIP3    H160802   4.104   5.396   2.161 -0.7994  0.3171  0.5258
13129TIP3    H260803   4.079   5.271   2.243  1.0049 -0.3033  0.1712
13130TIP3   OH260804   3.477   1.532   5.851 -1.1371  0.2986 -0.2096
13130TIP3    H160805   3.463   1.552   5.944 -0.9950 -2.3136  0.4427
13130TIP3    H260806   3.475   1.437   5.846 -3.9799  0.3197 -3.3766
13131TIP3   OH260807   0.364   1.606   2.849  0.3635  0.0156  0.4771
13131TIP3    H160808   0.284   1.603   2.797  1.1412  0.3994 -0.8037
13131TIP3    H260809   0.343   1.662   2.924 -0.1676  1.3039 -0.5938
13132TIP3   OH260810   0.825   5.152   4.470  0.0764  0.0646 -0.2572
13132TIP3    H160811   0.770   5.145   4.392 -0.9024  0.4750  0.3789
13132TIP3    H260812   0.896   5.212   4.444 -1.0123  1.3305 -0.4214
13133TIP3   OH260813   4.827   2.342   2.288  0.3342  0.2454  0.4235
13133TIP3    H160814   4.874   2.389   2.357 -0.4155 -1.4873  2.2213
13133TIP3    H260815   4.895   2.295   2.239  0.7869  0.5962  0.7132
13134TIP3   OH260816   4.190   6.778   0.014  0.0297  0.5497 -0.4430
13134TIP3    H160817   4.156   6.709  -0.043 -1.5802  0.2580  0.8192
13134TIP3    H260818   4.258   6.736   0.066  2.2961  1.0633 -2.7705
13135TIP3   OH260819   4.607   3.326  16.099  0.4746  0.8236 -0.1011
13135TIP3    H160820   4.588   3.357  16.188 -0.1228 -2.0765  0.9128
13135TIP3    H260821   4.554   3.381  16.042  0.4762  2.4239  1.3506
13136TIP3   OH260822   6.019   1.973  13.302 -0.2392 -0.6087 -0.6277
13136TIP3    H160823   6.027   1.998  13.210  0.2831 -0.5523 -0.5726
13136TIP3    H260824   6.109   1.967  13.333 -0.4040 -0.8561 -0.1784
13137TIP3   OH260825   6.124   1.610   6.664  0.5085  0.0606  0.5998
13137TIP3    H160826   6.149   1.530   6.618 -2.4855 -1.1112  0.7495
13137TIP3    H260827   6.034   1.627   6.635  0.8474  3.0960  1.0091
13138TIP3   OH260828   2.930   4.434   1.532  0.4543  0.2464  0.6075
13138TIP3    H160829   2.898   4.481   1.456 -0.7496 -1.9560 -0.3558
13138TIP3    H260830   2.880   4.470   1.605 -2.2737 -1.0633 -0.4569
13139TIP3   OH260831   1.403   5.985   3.701 -0.0334 -0.1197  0.3759
13139TIP3    H160832   1.490   6.004   3.665 -0.8860  1.8334 -0.8257
13139TIP3    H260833   1.410   5.895   3.733  2.0036 -0.5407 -1.0038
13140TIP3   OH260834   5.261   0.240   4.795 -0.3776 -0.4669 -0.7645
13140TIP3    H160835   5.338   0.252   4.740 -0.0233  1.4460  0.0876
13140TIP3    H260836   5.197   0.199   4.738  0.3118  0.5327 -2.3150
13141TIP3   OH260837   0.672   0.846  11.469 -0.0848 -0.0176 -0.2290
13141TIP3    H160838   0.726   0.845  11.548 -0.0079  0.5344 -0.2661
13141TIP3    H260839   0.688   0.932  11.431  1.8346 -1.1487 -2.2062
13142TIP3   OH260840   4.076   5.323  14.171 -0.1611 -0.3486 -0.6681
13142TIP3    H160841   4.052   5.393  14.231  1.7816  1.0218 -1.3927
13142TIP3    H260842   4.015   5.333  14.097 -2.8668 -2.3303  1.0905
13143TIP3   OH260843   5.465   0.807   1.438  0.3187  0.0667  0.5713
13143TIP3    H160844   5.511   0.886   1.410 -0.8402  0.9777  1.1340
13143TIP3    H260845   5.450   0.820   1.532 -0.2290 -0.6398  0.5893
13144TIP3   OH260846   6.132   0.454  14.507  0.0849 -0.0193 -0.2403
13144TIP3    H160847   6.125   0.362  14.481 -1.1266  0.2338 -0.8571
13144TIP3    H260848   6.046   0.491  14.489 -0.1429  0.7310  2.0640
13145TIP3   OH260849   1.551   2.722  13.046 -0.1413  0.3426  0.4281
13145TIP3    H160850   1.502   2.641  13.059 -0.0435  0.2188  0.0414
13145TIP3    H260851   1.488   2.783  13.008 -0.1235  0.3369  0.3891
13146TIP3   OH260852   6.608   6.124  14.812  0.4526 -0.2105 -0.5757
13146TIP3    H160853   6.693   6.122  14.856  0.2030 -0.6428 -0.0944
13146TIP3    H260854   6.584   6.217  14.811 -0.1534 -0.2921  1.4840
13147TIP3   OH260855   2.787   5.812  15.576 -0.1836 -0.2249  0.2304
13147TIP3    H160856   2.790   5.758  15.496 -0.9287  2.2505 -1.5988
13147TIP3    H260857   2.706   5.786  15.620 -1.1487  0.1467 -1.2444
13148TIP3   OH260858   5.141   5.127   2.431  0.1175 -0.3050  0.4771
13148TIP3    H160859   5.082   5.161   2.499 -3.2052 -0.4177 -2.0998
13148TIP3    H260860   5.171   5.043   2.466  1.3989  1.1596  3.2077
13149TIP3   OH260861   6.762   3.355   1.613 -0.4367  0.0032  0.0275
13149TIP3    H160862   6.836   3.308   1.574 -0.5413  1.1054 -1.6252
13149TIP3    H260863   6.692   3.290   1.619 -0.1345 -0.4239 -0.8571
13150TIP3   OH260864   2.888   1.103   1.342  0.3491  0.3310 -0.3403
13150TIP3    H160865   2.861   1.013   1.320  1.6350 -0.1083 -0.1709
13150TIP3    H260866   2.900   1.145   1.256  1.3772 -0.1694 -0.4548
13151TIP3   OH260867   5.036   6.695  12.215 -0.0914  0.0634 -0.0031
13151TIP3    H160868   5.117   6.741  12.238  0.4228 -0.5621 -0.5210
13151TIP3    H260869   5.059   6.644  12.138 -1.1209  0.2511 -0.4492
13152TIP3   OH260870   0.312   3.399   1.030  0.4986 -0.3538  0.1114
13152TIP3    H160871   0.270   3.484   1.037 -1.7085 -1.3183 -0.6212
13152TIP3    H260872   0.271   3.345   1.098  1.5962 -0.9398  0.3328
13153TIP3   OH260873   4.852   2.376  14.952 -0.4319 -0.2754 -0.7619
13153TIP3    H160874   4.881   2.465  14.972 -0.8984 -0.5424  1.3586
13153TIP3    H260875   4.757   2.382  14.948 -0.3866 -0.3253 -2.7231
13154TIP3   OH260876   0.849   5.230   3.718 -0.0033 -0.3590  0.6371
13154TIP3    H160877   0.822   5.277   3.796 -1.4332  0.1447 -0.1324
13154TIP3    H260878   0.927   5.278   3.687  0.5169 -0.5140  1.6754
13155TIP3   OH260879   4.211   0.482  12.389  0.3745 -0.0654  0.3357
13155TIP3    H160880   4.266   0.415  12.428  2.6259  2.1212  1.2173
13155TIP3    H260881   4.124   0.465  12.426  1.2855 -1.3242  2.0691
13156TIP3   OH260882   5.112   4.056  12.266 -0.0038  0.2076 -0.8805
13156TIP3    H160883   5.019   4.051  12.247 -0.6205  0.9449  1.6295
13156TIP3    H260884   5.151   4.087  12.184 -1.9584  0.0349 -1.9367
13157TIP3   OH260885   5.151   6.662  16.945  0.0182  0.0925 -0.6726
13157TIP3    H160886   5.165   6.744  16.899  0.8449 -0.9610 -2.4265
13157TIP3    H260887   5.135   6.598  16.876  0.4116 -1.4166  0.5598
13158TIP3   OH260888   1.519   2.813  16.926  0.1130 -0.2256 -0.3147
13158TIP3    H160889   1.552   2.873  16.859  1.2483  0.2238  0.6148
13158TIP3    H260890   1.597   2.769  16.959 -0.7559 -2.7325 -1.4005
13159TIP3   OH260891   3.767   3.401   3.088 -0.1807 -0.5014 -0.1977
13159TIP3    H160892   3.679   3.438   3.085 -0.3695 -0.9898 -1.0072
13159TIP3    H260893   3.822   3.464   3.042 -0.1070 -0.2260  0.2556
13160TIP3   OH260894   3.355   5.447  14.104 -1.1289 -0.2039  0.1733
13160TIP3    H160895   3.421   5.381  14.124  0.5871  1.2355 -0.5094
13160TIP3    H260896   3.365   5.513  14.173 -1.6110  0.2059 -0.1358
13161TIP3   OH260897   0.738   1.959   3.521 -0.2264 -0.0756 -0.0769
13161TIP3    H160898   0.818   1.915   3.550 -0.7201 -1.6268 -0.9417
13161TIP3    H260899   0.671   1.890   3.522 -1.3518  0.9790 -0.2112
13162TIP3   OH260900   0.522   0.100   3.131  0.1771  0.0409 -0.0304
13162TIP3    H160901   0.435   0.113   3.168  0.1026 -0.2980 -0.0796
13162TIP3    H260902   0.569   0.182   3.148  0.3778 -0.3598  1.4381
13163TIP3   OH260903   0.501   0.192  12.063  0.1709  0.2557  0.1211
13163TIP3    H160904   0.474   0.282  12.048  0.5657  0.8753  2.5906
13163TIP3    H260905   0.596   0.196  12.070  0.1762 -0.2912  0.4842
13164TIP3   OH260906   2.855   1.330  10.881  0.3665  0.1952  0.6653
13164TIP3    H160907   2.945   1.363  10.888  0.1371  1.7768 -2.2042
13164TIP3    H260908   2.845   1.271  10.956  3.7103  0.0817  1.1784
13165TIP3   OH260909   3.506   3.356   2.217  0.0336 -0.1504  0.0788
13165TIP3    H160910   3.592   3.397   2.209  0.1023 -0.6706 -2.6686
13165TIP3    H260911   3.517   3.270   2.178 -1.6803 -0.3216 -0.0749
13166TIP3   OH260912   2.107   3.762   0.394  0.2331  0.8278  0.3028
13166TIP3    H160913   2.025   3.805   0.419 -0.5664  0.7760 -1.9896
13166TIP3    H260914   2.082   3.671   0.377  0.7882  0.7649 -0.2240
13167TIP3   OH260915   0.830   4.070   4.862  0.0976 -0.0844 -0.6544
13167TIP3    H160916   0.919   4.082   4.897  1.2305 -3.1179 -2.0902
13167TIP3    H260917   0.790   4.005   4.921 -0.6424  0.1985 -0.8407
13168TIP3   OH260918   5.788   2.825  15.660 -0.1685 -0.0730 -0.8397
13168TIP3    H160919   5.804   2.908  15.704 -2.0959  0.8993 -1.8574
13168TIP3    H260920   5.764   2.765  15.731  0.6772  0.3772 -0.1573
13169TIP3   OH260921   5.663   4.962   6.477  0.1829  0.2722 -0.2416
13169TIP3    H160922   5.593   4.977   6.413 -0.6516 -2.0840  0.0088
13169TIP3    H260923   5.617   4.936   6.557  1.2555  2.0625  1.0072
13170TIP3   OH260924   0.145   6.751  11.970  0.4836  0.7593 -0.5959
13170TIP3    H160925   0.227   6.756  11.920  0.4556  0.6363 -0.6557
13170TIP3    H260926   0.077   6.737  11.903  0.3721  1.1913 -0.5765
13171TIP3   OH260927   5.098   2.776  12.673 -0.0740 -0.1674  0.2172
13171TIP3    H160928   5.014   2.815  12.650  0.3144  0.0387 -0.9178
13171TIP3    H260929   5.096   2.688  12.635  0.2707 -0.1166  0.0773
13172TIP3   OH260930   2.257   5.770  14.109  0.1077  0.1885  0.1419
13172TIP3    H160931   2.335   5.825  14.105  0.5711 -0.4419  0.4285
13172TIP3    H260932   2.185   5.829  14.084  0.3845  1.3181  1.8354
13173TIP3   OH260933   6.639   0.221  15.759 -0.1093  0.7099  0.0841
13173TIP3    H160934   6.724   0.226  15.716  0.1058 -0.6669  0.3296
13173TIP3    H260935   6.651   0.268  15.842  0.9635 -1.0429  0.9665
13174TIP3   OH260936   2.935   2.278  14.875  0.5824 -0.2414  0.1739
13174TIP3    H160937   2.987   2.299  14.953  0.1914  0.6670  0.1954
13174TIP3    H260938   2.880   2.205  14.902 -1.1257  1.4284  1.4721
13175TIP3   OH260939   3.889   5.869  11.029  0.6235  0.5510  0.2138
13175TIP3    H160940   3.804   5.913  11.022 -0.1622 -1.0145 -1.0097
13175TIP3    H260941   3.876   5.803  11.097  0.5689 -0.2335 -0.5368
13176TIP3   OH260942   0.457   1.238   1.577 -0.1768 -0.0861 -0.2182
13176TIP3    H160943   0.441   1.268   1.666 -1.7253 -0.4648 -0.3459
13176TIP3    H260944   0.494   1.314   1.532 -1.3552  0.7641  0.2120
13177TIP3   OH260945   2.045   6.477   6.206  0.4377 -0.6992  0.4097
13177TIP3    H160946   2.008   6.552   6.159 -3.9717 -2.3130  0.8533
13177TIP3    H260947   2.078   6.419   6.137 -1.1800 -0.7241 -0.3956
13178TIP3   OH260948   2.199   2.514  11.826  0.5203  0.0735 -0.1989
13178TIP3    H160949   2.129   2.570  11.791  0.0187 -0.8749 -0.7632
13178TIP3    H260950   2.280   2.561  11.805  0.0429  1.8508  1.6438
13179TIP3   OH260951   3.935   4.342  12.286  0.5849  0.6129 -0.1452
13179TIP3    H160952   4.007   4.368  12.343  0.4032  0.3058  0.2317
13179TIP3    H260953   3.907   4.423  12.243  0.5279  0.9001  0.4310
13180TIP3   OH260954   6.125   1.092   3.107  0.1932 -0.0580  0.0259
13180TIP3    H160955   6.154   1.174   3.068  0.2475  0.0652  0.3283
13180TIP3    H260956   6.188   1.027   3.074  1.3930  0.3468  1.3933
13181TIP3   OH260957   1.842   0.351   4.543 -0.0574  0.1952 -0.0657
13181TIP3    H160958   1.756   0.392   4.543 -0.0283  0.2637 -0.6110
13181TIP3    H260959   1.877   0.368   4.455  1.0840  1.3714  0.5843
13182TIP3   OH260960   4.073   4.167   5.306 -0.6205  0.3314 -0.2503
13182TIP3    H160961   4.010   4.240   5.301 -1.2047 -0.1261  0.3164
13182TIP3    H260962   4.100   4.165   5.397  0.4384  0.6938 -0.5466
13183TIP3   OH260963   3.649   2.383  15.877  0.1015  0.0962  0.5149
13183TIP3    H160964   3.580   2.320  15.858  0.2642  0.5128 -1.6669
13183TIP3    H260965   3.602   2.463  15.902 -0.1532 -0.1561  0.8570
13184TIP3   OH260966   3.171   6.132   0.380  0.2672 -0.1996  0.0324
13184TIP3    H160967   3.090   6.163   0.338  0.2237  2.0619  1.6005
13184TIP3    H260968   3.146   6.049   0.420 -1.3423  0.4844  0.5557
13185TIP3   OH260969   6.136   5.487   4.721  0.2268  0.0441 -0.0197
13185TIP3    H160970   6.084   5.564   4.702  1.8532  1.1235 -0.3207
13185TIP3    H260971   6.184   5.469   4.640  1.1974 -0.1882  0.5774
13186TIP3   OH260972   0.836   5.892  11.577  0.0959 -0.0135 -0.0076
13186TIP3    H160973   0.905   5.895  11.510  0.3952 -0.5813  0.2680
13186TIP3    H260974   0.883   5.881  11.659 -0.3021  0.1397  0.2421
13187TIP3   OH260975   2.742   0.390  14.065 -0.5127 -0.3052 -0.1635
13187TIP3    H160976   2.754   0.324  13.996  0.7678 -0.2941  0.0264
13187TIP3    H260977   2.650   0.417  14.056 -0.3745 -0.3030 -1.8708
13188TIP3   OH260978   6.438   1.123   2.835  0.0120 -0.5619 -0.0071
13188TIP3    H160979   6.504   1.078   2.782  1.8846 -0.2487  1.9003
13188TIP3    H260980   6.468   1.111   2.926  0.2297  3.7995  0.6918
13189TIP3   OH260981   3.489   5.440   1.675 -0.4677  0.3221 -0.4387
13189TIP3    H160982   3.568   5.495   1.680 -1.3701  1.5339  3.0332
13189TIP3    H260983   3.488   5.391   1.757 -3.1127  0.0652 -0.5459
13190TIP3   OH260984   6.498   3.465   2.196 -0.0228  0.4358 -0.1275
13190TIP3    H160985   6.488   3.371   2.184  0.5691  0.4244 -0.5393
13190TIP3    H260986   6.408   3.498   2.200 -0.2462  0.0970 -1.8936
13191TIP3   OH260987   2.804   5.635   5.323 -0.0592 -0.1094 -0.2595
13191TIP3    H160988   2.886   5.658   5.365  1.0668 -1.6062 -1.5398
13191TIP3    H260989   2.775   5.717   5.282  1.3569  0.2014 -0.6998
13192TIP3   OH260990   3.975   6.221  13.209  0.2176  0.1210 -0.1627
13192TIP3    H160991   3.921   6.218  13.288  0.2231  0.5811 -0.1416
13192TIP3    H260992   4.005   6.130  13.197  0.2295  0.0538  0.3700
13193TIP3   OH260993   5.579   2.249  11.297 -0.0822 -0.4259  0.0855
13193TIP3    H160994   5.607   2.186  11.363  2.7469  1.0328  0.4213
13193TIP3    H260995   5.630   2.225  11.219 -0.5936  0.1476 -0.4337
13194TIP3   OH260996   0.922   2.032   0.764  0.2633 -0.0982  0.2427
13194TIP3    H160997   0.855   1.985   0.814 -0.1782 -1.2941 -1.3671
13194TIP3    H260998   0.960   1.965   0.706  2.3496  0.7231  0.5855
13195TIP3   OH260999   5.168   4.110   0.267  0.3204 -0.5708  0.3052
13195TIP3    H161000   5.119   4.162   0.204  0.8430  0.0056  0.3663
13195TIP3    H261001   5.223   4.173   0.312  0.0488 -0.9948  1.2536
13196TIP3   OH261002   2.115   2.596  13.701  0.0322 -0.2883 -0.2913
13196TIP3    H161003   2.076   2.538  13.767  1.2025 -1.5821 -0.6783
13196TIP3    H261004   2.182   2.644  13.748 -0.9703  0.8250  0.0396
13197TIP3   OH261005   4.828   0.503   5.873  0.3105  0.3397 -0.2210
13197TIP3    H161006   4.753   0.543   5.917 -0.3195 -0.2217 -0.7596
13197TIP3    H261007   4.870   0.450   5.942 -0.7221 -0.6098 -0.2840
13198TIP3   OH261008   0.849   4.653  11.281 -0.4417  0.7608  0.7851
13198TIP3    H161009   0.759   4.653  11.312 -0.0736  1.8039  1.9456
13198TIP3    H261010   0.852   4.721  11.214 -0.1014  2.1701  2.1731
13199TIP3   OH261011   4.123   1.924  14.866  0.5489  0.0638  0.5367
13199TIP3    H161012   4.202   1.885  14.904 -0.0806 -0.8835  0.8890
13199TIP3    H261013   4.085   1.975  14.937  1.9692  2.3270 -0.2285
13200TIP3   OH261014   6.487   2.939  16.593 -0.2314 -0.9310  0.4643
13200TIP3    H161015   6.496   2.906  16.504  2.5172  1.7602 -0.4236
13200TIP3    H261016   6.429   3.015  16.585  0.4876 -0.3270  0.7894
13201TIP3   OH261017   2.446   5.983   4.138 -0.0634  0.4076 -0.0123
13201TIP3    H161018   2.467   5.890   4.128  0.8630  0.7034 -1.0163
13201TIP3    H261019   2.501   6.012   4.211 -2.6008 -0.4663  2.4188
13202TIP3   OH261020   6.057   3.562  11.547  0.3456 -0.8008 -0.5489
13202TIP3    H161021   6.010   3.487  11.585  0.0735 -0.2492  0.2387
13202TIP3    H261022   6.116   3.524  11.482 -1.3465 -1.5035 -1.7316
13203TIP3   OH261023   0.885   4.801   3.021 -0.4246  0.0333 -0.1851
13203TIP3    H161024   0.817   4.794   3.088 -0.2957  0.5323  0.0071
13203TIP3    H261025   0.852   4.751   2.947 -0.4915 -0.6683  0.3117
13204TIP3   OH261026   0.737   0.853   2.246 -0.4173 -0.2710  0.4420
13204TIP3    H161027   0.788   0.784   2.203  1.0351  0.4873  0.8995
13204TIP3    H261028   0.802   0.906   2.292 -1.4474  1.7364 -0.3267
13205TIP3   OH261029   4.025   0.794   4.116  0.5221 -0.3768 -0.2233
13205TIP3    H161030   4.021   0.702   4.089 -0.1978  0.2376 -2.3320
13205TIP3    H261031   3.935   0.826   4.108  0.8173  0.6159  0.2101
13206TIP3   OH261032   4.357   1.264  16.785 -0.2237 -0.2467 -0.4387
13206TIP3    H161033   4.320   1.179  16.764 -0.2058  0.2333 -2.5762
13206TIP3    H261034   4.282   1.318  16.810 -0.4273 -0.4379 -0.6439
13207TIP3   OH261035   1.646   3.633   1.627  0.0107 -0.8007 -0.1692
13207TIP3    H161036   1.635   3.627   1.532 -0.8161 -1.2478 -0.0585
13207TIP3    H261037   1.573   3.582   1.663 -0.3526  0.3112  0.7258
13208TIP3   OH261038   6.169   5.129   3.499  0.1329  0.1033 -0.3006
13208TIP3    H161039   6.199   5.131   3.408 -2.3003  0.1445 -1.1606
13208TIP3    H261040   6.116   5.050   3.505  0.4152  0.0059  1.1605
13209TIP3   OH261041   6.089   0.549   6.084  0.0213 -0.3427  0.4506
13209TIP3    H161042   6.095   0.476   6.146 -0.1537 -1.2421 -0.5581
13209TIP3    H261043   6.078   0.626   6.139  1.2580 -0.9415  1.5878
13210TIP3   OH261044   1.723   6.147   4.268 -0.7474 -0.3197  0.0693
13210TIP3    H161045   1.692   6.137   4.178  2.4165  0.7737 -1.2941
13210TIP3    H261046   1.701   6.237   4.291 -1.7623 -0.6697  0.5188
13211TIP3   OH261047   2.526   1.595   0.522 -0.3909  0.3076  0.1332
13211TIP3    H161048   2.446   1.619   0.475 -0.8491  0.7916  1.1362
13211TIP3    H261049   2.516   1.634   0.609  0.3757 -0.6891  0.6916
13212TIP3   OH261050   6.574   4.201   4.499 -0.5060 -0.6002 -0.3821
13212TIP3    H161051   6.508   4.203   4.429  0.4690 -1.2204 -1.3581
13212TIP3    H261052   6.641   4.264   4.470  0.0180 -1.0350 -0.1328
13213TIP3   OH261053   5.959   2.437  16.608  0.5546 -0.7498 -0.1637
13213TIP3    H161054   5.986   2.447  16.517 -0.7743  0.2935 -0.4799
13213TIP3    H261055   5.880   2.382  16.604  0.3539 -0.5094  0.3212
13214TIP3   OH261056   1.017   2.356  15.770  0.3882 -0.3098 -0.6344
13214TIP3    H161057   1.019   2.385  15.862 -0.4349 -0.8462 -0.4329
13214TIP3    H261058   1.088   2.405  15.728  0.9842 -0.2861  0.3545
13215TIP3   OH261059   0.881   1.103   2.456 -0.2589  0.2508 -0.2702
13215TIP3    H161060   0.804   1.083   2.510  0.3224  1.9294  1.2787
13215TIP3    H261061   0.852   1.175   2.400 -0.3370 -0.3303 -0.9878
13216TIP3   OH261062   4.158   5.391   4.554 -0.3414  0.2105  0.1630
13216TIP3    H161063   4.135   5.426   4.640 -1.6607  0.8973 -0.4450
13216TIP3    H261064   4.143   5.297   4.562 -2.0768  0.4596  0.2236
13217TIP3   OH261065   4.852   4.219  15.594 -0.1379 -0.0188 -0.1675
13217TIP3    H161066   4.849   4.216  15.499  0.0892 -0.7210 -0.1600
13217TIP3    H261067   4.832   4.310  15.616  0.0737  0.2104 -0.8941
13218TIP3   OH261068   5.257   0.886   2.382  0.0290  0.3834 -0.1274
13218TIP3    H161069   5.315   0.918   2.312  0.8339  0.1890  0.4332
13218TIP3    H261070   5.172   0.876   2.340  0.8853 -1.4741 -1.5572
13219TIP3   OH261071   4.838   4.911   4.976 -0.0698  0.1458  0.2314
13219TIP3    H161072   4.878   4.994   4.999 -1.4659  1.1363 -0.7541
13219TIP3    H261073   4.750   4.934   4.945  0.4002 -1.3639 -2.6262
13220TIP3   OH261074   5.574   3.518  11.610 -0.3665  0.0727  0.7433
13220TIP3    H161075   5.640   3.587  11.597 -1.3293  1.4479  2.6422
13220TIP3    H261076   5.495   3.554  11.570  0.1057 -2.0071 -2.4784
13221TIP3   OH261077   3.965   6.196   3.641  0.7641 -0.4949  0.1306
13221TIP3    H161078   3.870   6.184   3.648  0.6053 -0.4910 -1.6407
13221TIP3    H261079   3.997   6.112   3.607  1.2460 -0.0833 -0.4348
13222TIP3   OH261080   4.938   0.138  16.728  0.1002 -0.3736 -0.4863
13222TIP3    H161081   4.898   0.052  16.740  0.5770 -0.7640 -1.6461
13222TIP3    H261082   4.863   0.198  16.722 -0.2310 -0.6688  0.4096
13223TIP3   OH261083   4.014   0.295   5.236  0.2567 -0.1434  0.1594
13223TIP3    H161084   3.942   0.354   5.212  0.4683  0.2015  0.3739
13223TIP3    H261085   4.059   0.340   5.307  1.2663  0.0883 -0.6059
13224TIP3   OH261086   0.108   0.724   4.168  0.2979 -0.0425  0.4557
13224TIP3    H161087   0.182   0.767   4.213  0.4610 -0.1259  0.2692
13224TIP3    H261088   0.032   0.775   4.195  0.5833  0.8377 -0.3544
13225TIP3   OH261089   2.812   2.065   1.018 -0.6549 -0.5516  0.0383
13225TIP3    H161090   2.815   2.161   1.024  0.2189 -0.6787  2.4505
13225TIP3    H261091   2.900   2.036   1.042 -1.4315 -2.0092  1.3084
13226TIP3   OH261092   2.088   0.992   5.381  0.3846 -0.2223 -0.6166
13226TIP3    H161093   2.026   0.985   5.453 -0.3145  1.4801 -1.0097
13226TIP3    H261094   2.132   0.907   5.379  0.1571 -0.4395  1.5413
13227TIP3   OH261095   1.839   1.897   5.126  0.0530 -0.2956  0.7346
13227TIP3    H161096   1.814   1.977   5.080  0.6060 -0.2797  0.4539
13227TIP3    H261097   1.925   1.874   5.090 -0.9093 -2.0809 -0.5950
13228TIP3   OH261098   4.600   5.051  16.490  0.2043 -0.2733 -0.2356
13228TIP3    H161099   4.570   5.128  16.442 -0.0294 -0.1495  0.1050
13228TIP3    H261100   4.663   5.009  16.431 -1.7590 -1.4091 -1.6458
13229TIP3   OH261101   2.785   4.635  14.916 -0.2382 -0.2001  0.6070
13229TIP3    H161102   2.852   4.703  14.906 -0.3996 -0.3929 -3.2169
13229TIP3    H261103   2.831   4.563  14.961  1.3540  0.6328  0.4011
13230TIP3   OH261104   0.950   6.483  14.494 -0.7086 -0.4741  0.1539
13230TIP3    H161105   0.938   6.571  14.458 -0.2249 -0.4436  0.0661
13230TIP3    H261106   0.920   6.425  14.424  0.8144 -0.4345 -0.5609
13231TIP3   OH261107   4.219   4.562  14.459  0.1361 -0.2085 -0.2624
13231TIP3    H161108   4.126   4.582  14.451  0.8366  2.6049 -3.5250
13231TIP3    H261109   4.231   4.483  14.406 -0.2617 -0.0202 -0.6410
13232TIP3   OH261110   3.311   0.626  13.555  0.1457  0.0407 -0.2315
13232TIP3    H161111   3.360   0.585  13.485 -0.2813  0.2796 -0.6778
13232TIP3    H261112   3.314   0.563  13.627 -0.5714 -0.8197 -0.9342
13233TIP3   OH261113   0.656   3.462   1.903 -0.2253  0.3450 -0.0149
13233TIP3    H161114   0.567   3.435   1.924 -0.7278  2.1845  0.3767
13233TIP3    H261115   0.673   3.538   1.959  1.8683 -0.4098  0.4595
13234TIP3   OH261116   4.257   3.184   7.053  0.1775 -0.3103  0.3630
13234TIP3    H161117   4.298   3.101   7.027  0.8473 -0.2478  1.1986
13234TIP3    H261118   4.164   3.171   7.034  0.3195 -1.1350  0.1766
13235TIP3   OH261119   4.201   2.659  12.046  0.0830  0.0834 -0.5588
13235TIP3    H161120   4.277   2.702  12.085  0.2119  0.2129 -0.9443
13235TIP3    H261121   4.170   2.598  12.113 -1.4517  2.3052  0.9015
13236TIP3   OH261122   3.360   5.335   1.254 -0.3921 -0.2564  0.4995
13236TIP3    H161123   3.266   5.318   1.265 -0.3902 -1.5396 -1.0034
13236TIP3    H261124   3.400   5.296   1.331 -1.1574  1.3714  1.7696
13237TIP3   OH261125   2.583   0.286  12.217  0.5455 -0.0927  0.8439
13237TIP3    H161126   2.539   0.209  12.252 -1.2139  0.6387  0.3478
13237TIP3    H261127   2.554   0.291  12.126  1.5845  0.5004  0.5247
13238TIP3   OH261128   0.739   0.128   5.827  0.9358  0.4941 -0.3616
13238TIP3    H161129   0.690   0.210   5.823  0.0189 -0.0104  0.3584
13238TIP3    H261130   0.685   0.065   5.779  2.0554  0.4870 -1.6966
13239TIP3   OH261131   4.191   2.650   2.413 -0.6990  0.1216  0.2633
13239TIP3    H161132   4.156   2.638   2.325 -2.2959  2.6108  0.4621
13239TIP3    H261133   4.246   2.728   2.407 -0.7426  0.2696  1.4359
13240TIP3   OH261134   4.670   2.359   5.471 -0.3087 -0.0579  0.0876
13240TIP3    H161135   4.750   2.345   5.422  0.1656  1.2328  0.4536
13240TIP3    H261136   4.627   2.273   5.473  0.8653 -0.6699 -0.4388
13241TIP3   OH261137   4.207   2.504  14.134  0.2912 -0.0319  0.4985
13241TIP3    H161138   4.179   2.449  14.207  0.1485 -1.1196 -0.3380
13241TIP3    H261139   4.209   2.593  14.169  0.4852 -0.5640  1.8836
13242TIP3   OH261140   0.616   4.721   6.571  0.1275 -0.2851 -0.2623
13242TIP3    H161141   0.586   4.809   6.594  0.3585 -0.3181  0.1897
13242TIP3    H261142   0.674   4.734   6.496  1.5794  0.1781  0.8849
13243TIP3   OH261143   2.477   1.870  14.704  0.6254  0.0838 -0.6001
13243TIP3    H161144   2.462   1.874  14.610  0.2827 -0.1461 -0.5561
13243TIP3    H261145   2.401   1.824  14.739 -0.0562  1.5798 -0.0278
13244TIP3   OH261146   2.101   6.711  12.264 -0.3223 -0.2360  0.2438
13244TIP3    H161147   2.033   6.668  12.212 -1.1063  1.7866 -0.5076
13244TIP3    H261148   2.181   6.697  12.214 -0.7087 -0.1328 -0.4167
13245TIP3   OH261149   1.302   5.605  11.612  0.0457  0.3502 -0.2584
13245TIP3    H161150   1.280   5.605  11.705 -0.1938  0.1249 -0.3126
13245TIP3    H261151   1.272   5.520  11.580  0.2795  0.3591 -0.5069
13246TIP3   OH261152   5.156   0.580   5.642 -0.4290 -0.0917 -0.6391
13246TIP3    H161153   5.176   0.581   5.549 -1.0749 -2.2701 -0.8755
13246TIP3    H261154   5.223   0.524   5.681  0.5348  1.7236  0.4420
13247TIP3   OH261155   6.482   0.426  13.473 -0.3210  0.5121 -0.8187
13247TIP3    H161156   6.521   0.420  13.560 -0.6866 -0.9474 -0.7409
13247TIP3    H261157   6.544   0.382  13.415  0.2199  2.0063 -1.4335
13248TIP3   OH261158   0.964   2.566   5.519  0.2808 -0.6086 -0.6198
13248TIP3    H161159   1.030   2.527   5.462  2.2763  0.4180  0.8238
13248TIP3    H261160   1.010   2.580   5.602 -1.7818  0.1769  0.4673
13249TIP3   OH261161   2.233   1.544   0.046 -0.1218 -0.3552  0.3696
13249TIP3    H161162   2.235   1.609   0.117  0.6615  0.3558 -0.2712
13249TIP3    H261163   2.158   1.571  -0.008 -0.0608 -0.2360  0.3429
13250TIP3   OH261164   3.589   2.583  12.363 -0.9957 -0.5569 -0.6321
13250TIP3    H161165   3.613   2.517  12.298  0.3581  0.1821 -0.9109
13250TIP3    H261166   3.500   2.607  12.341 -0.2437  0.4350 -2.8972
13251TIP3   OH261167   1.118   6.308   0.132 -0.6904 -0.2391  0.7651
13251TIP3    H161168   1.080   6.221   0.123 -3.6318  1.0136  0.1186
13251TIP3    H261169   1.172   6.303   0.211  0.8406 -3.1071 -0.3115
13252TIP3   OH261170   3.912   4.616  14.480 -0.4391  0.3203 -0.1243
13252TIP3    H161171   3.884   4.567  14.403 -0.5188  1.8482 -1.0986
13252TIP3    H261172   3.907   4.552  14.552 -1.7818 -0.7405 -1.1084
13253TIP3   OH261173   1.010   2.040   5.181 -0.7031 -0.2318 -0.2203
13253TIP3    H161174   1.089   2.055   5.233  0.9008 -1.2382 -2.2050
13253TIP3    H261175   0.974   2.128   5.167  0.6078  0.3572 -0.0651
13254TIP3   OH261176   0.215   3.164  12.570  0.3064 -0.1965 -0.1903
13254TIP3    H161177   0.133   3.193  12.611 -0.4229  0.2975 -1.8962
13254TIP3    H261178   0.275   3.151  12.643 -1.5660 -1.5420  1.2202
13255TIP3   OH261179   0.123   2.534  14.257 -0.4405  0.4360  0.0234
13255TIP3    H161180   0.037   2.507  14.225 -2.4969  3.6111  2.2461
13255TIP3    H261181   0.184   2.507  14.189 -3.3549 -0.7738 -2.3151
13256TIP3   OH261182   4.944   4.678   5.108 -0.3092  0.1343  0.4364
13256TIP3    H161183   4.906   4.731   5.038 -0.4476 -0.6537 -0.1091
13256TIP3    H261184   5.022   4.726   5.135  1.2786 -0.7806 -2.1007
13257TIP3   OH261185   2.584   2.647  15.899 -0.1001 -0.4268  0.4808
13257TIP3    H161186   2.519   2.578  15.893  0.2397 -0.6846 -0.5012
13257TIP3    H261187   2.638   2.623  15.974  1.5661 -2.6536 -1.2709
13258TIP3   OH261188   0.981   0.154   0.752 -0.1254  0.1041  0.1000
13258TIP3    H161189   0.987   0.180   0.660 -0.9513  0.5189  0.1489
13258TIP3    H261190   0.894   0.184   0.779  0.0802 -0.0858  0.9941
13259TIP3   OH261191   5.432   2.706  11.008  0.9117 -0.6473 -0.2450
13259TIP3    H161192   5.392   2.771  11.066  2.2178 -0.1874  0.1714
13259TIP3    H261193   5.387   2.624  11.030  0.2469 -0.1646  0.2465
13260TIP3   OH261194   3.045   5.127  15.597  0.4075 -0.1860 -0.5361
13260TIP3    H161195   3.138   5.116  15.575  0.1135 -1.8341 -1.0504
13260TIP3    H261196   3.046   5.176  15.679  1.7343 -0.1943 -0.5229
13261TIP3   OH261197   0.981   4.678   5.790 -0.2863 -0.1967  0.2089
13261TIP3    H161198   0.945   4.590   5.802 -0.8103  0.1345  1.1544
13261TIP3    H261199   1.064   4.664   5.745  0.0364 -1.2465  1.0994
13262TIP3   OH261200   6.743   3.941   0.287  0.2109  0.2167  0.5749
13262TIP3    H161201   6.716   3.945   0.195  0.0878 -0.6448  0.5662
13262TIP3    H261202   6.837   3.920   0.283  0.2683  0.4664  0.6399
13263TIP3   OH261203   4.954   1.733   4.459 -0.0466 -0.4043  0.0680
13263TIP3    H161204   4.960   1.642   4.488 -1.8869 -0.6346 -0.1002
13263TIP3    H261205   4.952   1.727   4.363 -1.3451 -0.3211  0.0710
13264TIP3   OH261206   5.426   0.087   0.756  0.1698 -0.7526 -0.2386
13264TIP3    H161207   5.371   0.025   0.708 -0.7939 -0.3158  0.2776
13264TIP3    H261208   5.399   0.077   0.847  1.8636 -1.4605  0.2263
13265TIP3   OH261209   0.557   1.982  13.507  0.4782  0.7758 -0.4390
13265TIP3    H161210   0.532   1.892  13.485  1.0502  0.6340 -0.5016
13265TIP3    H261211   0.484   2.035  13.475  1.1410  0.5528 -2.3930
13266TIP3   OH261212   3.305   2.624  14.847 -0.2887 -0.0350 -0.5361
13266TIP3    H161213   3.316   2.596  14.938 -1.0379  0.4669 -0.2852
13266TIP3    H261214   3.264   2.548  14.804  3.8610 -1.9763 -1.5134
13267TIP3   OH261215   2.013   4.705   5.941 -0.3465 -0.7012 -0.8388
13267TIP3    H161216   1.995   4.722   6.034 -1.2255 -0.3798 -1.0511
13267TIP3    H261217   1.927   4.683   5.904 -0.2889  0.7022 -1.8918
13268TIP3   OH261218   5.404   4.273   2.087  0.4036 -0.0228  0.2722
13268TIP3    H161219   5.459   4.250   2.013  0.4874  1.9268 -0.3340
13268TIP3    H261220   5.359   4.192   2.110  3.4998 -1.7226  0.8310
13269TIP3   OH261221   5.089   3.508  11.739 -0.1699  0.3217 -0.0094
13269TIP3    H161222   5.086   3.596  11.776 -1.3563  0.8806 -1.3468
13269TIP3    H261223   5.173   3.472  11.768 -0.0906  1.5286  1.3411
13270TIP3   OH261224   5.749   3.014   4.198  0.6831  0.2365 -0.6178
13270TIP3    H161225   5.666   2.983   4.159  0.2792 -0.0309  0.4198
13270TIP3    H261226   5.797   2.933   4.217 -0.8239  0.0082  3.1083
13271TIP3   OH261227   5.713   5.890   0.381 -0.6595 -0.3524 -0.0220
13271TIP3    H161228   5.733   5.968   0.330 -0.3188  0.7427  1.6898
13271TIP3    H261229   5.746   5.910   0.469 -2.7087 -1.4392  1.0702
13272TIP3   OH261230   5.657   5.552   2.888 -0.2243  0.0262  0.4620
13272TIP3    H161231   5.624   5.569   2.800 -2.9510 -3.4694  0.5909
13272TIP3    H261232   5.613   5.616   2.943  1.2591  2.0340 -0.5364
13273TIP3   OH261233   2.109   6.179  12.985 -0.2522  0.7008 -0.2782
13273TIP3    H161234   2.057   6.186  12.905  0.4141  2.4211 -0.6006
13273TIP3    H261235   2.068   6.241  13.046  0.5478  1.0001 -0.0395
13274TIP3   OH261236   4.960   4.721  15.085 -0.2111 -0.1233 -0.3423
13274TIP3    H161237   4.887   4.684  15.036  0.4681 -1.1799 -0.5910
13274TIP3    H261238   4.950   4.816  15.076 -2.9824 -0.0973  1.7466
13275TIP3   OH261239   1.881   0.931   6.052  0.1543 -0.0474 -0.1616
13275TIP3    H161240   1.971   0.932   6.083  0.3026 -2.6916 -0.2712
13275TIP3    H261241   1.853   1.023   6.056  2.2535  0.6039  1.5227
13276TIP3   OH261242   5.735   0.956   2.739 -0.3238 -0.1006  0.6881
13276TIP3    H161243   5.766   1.043   2.764  1.0876 -0.2332 -0.4640
13276TIP3    H261244   5.773   0.898   2.805  1.8541 -0.2399 -0.6170
13277TIP3   OH261245   4.622   5.873  10.153 -0.4520 -0.2939  0.0336
13277TIP3    H161246   4.610   5.930  10.076 -0.6048  0.6668  0.7395
13277TIP3    H261247   4.566   5.913  10.220 -0.0004 -0.8794  0.7646
13278TIP3   OH261248   4.252   3.658  16.351 -0.2569 -0.1216 -0.4208
13278TIP3    H161249   4.341   3.681  16.324 -0.3459  1.5833  0.6095
13278TIP3    H261250   4.264   3.582  16.408  0.6871  0.7362  0.5825
13279TIP3   OH261251   4.541   6.669   2.421  0.3201 -0.3515  1.0550
13279TIP3    H161252   4.472   6.663   2.488  0.4538 -3.7324  1.0702
13279TIP3    H261253   4.494   6.692   2.340 -0.2583  0.8188  1.6921
13280TIP3   OH261254   6.344   2.344  12.035 -0.1749  0.4664  0.5307
13280TIP3    H161255   6.370   2.429  12.071 -3.5902  2.3591 -1.0303
13280TIP3    H261256   6.263   2.323  12.080 -0.9913 -0.4109 -1.2561
13281TIP3   OH261257   3.362   5.116  15.063  0.4338  0.2401  0.1332
13281TIP3    H161258   3.349   5.025  15.087 -0.7138  0.7327  1.5492
13281TIP3    H261259   3.402   5.113  14.976 -1.3636 -1.5914 -0.7045
13282TIP3   OH261260   4.816   4.226  15.304 -0.2020 -0.4354  0.2264
13282TIP3    H161261   4.854   4.307  15.272 -0.1830 -1.5972 -3.1647
13282TIP3    H261262   4.721   4.238  15.291 -0.2996 -0.5159  0.8601
13283TIP3   OH261263   2.873   2.888   0.476  0.6322 -0.1880  0.2953
13283TIP3    H161264   2.903   2.836   0.401  1.8197 -0.2732  0.8138
13283TIP3    H261265   2.779   2.869   0.481  0.5884 -0.4195 -0.9744
13284TIP3   OH261266   1.842   5.946  16.955 -0.0032 -0.0080  0.1081
13284TIP3    H161267   1.931   5.912  16.965 -0.0277  0.0338  0.4900
13284TIP3    H261268   1.851   6.041  16.963 -0.0944 -0.0113  0.2569
13285TIP3   OH261269   0.292   4.105   6.586 -0.2104  0.1067  0.2272
13285TIP3    H161270   0.347   4.027   6.588 -0.9787 -0.4943  2.9771
13285TIP3    H261271   0.211   4.076   6.545 -0.6640 -0.7483  1.6390
13286TIP3   OH261272   5.893   5.449  16.334  0.3542 -0.7618 -0.2701
13286TIP3    H161273   5.831   5.516  16.364  0.2049 -1.1907  0.3911
13286TIP3    H261274   5.956   5.497  16.281  0.7579  0.0673  0.9197
13287TIP3   OH261275   4.588   4.433   0.374  0.1065 -0.4535 -0.0406
13287TIP3    H161276   4.679   4.461   0.386  0.4178 -1.3187 -0.3187
13287TIP3    H261277   4.543   4.462   0.453  0.7452 -0.5104  0.3469
13288TIP3   OH261278   1.345   2.697   6.293  0.5909 -0.0654  0.0292
13288TIP3    H161279   1.435   2.730   6.290  0.3228  0.6545 -2.8238
13288TIP3    H261280   1.354   2.603   6.278  0.9558 -0.4756  2.3596
13289TIP3   OH261281   6.417   3.560  12.358 -0.1149  0.8071  0.1436
13289TIP3    H161282   6.361   3.537  12.284  2.0260  0.9989 -1.6499
13289TIP3    H261283   6.356   3.577  12.430 -2.2678  0.0863 -1.3936
13290TIP3   OH261284   2.971   6.742   3.271 -0.0203 -0.2651 -0.4214
13290TIP3    H161285   2.914   6.806   3.228  0.4821 -0.1773 -0.9732
13290TIP3    H261286   3.059   6.778   3.260  0.4501 -1.8103 -2.1397
13291TIP3   OH261287   5.800   4.649   0.767 -0.4153 -0.1728 -0.2600
13291TIP3    H161288   5.828   4.576   0.823 -0.7520  0.4556  0.7486
13291TIP3    H261289   5.858   4.721   0.791 -0.8075  0.2096 -0.4488
13292TIP3   OH261290   4.756   3.084   3.155 -0.4162 -0.4107 -0.5161
13292TIP3    H161291   4.670   3.046   3.174 -0.8795  1.5676  1.8768
13292TIP3    H261292   4.791   3.109   3.240  2.0298 -0.0300 -1.5418
13293TIP3   OH261293   5.952   6.717  10.406  0.4812 -0.4808  0.3390
13293TIP3    H161294   5.966   6.807  10.435  0.4018 -0.2308 -0.3747
13293TIP3    H261295   5.863   6.697  10.434  0.1813 -0.0257 -0.2544
13294TIP3   OH261296   3.845   1.118  14.699  0.0396 -0.8282 -0.4457
13294TIP3    H161297   3.885   1.125  14.786 -1.0775  0.5070 -0.0135
13294TIP3    H261298   3.772   1.057  14.712 -1.4492  0.9698  0.1178
13295TIP3   OH261299   6.268   4.897   5.641  0.1091 -0.6606  0.5202
13295TIP3    H161300   6.341   4.863   5.692 -0.6369 -0.9567  1.4306
13295TIP3    H261301   6.308   4.937   5.564  1.1850 -1.2347  0.7683
13296TIP3   OH261302   6.768   0.371   5.646 -0.3859 -0.0188 -0.1965
13296TIP3    H161303   6.727   0.436   5.588  1.4219  1.9203  0.5390
13296TIP3    H261304   6.800   0.303   5.586 -1.2003  0.4072 -1.1535
13297TIP3   OH261305   2.440   3.193  16.376  0.2729  0.0779  0.0487
13297TIP3    H161306   2.347   3.215  16.380 -0.1254 -1.0455 -1.9075
13297TIP3    H261307   2.467   3.186  16.468 -0.7379  3.5396  0.7651
13298TIP3   OH261308   6.269   0.635   0.674 -0.0125 -0.1004  0.4419
13298TIP3    H161309   6.284   0.728   0.688 -0.1066 -0.0855  0.4476
13298TIP3    H261310   6.174   0.627   0.665 -0.0651 -0.2979  1.1770
13299TIP3   OH261311   5.130   0.905  15.154  0.0022 -0.1904  0.0573
13299TIP3    H161312   5.199   0.971  15.163 -0.1668  0.0077 -0.0811
13299TIP3    H261313   5.121   0.894  15.059  0.0015 -0.3834  0.0798
13300TIP3   OH261314   5.705   4.665  16.094  0.0358 -0.2960 -0.1319
13300TIP3    H161315   5.776   4.683  16.032 -0.6537 -1.8825 -1.4584
13300TIP3    H261316   5.747   4.662  16.179  2.0324 -3.1234 -1.0568
13301TIP3   OH261317   1.934   0.343   3.988 -0.8639 -0.0541  0.3195
13301TIP3    H161318   2.000   0.381   3.930  0.7347  1.1723  2.7125
13301TIP3    H261319   1.952   0.249   3.988  0.6698  0.2046  0.5662
13302TIP3   OH261320   2.889   2.164   0.726 -0.4364  0.0153 -0.0420
13302TIP3    H161321   2.954   2.093   0.723  1.3512  1.5345  0.6494
13302TIP3    H261322   2.855   2.162   0.816 -0.8208 -0.3084 -0.1901
13303TIP3   OH261323   5.051   2.132   4.128  0.5142 -0.0663  0.1164
13303TIP3    H161324   5.138   2.102   4.100  0.7005  1.7509 -1.5042
13303TIP3    H261325   5.069   2.199   4.194  0.3989  0.6391 -0.5503
13304TIP3   OH261326   4.802   1.506  14.063 -0.4816  0.6475 -0.4523
13304TIP3    H161327   4.758   1.585  14.033 -0.4888  0.0089 -2.2086
13304TIP3    H261328   4.793   1.444  13.991  0.7282 -0.5016  0.3324
13305TIP3   OH261329   4.082   6.635  13.769  0.3844  0.5100  0.3160
13305TIP3    H161330   4.008   6.659  13.824 -0.2072 -1.0518  0.2536
13305TIP3    H261331   4.073   6.689  13.691 -0.7684  0.2589  0.2601
13306TIP3   OH261332   5.819   2.161   1.920 -0.0610 -0.5008 -0.4239
13306TIP3    H161333   5.823   2.186   2.012 -0.9719  0.8765 -0.7231
13306TIP3    H261334   5.742   2.105   1.913  0.1036 -0.7400 -0.3199
13307TIP3   OH261335   1.812   0.149   3.498  0.0280 -0.0317 -1.0369
13307TIP3    H161336   1.757   0.072   3.504  0.1036 -0.0596 -0.6229
13307TIP3    H261337   1.792   0.188   3.413 -0.1753 -0.3804 -1.1467
13308TIP3   OH261338   3.747   3.466   1.562  0.1511 -0.4944  0.6032
13308TIP3    H161339   3.686   3.476   1.635  0.2026  0.2033  0.5574
13308TIP3    H261340   3.746   3.551   1.518 -3.1830 -2.0089 -2.8691
13309TIP3   OH261341   0.552   6.214  13.544 -0.2060 -0.5325  0.4125
13309TIP3    H161342   0.497   6.237  13.619  0.7431  0.3472  0.8648
13309TIP3    H261343   0.577   6.123  13.561  1.0180  0.0194  1.8738
13310TIP3   OH261344   3.526   0.078   0.313  0.1453  0.1820  0.0782
13310TIP3    H161345   3.597   0.013   0.306 -0.5142 -0.4752 -0.7839
13310TIP3    H261346   3.546   0.126   0.393 -0.1883 -2.1165  1.6379
13311TIP3   OH261347   3.402   2.207   1.099 -0.3174  0.3430 -0.0148
13311TIP3    H161348   3.372   2.292   1.133  0.2774  0.7099 -0.3907
13311TIP3    H261349   3.475   2.229   1.042  1.1004 -0.5787  1.3627
13312TIP3   OH261350   3.353   0.636   0.669  0.2747 -0.0671 -0.0828
13312TIP3    H161351   3.286   0.704   0.676  1.6179  1.2427  0.9574
13312TIP3    H261352   3.368   0.608   0.759  1.5850  0.1813 -0.2004
13313TIP3   OH261353   3.139   3.454  12.833 -0.0723  0.0298  0.4187
13313TIP3    H161354   3.201   3.497  12.893  1.1421 -1.6736  0.4524
13313TIP3    H261355   3.175   3.470  12.746  2.2125 -3.3529  0.5397
13314TIP3   OH261356   5.143   5.482  11.421 -0.2078  0.5687  1.0910
13314TIP3    H161357   5.150   5.387  11.431  1.2542  0.5819  0.3803
13314TIP3    H261358   5.159   5.499  11.329 -2.3493  1.3863  0.8058
13315TIP3   OH261359   1.475   0.218  16.019 -0.0434  0.2270  0.7849
13315TIP3    H161360   1.466   0.313  16.010 -0.7058  0.1248  0.2229
13315TIP3    H261361   1.451   0.183  15.933  3.2337 -0.3033 -0.0308
13316TIP3   OH261362   1.827   5.245   6.403  0.1613 -0.5984  0.2172
13316TIP3    H161363   1.843   5.242   6.498  0.5049 -0.4964  0.1623
13316TIP3    H261364   1.770   5.322   6.391 -2.0524 -2.0697  0.6518
13317TIP3   OH261365   1.631   5.316  10.753  0.7515  0.1567  0.0655
13317TIP3    H161366   1.662   5.389  10.699  0.8828 -1.8779 -2.7905
13317TIP3    H261367   1.710   5.269  10.778  0.6339  0.6937  1.6032
13318TIP3   OH261368   5.659   2.123   1.028  0.0926 -0.0418 -0.2350
13318TIP3    H161369   5.745   2.081   1.026  0.1853  0.1861 -1.8379
13318TIP3    H261370   5.631   2.114   1.120  1.9013  0.0685  0.3732
13319TIP3   OH261371   0.814   3.049   4.224  0.5987 -0.3627 -0.1304
13319TIP3    H161372   0.907   3.039   4.243  0.4934  2.0746  2.4546
13319TIP3    H261373   0.772   3.050   4.311 -1.0183  4.3149 -0.6320
13320TIP3   OH261374   0.041   1.003  15.327  0.5447  0.4003  0.0782
13320TIP3    H161375   0.133   1.005  15.301  0.2870  1.3747 -0.8171
13320TIP3    H261376   0.005   1.086  15.297 -0.1869  0.9095  2.1496
13321TIP3   OH261377   2.490   5.188  16.364  0.4617  0.1356  0.7721
13321TIP3    H161378   2.535   5.112  16.326  0.6245 -0.1513  1.5263
13321TIP3    H261379   2.397   5.167  16.359  0.4185  0.5193 -0.3459
13322TIP3   OH261380   3.604   3.467  14.245 -0.3547  0.6169  0.4466
13322TIP3    H161381   3.647   3.472  14.160  0.5901 -2.7758  0.6104
13322TIP3    H261382   3.542   3.540  14.244  0.9581  1.8424 -2.3322
13323TIP3   OH261383   1.975   6.721   6.108 -0.2741  0.4564 -0.9446
13323TIP3    H161384   1.912   6.770   6.162 -1.5349 -0.9273 -1.0857
13323TIP3    H261385   1.930   6.710   6.024  0.5234  0.2053 -1.3408
13324TIP3   OH261386   4.340   4.101  15.642 -0.3040 -0.3550 -0.9670
13324TIP3    H161387   4.375   4.012  15.644  1.6347  0.3786 -0.2729
13324TIP3    H261388   4.323   4.117  15.549  1.3402 -0.7317 -1.3749
13325TIP3   OH261389   0.258   1.484   5.757  0.4538 -0.3239  0.2191
13325TIP3    H161390   0.175   1.439   5.737  0.1910  1.0199 -2.1892
13325TIP3    H261391   0.271   1.470   5.851 -2.4994 -0.6131  0.6990
13326TIP3   OH261392   6.012   5.539   2.321 -0.3990 -0.7047 -0.6300
13326TIP3    H161393   6.052   5.600   2.383 -0.4758 -1.9805  0.7137
13326TIP3    H261394   5.947   5.491   2.373 -1.3139 -0.9950 -1.9876
13327TIP3   OH261395   5.043   5.683   1.083 -0.3502 -0.0596  0.2316
13327TIP3    H161396   4.979   5.740   1.041  0.9579  1.5323  0.2935
13327TIP3    H261397   5.092   5.644   1.010 -0.0016  0.4118  0.2065
13328TIP3   OH261398   6.045   5.311  16.808 -0.0219  0.6874  0.3327
13328TIP3    H161399   6.114   5.292  16.873  2.1116  1.7264 -1.4730
13328TIP3    H261400   6.005   5.392  16.840 -0.6504 -0.0733  1.5496
13329TIP3   OH261401   4.963   2.255   2.730  0.3716 -0.2931  0.6611
13329TIP3    H161402   4.884   2.244   2.677 -0.0952  0.2252  1.2386
13329TIP3    H261403   4.976   2.171   2.774 -0.8517  0.1451  1.9085
13330TIP3   OH261404   6.560   4.338  14.450 -0.3789  0.1735  0.0630
13330TIP3    H161405   6.533   4.268  14.390  2.3641  0.4029 -1.6023
13330TIP3    H261406   6.610   4.293  14.518  1.3878  0.4306 -1.0101
13331TIP3   OH261407   6.415   3.450  10.669 -0.4526 -0.5118 -0.0966
13331TIP3    H161408   6.491   3.508  10.664  0.6508 -1.8537  0.5260
13331TIP3    H261409   6.349   3.501  10.716  1.1334 -0.4040  2.1618
13332TIP3   OH261410   2.065   3.482   0.468  0.3441  0.1544 -0.0749
13332TIP3    H161411   2.159   3.468   0.482  0.7006  1.3314 -1.1305
13332TIP3    H261412   2.023   3.424   0.531  1.7623 -1.1899 -0.3072
13333TIP3   OH261413   0.082   3.846  13.628  0.2075 -0.2384 -0.6455
13333TIP3    H161414   0.024   3.897  13.571  0.3770 -0.6119 -1.1617
13333TIP3    H261415   0.032   3.767  13.647  0.5213 -0.5422 -1.0579
13334TIP3   OH261416   3.881   3.623   5.053 -1.3639  0.0789 -0.2160
13334TIP3    H161417   3.926   3.707   5.066  0.2751 -0.7895 -0.0719
13334TIP3    H261418   3.809   3.644   4.993 -1.1575  1.6316  0.0223
13335TIP3   OH261419   3.825   2.380   2.065  0.0230  0.1827 -0.5614
13335TIP3    H161420   3.877   2.407   2.142  0.3240  0.9036 -1.0061
13335TIP3    H261421   3.748   2.337   2.103  0.1435  0.5657  0.1508
13336TIP3   OH261422   3.435   5.925  11.099  0.2236  0.1629 -0.1152
13336TIP3    H161423   3.417   5.900  11.189 -0.5150 -0.2168 -0.3588
13336TIP3    H261424   3.350   5.952  11.064  0.5542  0.5820 -0.6141
13337TIP3   OH261425   2.728   5.391   2.782  0.2163 -0.1157 -0.2663
13337TIP3    H161426   2.712   5.485   2.794  0.8425 -0.1799  1.2131
13337TIP3    H261427   2.743   5.358   2.870 -2.3385 -2.0820 -0.4483
13338TIP3   OH261428   0.629   1.190  16.707  0.0992  0.4184 -0.2152
13338TIP3    H161429   0.702   1.127  16.705 -0.1591  0.0206  1.5265
13338TIP3    H261430   0.636   1.236  16.623  2.3717  0.4242 -0.0916
13339TIP3   OH261431   1.769   6.680  16.598 -0.1471  0.3583  0.2585
13339TIP3    H161432   1.813   6.763  16.578 -2.2562  1.5467  0.3415
13339TIP3    H261433   1.678   6.695  16.575 -1.3881 -0.5673  3.8744
13340TIP3   OH261434   0.099   0.807   6.001 -0.0094  0.6441  1.0795
13340TIP3    H161435   0.104   0.812   6.096  0.7278 -2.3573  1.3085
13340TIP3    H261436   0.023   0.751   5.984  1.1388 -0.7142  0.0868
13341TIP3   OH261437   3.333   5.504  15.644  0.1576 -0.5723  0.1169
13341TIP3    H161438   3.389   5.532  15.571  1.6172 -0.9856  1.0370
13341TIP3    H261439   3.347   5.571  15.711 -0.5324 -0.6388  0.3301
13342TIP3   OH261440   0.296   2.084   3.034  0.6299  0.9647  0.2951
13342TIP3    H161441   0.370   2.132   3.072 -0.9408  0.4547  4.5778
13342TIP3    H261442   0.219   2.136   3.056 -0.6653 -0.8404  0.2959
13343TIP3   OH261443   4.024   0.891   2.733  0.2294  0.3777 -1.1579
13343TIP3    H161444   4.017   0.978   2.693 -0.5044  0.0614 -1.7397
13343TIP3    H261445   4.117   0.868   2.723  0.3036  0.8285 -1.5734
13344TIP3   OH261446   3.438   3.925  13.155 -0.0696  0.5708  0.8541
13344TIP3    H161447   3.493   3.847  13.159  0.0281  0.4332 -1.5871
13344TIP3    H261448   3.399   3.922  13.068 -0.4473  2.9964  0.8740
13345TIP3   OH261449   5.349   5.048  11.731 -0.1069 -0.5639 -0.1192
13345TIP3    H161450   5.434   5.009  11.754  0.3918  0.1049 -0.7859
13345TIP3    H261451   5.318   4.995  11.657 -0.1450 -0.6453 -0.0444
13346TIP3   OH261452   5.397   6.273  12.575  0.2631 -0.9554  0.1587
13346TIP3    H161453   5.477   6.234  12.611 -0.4531 -0.8476  1.9686
13346TIP3    H261454   5.415   6.281  12.481  2.8505  0.1850  0.6386
13347TIP3   OH261455   2.549   6.566  12.660 -0.1195 -0.3281  0.0877
13347TIP3    H161456   2.501   6.611  12.590 -1.6076  0.3329  1.4688
13347TIP3    H261457   2.637   6.556  12.626 -1.3779 -2.5289 -3.0106
13348TIP3   OH261458   4.327   6.333   5.594 -0.2761 -0.5298  0.0449
13348TIP3    H161459   4.416   6.354   5.564 -0.4553 -0.0182 -0.1468
13348TIP3    H261460   4.340   6.270   5.664  0.2926  0.1934  0.6091
13349TIP3   OH261461   2.410   5.562   5.172  0.1812 -0.5560  0.2387
13349TIP3    H161462   2.471   5.507   5.221  0.7507 -0.6298 -0.5302
13349TIP3    H261463   2.398   5.640   5.227  0.9423 -0.5608  0.4191
13350TIP3   OH261464   2.340   5.522  16.543 -0.3702 -0.1324  0.2439
13350TIP3    H161465   2.398   5.567  16.605  0.0613 -1.7615  1.0823
13350TIP3    H261466   2.395   5.509  16.465 -1.1088  2.4997 -0.8459
13351TIP3   OH261467   5.054   5.838   3.147 -0.0554 -0.0261 -0.3604
13351TIP3    H161468   4.986   5.773   3.130  2.2085 -2.0643 -2.3453
13351TIP3    H261469   5.042   5.905   3.080 -0.0506 -0.4522 -0.7894
13352TIP3   OH261470   3.401   4.642   0.798 -0.1243  0.1686 -0.1479
13352TIP3    H161471   3.440   4.727   0.819 -0.6641  0.1942  0.7789
13352TIP3    H261472   3.311   4.662   0.774 -0.2500 -0.1435  0.0641
13353TIP3   OH261473   5.503   0.675  16.682  0.2862 -0.1184 -0.0086
13353TIP3    H161474   5.446   0.621  16.627  1.0627 -0.3610 -0.5811
13353TIP3    H261475   5.475   0.655  16.772  1.5652 -2.6865 -0.0987
13354TIP3   OH261476   1.004   3.347   6.100  0.0416  0.2995  0.1876
13354TIP3    H161477   0.911   3.324   6.097 -0.2023  1.0999  0.8961
13354TIP3    H261478   1.006   3.432   6.144  1.1636  0.0048  0.7548
13355TIP3   OH261479   5.070   5.905  10.304 -0.2760 -0.2035 -0.2297
13355TIP3    H161480   5.081   5.915  10.399  0.2067  0.3185 -0.3340
13355TIP3    H261481   5.010   5.976  10.279 -1.9077 -1.4626 -0.0537
13356TIP3   OH261482   5.759   1.310   3.573 -0.0548  0.5710 -0.2131
13356TIP3    H161483   5.692   1.266   3.520  0.0620 -0.1137  0.1940
13356TIP3    H261484   5.710   1.377   3.621 -0.4292  0.1802 -0.0357
13357TIP3   OH261485   3.615   4.705  12.615 -0.0707  0.2543 -0.0182
13357TIP3    H161486   3.684   4.678  12.555  0.8037 -0.4811  1.2534
13357TIP3    H261487   3.597   4.796  12.592 -1.0989 -0.5228 -2.5646
13358TIP3   OH261488   5.576   4.434  12.160  0.0935 -0.2068  0.1388
13358TIP3    H161489   5.538   4.349  12.138 -1.4471  0.5868 -0.4832
13358TIP3    H261490   5.665   4.431  12.125 -0.0761 -1.4188 -0.2183
13359TIP3   OH261491   6.620   6.692  17.021  0.4060  0.4245  0.6321
13359TIP3    H161492   6.573   6.750  16.961  3.3832  0.3885 -1.9599
13359TIP3    H261493   6.690   6.746  17.057  1.1565 -0.6522  0.8360
13360TIP3   OH261494   6.623   5.504  10.636 -0.6876 -0.6732  0.1224
13360TIP3    H161495   6.648   5.566  10.568 -1.5500  0.4470  0.8055
13360TIP3    H261496   6.609   5.557  10.715 -1.3366 -1.7282  0.7557
13361TIP3   OH261497   0.866   2.978  13.815  0.3382  0.0298 -0.4932
13361TIP3    H161498   0.867   2.921  13.738  2.0751 -1.3893  0.4899
13361TIP3    H261499   0.819   3.056  13.787 -1.7076 -1.6451 -2.0677
13362TIP3   OH261500   4.549   5.650   2.990 -0.1627  0.2281  0.1178
13362TIP3    H161501   4.530   5.580   2.927 -0.0697  1.4840 -1.3606
13362TIP3    H261502   4.464   5.674   3.026 -0.4293  0.5935 -0.7392
13363TIP3   OH261503   0.953   4.926  17.153  1.2643 -0.6234  0.5747
13363TIP3    H161504   0.934   4.844  17.109  2.8318 -0.6929 -0.0325
13363TIP3    H261505   0.970   4.902  17.244  0.2700 -0.7642  0.7339
13364TIP3   OH261506   0.677   5.661   2.994 -0.3188 -0.6540 -0.1723
13364TIP3    H161507   0.609   5.702   2.941  0.2688 -0.2603 -0.6324
13364TIP3    H261508   0.740   5.731   3.012  0.5674 -1.2737 -0.7657
13365TIP3   OH261509   5.412   0.593  16.270 -0.1042  0.2474  0.1594
13365TIP3    H161510   5.490   0.644  16.294 -0.3828 -0.3180  2.4795
13365TIP3    H261511   5.339   0.641  16.309 -0.6838 -0.4149 -0.0954
13366TIP3   OH261512   0.427   5.486   2.487 -0.2891 -0.2571  0.9251
13366TIP3    H161513   0.404   5.414   2.429  0.4739 -0.1438  0.4725
13366TIP3    H261514   0.473   5.444   2.560 -0.2191 -0.2735  0.8716
13367TIP3   OH261515   5.438   3.262   3.731  0.7365  0.1323  0.0453
13367TIP3    H161516   5.416   3.231   3.643  0.4605  0.9350 -0.1837
13367TIP3    H261517   5.504   3.201   3.762  0.7888 -0.2027 -0.6977
13368TIP3   OH261518   2.260   0.866   5.099  0.7489 -0.2001 -0.1366
13368TIP3    H161519   2.172   0.837   5.075 -0.0588  2.0734 -0.1178
13368TIP3    H261520   2.275   0.828   5.186  0.2398 -1.4586 -0.5818
13369TIP3   OH261521   6.679   3.548  12.708 -0.3530  0.0221 -0.0736
13369TIP3    H161522   6.690   3.501  12.625 -0.9695 -2.2256  1.0421
13369TIP3    H261523   6.597   3.513  12.744  0.4653  0.1198  1.9964
13370TIP3   OH261524   5.456   2.356  13.536  0.4966  0.5016  0.0366
13370TIP3    H161525   5.538   2.386  13.496 -0.1025  2.3819  0.1136
13370TIP3    H261526   5.482   2.283  13.592  2.7529  3.0520  2.6340
13371TIP3   OH261527   3.991   5.591  14.898 -0.2932 -0.4097 -0.2118
13371TIP3    H161528   4.082   5.578  14.873 -0.6369 -0.9708 -1.2344
13371TIP3    H261529   3.989   5.577  14.992  0.4699 -1.5757 -0.3514
13372TIP3   OH261530   6.058   3.207   2.618 -0.3380 -0.5130  0.1543
13372TIP3    H161531   6.011   3.278   2.663 -1.0088 -0.4272 -0.6467
13372TIP3    H261532   6.136   3.249   2.582 -1.2561  0.0982 -1.2227
13373TIP3   OH261533   3.062   2.853  15.541  0.6991  0.0865  0.1575
13373TIP3    H161534   3.144   2.894  15.516 -0.3121  0.7705 -2.3659
13373TIP3    H261535   3.012   2.921  15.586  1.1525 -0.0592  0.8842
13374TIP3   OH261536   0.453   4.887  12.725  0.2191 -0.1639  0.3915
13374TIP3    H161537   0.414   4.941  12.794  0.3826  0.3395  0.0953
13374TIP3    H261538   0.462   4.800  12.765  0.1174  0.0678  0.9324
13375TIP3   OH261539   0.179   5.667  17.104  0.5767 -0.5556 -0.1019
13375TIP3    H161540   0.245   5.599  17.100 -0.3803 -1.5275  0.0729
13375TIP3    H261541   0.145   5.674  17.015 -0.9764 -2.0380  0.3173
13376TIP3   OH261542   3.356   4.245   6.229 -0.2941  0.4074  0.2403
13376TIP3    H161543   3.387   4.321   6.178  0.1932 -0.2578 -0.4824
13376TIP3    H261544   3.384   4.264   6.319 -0.4235  1.2093  0.1225
13377TIP3   OH261545   6.370   6.017  12.723 -0.5529 -0.5626  0.1964
13377TIP3    H161546   6.405   6.070  12.795  1.6505  1.0216 -1.8466
13377TIP3    H261547   6.300   6.071  12.686 -1.5562 -1.2888  1.0214
13378TIP3   OH261548   3.012   4.292   2.214  0.2838 -0.1728  0.1975
13378TIP3    H161549   2.946   4.226   2.192  1.2757 -1.7194  1.5613
13378TIP3    H261550   2.994   4.314   2.306 -0.1577  1.6600 -0.2936
13379TIP3   OH261551   6.735   1.217   0.710  0.4282 -0.1864 -0.1313
13379TIP3    H161552   6.726   1.174   0.796  0.6180 -0.9702 -0.4918
13379TIP3    H261553   6.819   1.263   0.716 -0.2147  0.9387  0.5914
13380TIP3   OH261554   6.023   4.815   5.610  0.3435  0.4459  0.0570
13380TIP3    H161555   5.969   4.894   5.608  1.2030  1.0781 -2.5261
13380TIP3    H261556   6.113   4.847   5.620  0.4921 -0.4670  2.2452
13381TIP3   OH261557   6.366   5.661  16.091 -0.4027 -0.0712  0.0571
13381TIP3    H161558   6.400   5.705  16.169  0.4984 -1.0701  0.2429
13381TIP3    H261559   6.435   5.599  16.066 -0.6464  0.2580 -1.5645
13382TIP3   OH261560   6.463   3.859  10.957  0.1142  0.0909 -0.1729
13382TIP3    H161561   6.458   3.766  10.976  2.0280 -0.2174 -0.8984
13382TIP3    H261562   6.438   3.903  11.038  2.4726 -1.0965  1.2870
13383TIP3   OH261563   0.599   6.429  16.395 -1.3333 -0.1574  0.6164
13383TIP3    H161564   0.671   6.381  16.437 -1.9824 -0.4443  1.4460
13383TIP3    H261565   0.637   6.513  16.371 -0.8117 -0.1564  1.3951
13384TIP3   OH261566   4.323   1.819   1.338 -0.2089 -0.3991  0.1427
13384TIP3    H161567   4.256   1.775   1.390  0.8232 -0.4071  1.5081
13384TIP3    H261568   4.285   1.904   1.317 -1.6653 -1.3355 -1.3409
13385TIP3   OH261569   6.054   6.663   3.135  0.9261  0.2915  0.0653
13385TIP3    H161570   6.111   6.722   3.185  2.0439  0.6817 -1.5476
13385TIP3    H261571   6.007   6.722   3.076 -2.9692  0.2692  2.8124
13386TIP3   OH261572   2.332   4.201  14.449  0.4246  0.2172  0.2732
13386TIP3    H161573   2.254   4.176  14.498  0.1696  1.7566  0.7080
13386TIP3    H261574   2.303   4.200  14.357 -0.3865  1.5951  0.4838
13387TIP3   OH261575   3.248   1.516   2.940  0.2824  0.2769  0.1853
13387TIP3    H161576   3.180   1.583   2.948 -0.7182 -0.4707 -1.6514
13387TIP3    H261577   3.201   1.437   2.914  1.4458 -1.1871  2.2548
13388TIP3   OH261578   5.646   0.513   4.780 -0.1873 -0.8095  0.6575
13388TIP3    H161579   5.634   0.496   4.873  1.5870 -0.0137  1.0597
13388TIP3    H261580   5.735   0.545   4.772 -0.2354 -1.0350 -1.3551
13389TIP3   OH261581   5.003   5.562   2.929 -0.1639  0.4290 -0.3618
13389TIP3    H161582   4.935   5.599   2.984  0.8240  1.5379  0.1574
13389TIP3    H261583   4.987   5.599   2.842  0.3139  1.4697 -0.0305
13390TIP3   OH261584   3.939   1.047   4.474 -0.3027 -0.0101 -0.5053
13390TIP3    H161585   3.844   1.052   4.468 -0.5902  1.1534  2.9985
13390TIP3    H261586   3.955   0.968   4.526  0.5425  0.4600 -0.0294
13391TIP3   OH261587   6.006   1.774   0.591 -0.7346  0.1949 -0.1698
13391TIP3    H161588   5.977   1.776   0.500  1.0673  1.5856 -0.7826
13391TIP3    H261589   5.984   1.860   0.626 -1.4551 -0.3446  0.7592
13392TIP3   OH261590   0.060   5.683   2.576 -0.3664 -0.1388  0.5259
13392TIP3    H161591   0.048   5.642   2.490  0.9318  0.1331  0.1858
13392TIP3    H261592  -0.018   5.658   2.625 -1.7120  0.6674 -1.0975
13393TIP3   OH261593   1.735   0.745  14.220  0.4052 -0.4159  0.1171
13393TIP3    H161594   1.722   0.830  14.177 -0.7646 -1.1210 -0.9965
13393TIP3    H261595   1.818   0.713  14.184  0.1479 -0.3537 -0.5586
13394TIP3   OH261596   0.744   2.247  16.471  0.3814 -0.7611 -0.0349
13394TIP3    H161597   0.785   2.170  16.512 -0.4887 -1.3233 -0.1852
13394TIP3    H261598   0.660   2.215  16.440 -0.3572  0.4692  0.6365
13395TIP3   OH261599   2.468   6.122  12.526 -0.0655  0.7505  0.0555
13395TIP3    H161600   2.417   6.202  12.536  0.3140  1.2628 -1.7300
13395TIP3    H261601   2.558   6.151  12.520  0.4450 -0.0903  2.3733
13396TIP3   OH261602   3.487   3.783   3.240 -0.2512 -0.3847  0.4368
13396TIP3    H161603   3.496   3.871   3.276  0.0482 -0.6341  0.9781
13396TIP3    H261604   3.563   3.735   3.273 -1.1401 -1.2343  1.2901
13397TIP3   OH261605   2.019   5.345   2.920 -0.7624 -0.1916 -0.0978
13397TIP3    H161606   2.012   5.268   2.864 -0.9339  0.3685 -0.8711
13397TIP3    H261607   1.948   5.402   2.890 -0.2892  0.4989  0.0869
13398TIP3   OH261608   5.913   0.296  10.785  0.2283 -0.2814  0.6406
13398TIP3    H161609   5.982   0.353  10.820  0.4155 -0.1219  0.0106
13398TIP3    H261610   5.889   0.240  10.859  2.4695 -1.7716  0.3162
13399TIP3   OH261611   3.330   1.783  16.731 -0.1298  0.2180 -0.2555
13399TIP3    H161612   3.305   1.861  16.781 -0.4298 -0.2827  0.3888
13399TIP3    H261613   3.265   1.777  16.661 -1.4474 -0.6761  0.9917
13400TIP3   OH261614   4.015   2.320   0.424 -0.0587  0.0753 -0.0644
13400TIP3    H161615   4.045   2.387   0.485  0.9794 -2.0734  1.9529
13400TIP3    H261616   3.970   2.368   0.355 -0.4281  2.7393  1.8868
13401TIP3   OH261617   4.528   4.800  16.126  0.4171 -0.1684 -0.0777
13401TIP3    H161618   4.580   4.742  16.070 -1.1246 -0.8202 -0.9033
13401TIP3    H261619   4.438   4.781  16.101 -0.1610  2.0684  0.1850
13402TIP3   OH261620   2.446   3.255   6.268  0.0651 -0.4337  0.7795
13402TIP3    H161621   2.363   3.228   6.307 -0.0818 -1.9049 -0.4279
13402TIP3    H261622   2.508   3.187   6.294  0.2832 -0.6890 -0.3457
13403TIP3   OH261623   6.610   4.229   0.798  0.3036  0.5070 -0.0374
13403TIP3    H161624   6.660   4.169   0.743  2.1192  0.0405  1.9456
13403TIP3    H261625   6.588   4.302   0.741  1.7566 -0.1159 -1.4806
13404TIP3   OH261626   0.211   1.054   0.395 -0.0006 -0.1285 -0.2479
13404TIP3    H161627   0.164   1.015   0.469 -0.0822 -0.3590 -0.4205
13404TIP3    H261628   0.172   1.013   0.318  0.8621 -0.7360 -0.3738
13405TIP3   OH261629   2.598   6.300  15.651  0.1961  0.1772 -0.1675
13405TIP3    H161630   2.561   6.229  15.704  0.6449  0.1688  0.1518
13405TIP3    H261631   2.586   6.378  15.705  1.9703 -0.0447  0.6507
13406TIP3   OH261632   4.240   5.787   2.556 -0.3722  0.2710  0.6246
13406TIP3    H161633   4.183   5.728   2.606  0.2997  0.4642  1.6473
13406TIP3    H261634   4.310   5.730   2.524 -1.7876 -0.2407 -1.7862
13407TIP3   OH261635   4.735   2.223   6.024 -0.1711  0.6770 -0.1102
13407TIP3    H161636   4.656   2.277   6.029 -0.3902  0.3055  0.5268
13407TIP3    H261637   4.765   2.217   6.115  1.7073  2.4386 -0.5320
13408TIP3   OH261638   0.488   1.830  17.010 -0.8755  0.3084  0.1354
13408TIP3    H161639   0.569   1.858  17.051 -1.6329 -0.2737  2.1105
13408TIP3    H261640   0.419   1.860  17.069 -1.9263 -1.8151  0.0603
13409TIP3   OH261641   1.769   3.237   1.367  0.0001 -0.5813 -0.1563
13409TIP3    H161642   1.725   3.251   1.283 -1.4343 -1.3885  0.4217
13409TIP3    H261643   1.827   3.163   1.351 -1.1809 -1.5459 -0.1541
13410TIP3   OH261644   3.366   3.796   4.904  0.1686  0.0439  0.5939
13410TIP3    H161645   3.325   3.876   4.938 -0.2911 -0.2024  0.6212
13410TIP3    H261646   3.306   3.726   4.930  0.3069 -0.2520  0.1153
13411TIP3   OH261647   4.775   3.574  14.240 -0.0005 -0.3982 -0.0378
13411TIP3    H161648   4.833   3.649  14.223  0.8695 -1.0323  0.0417
13411TIP3    H261649   4.792   3.514  14.168 -0.5933 -0.5829 -0.0262
13412TIP3   OH261650   0.579   4.364  17.039  0.2999 -0.4623  0.5989
13412TIP3    H161651   0.511   4.341  17.103 -3.7646  4.8719 -1.0704
13412TIP3    H261652   0.538   4.348  16.954  1.2816  2.3576 -0.4958
13413TIP3   OH261653   3.381   1.216   5.483  0.1033  0.2736  0.5709
13413TIP3    H161654   3.471   1.219   5.515 -0.0510  0.8794  0.9582
13413TIP3    H261655   3.329   1.185   5.557 -0.2686  1.7790  0.9826
13414TIP3   OH261656   1.417   0.392  12.670 -0.8409  0.2120 -0.0069
13414TIP3    H161657   1.496   0.349  12.704 -0.2048 -0.0797 -1.7410
13414TIP3    H261658   1.356   0.320  12.654 -2.6776  0.6312  4.0139
13415TIP3   OH261659   3.138   4.797  15.212  0.4360 -0.4002  0.5525
13415TIP3    H161660   3.213   4.782  15.154 -0.5846  0.1098 -0.9680
13415TIP3    H261661   3.176   4.825  15.294  2.0116 -2.4173  0.5852
13416TIP3   OH261662   0.414   5.429   4.525  0.4784  0.0483  0.3336
13416TIP3    H161663   0.476   5.357   4.536 -1.0912 -1.2719  1.0545
13416TIP3    H261664   0.468   5.506   4.512  2.2420 -1.4880 -2.2711
13417TIP3   OH261665   1.859   1.522   4.849 -0.2210 -0.4269  0.1050
13417TIP3    H161666   1.891   1.609   4.825 -2.4092  0.5973  0.6719
13417TIP3    H261667   1.841   1.479   4.765  2.1695 -0.9308 -0.2262
13418TIP3   OH261668   2.615   1.104   5.348  0.3682 -0.3895  0.0321
13418TIP3    H161669   2.605   1.026   5.293  1.4115  0.0689 -0.8410
13418TIP3    H261670   2.533   1.110   5.397  0.1890 -1.9056 -0.0480
13419TIP3   OH261671   0.829   3.619   5.214 -0.8047 -0.0613  0.0544
13419TIP3    H161672   0.786   3.622   5.299 -0.5899  0.8410  0.1402
13419TIP3    H261673   0.877   3.701   5.208 -1.1404  0.0732 -1.1010
13420TIP3   OH261674   2.806   2.303   4.563 -0.4647 -0.0450  0.0952
13420TIP3    H161675   2.795   2.372   4.629  0.9130 -0.0324  0.3358
13420TIP3    H261676   2.809   2.222   4.614 -0.6593 -0.1507 -0.0621
13421TIP3   OH261677   4.110   3.433  15.983  0.3858  0.0718  0.2548
13421TIP3    H161678   4.033   3.378  15.998  1.1391 -0.4510  2.5700
13421TIP3    H261679   4.121   3.433  15.888 -1.2028 -1.5874  0.0182
13422TIP3   OH261680   2.416   4.509   1.728  0.1054 -0.7785 -0.1821
13422TIP3    H161681   2.477   4.558   1.783 -0.6308  0.1112 -0.1351
13422TIP3    H261682   2.355   4.468   1.790  0.5227 -1.4975 -0.2383
13423TIP3   OH261683   6.128   0.804   5.251 -0.2366 -1.5473 -0.1795
13423TIP3    H161684   6.130   0.757   5.335  0.1085 -0.5645  0.3760
13423TIP3    H261685   6.036   0.827   5.240 -0.1310 -0.8049  0.4354
13424TIP3   OH261686   6.352   2.002  17.064  0.3927 -0.6017  0.1848
13424TIP3    H161687   6.362   2.016  17.158  1.5003 -0.6559  0.0802
13424TIP3    H261688   6.434   2.033  17.026  0.6706 -2.2040 -0.5904
13425TIP3   OH261689   1.866   4.695  13.265  0.1308  0.5991 -0.4638
13425TIP3    H161690   1.858   4.615  13.213  0.5288 -0.5627  1.1878
13425TIP3    H261691   1.783   4.740  13.252 -0.0895 -0.0477 -1.4557
13426TIP3   OH261692   2.092   3.789   0.090 -0.4254  0.0345 -0.9261
13426TIP3    H161693   2.000   3.811   0.076 -0.3027  2.1402  1.0336
13426TIP3    H261694   2.097   3.763   0.182  1.0297  0.5861 -0.8167
13427TIP3   OH261695   5.038   4.437  13.145 -0.3424  0.2633  0.6216
13427TIP3    H161696   5.020   4.443  13.051  1.4100 -1.5000  0.1173
13427TIP3    H261697   5.132   4.456  13.153 -0.0582 -1.4289  1.7622
13428TIP3   OH261698   0.279   0.179  14.221  0.6543  0.4844  0.5953
13428TIP3    H161699   0.239   0.144  14.141  2.1904 -0.9650  0.4268
13428TIP3    H261700   0.204   0.196  14.279 -0.5035  1.6885 -1.1543
13429TIP3   OH261701   1.825   3.147   5.232  0.4280  0.5415  0.1837
13429TIP3    H161702   1.849   3.214   5.167  1.6341 -0.6463 -0.6271
13429TIP3    H261703   1.898   3.146   5.294  0.1701  0.3093  0.4873
13430TIP3   OH261704   4.841   0.417   1.921 -0.4301 -0.3663 -0.4054
13430TIP3    H161705   4.918   0.425   1.977  0.1557 -0.4494 -1.1912
13430TIP3    H261706   4.854   0.335   1.873 -0.5839  0.0655 -1.1907
13431TIP3   OH261707   4.534   6.690   3.328 -0.1042 -0.0990  0.0079
13431TIP3    H161708   4.538   6.698   3.423  2.6409 -1.1301  0.0796
13431TIP3    H261709   4.516   6.597   3.313  3.7164 -0.9585 -0.3036
13432TIP3   OH261710   4.469   5.228   5.595  0.3830  0.5895 -0.7001
13432TIP3    H161711   4.389   5.222   5.543  0.6638  0.3887 -1.1152
13432TIP3    H261712   4.539   5.217   5.531  0.7141 -0.3556 -0.1760
13433TIP3   OH261713   2.244   0.734   4.366  0.1308  0.2339 -0.4820
13433TIP3    H161714   2.151   0.757   4.364 -0.0512 -0.5115 -0.5759
13433TIP3    H261715   2.272   0.742   4.275 -0.4315 -1.8969 -0.8971
13434TIP3   OH261716   0.749   3.233  16.627 -0.4125  0.2715  0.5315
13434TIP3    H161717   0.665   3.279  16.629 -0.2451  0.5921  2.5864
13434TIP3    H261718   0.810   3.298  16.592 -1.1220 -0.2798 -1.9391
13435TIP3   OH261719   0.944   5.517   3.094  0.0678  0.1565 -0.3276
13435TIP3    H161720   1.014   5.583   3.095  0.2665 -0.0559 -0.0572
13435TIP3    H261721   0.868   5.564   3.058 -0.2475  1.0123  1.3594
13436TIP3   OH261722   5.013   0.725  14.486 -0.1978  0.4297 -0.9811
13436TIP3    H161723   5.101   0.687  14.479 -0.5895 -0.5013 -1.0230
13436TIP3    H261724   4.981   0.695  14.571 -0.4035  0.9253 -0.8815
13437TIP3   OH261725   2.557   2.558  17.141 -0.5650  0.2136 -0.2745
13437TIP3    H161726   2.562   2.476  17.190 -1.2445  0.3304  0.0103
13437TIP3    H261727   2.600   2.539  17.058  0.5830  0.0102  0.3559
13438TIP3   OH261728   2.774   4.738  16.245  0.0216  0.5725 -0.6467
13438TIP3    H161729   2.785   4.644  16.262  0.6209  1.0443  2.1274
13438TIP3    H261730   2.808   4.751  16.157  0.8092 -1.6761 -0.7323
13439TIP3   OH261731   6.318   4.229  12.561 -0.0538 -0.0201 -0.1594
13439TIP3    H161732   6.244   4.286  12.582 -0.7448 -0.6750 -0.7740
13439TIP3    H261733   6.278   4.149  12.527  0.9644  0.3930 -2.4798
13440TIP3   OH261734   1.206   1.223   1.384 -0.0856  0.2202 -0.1933
13440TIP3    H161735   1.288   1.272   1.395 -0.0157 -0.0196  0.4490
13440TIP3    H261736   1.228   1.134   1.414  0.0675 -0.4819 -2.2644
13441TIP3   OH261737   5.625   6.318  14.336 -0.0487  0.0794  0.2439
13441TIP3    H161738   5.689   6.389  14.332  0.1113 -0.0869 -0.2389
13441TIP3    H261739   5.665   6.247  14.286 -0.8999  0.2191 -0.6741
13442TIP3   OH261740   5.162   3.956   6.677  0.3071 -0.3979  0.5711
13442TIP3    H161741   5.103   4.028   6.696  3.1163  2.3925 -0.4551
13442TIP3    H261742   5.240   3.973   6.731  1.4578 -2.0858 -0.4398
13443TIP3   OH261743   4.229   6.368   4.574 -0.8176 -0.1311 -0.3589
13443TIP3    H161744   4.215   6.371   4.669 -0.6271  1.4017 -0.3538
13443TIP3    H261745   4.217   6.276   4.551  0.3048 -0.7420  1.3232
13444TIP3   OH261746   2.857   4.307   2.760 -0.6807 -0.7852 -0.0372
13444TIP3    H161747   2.834   4.286   2.851  2.6509 -1.5497  0.7536
13444TIP3    H261748   2.863   4.221   2.717  0.3627 -0.6328 -0.2269
13445TIP3   OH261749   4.225   2.277  14.645  0.6224  0.4373 -0.1512
13445TIP3    H161750   4.309   2.275  14.693  0.5709  0.0144 -0.0785
13445TIP3    H261751   4.193   2.187  14.650  0.9273  0.2318 -1.5414
13446TIP3   OH261752   1.154   3.774   2.452  0.1848 -0.1303  0.1911
13446TIP3    H161753   1.106   3.794   2.533 -0.9913 -1.9230 -0.0075
13446TIP3    H261754   1.232   3.830   2.456  1.0105 -1.2298  3.3683
13447TIP3   OH261755   5.212   1.709  16.792 -0.5741  0.0947 -0.2428
13447TIP3    H161756   5.304   1.684  16.783 -1.0186 -1.8462  0.1312
13447TIP3    H261757   5.202   1.730  16.885 -0.9976 -2.0801  0.2584
13448TIP3   OH261758   4.280   5.602   6.292 -0.1470 -0.0278 -0.0578
13448TIP3    H161759   4.292   5.591   6.387 -0.1630 -0.4035 -0.0987
13448TIP3    H261760   4.187   5.626   6.283 -0.5981 -1.6679 -0.1033
13449TIP3   OH261761   1.292   3.094  15.173 -0.1761 -0.5785  0.1409
13449TIP3    H161762   1.239   3.139  15.239  0.3037 -0.6598  0.5848
13449TIP3    H261763   1.312   3.162  15.108  0.7070 -0.0831  0.9026
13450TIP3   OH261764   1.296   0.646  16.931 -0.0473 -0.1925 -0.7118
13450TIP3    H161765   1.303   0.694  16.848  1.0136  1.9879  0.5618
13450TIP3    H261766   1.342   0.700  16.994  0.6701 -2.6207  1.0054
13451TIP3   OH261767   1.316   6.724   6.338  0.2653  0.3000 -0.3136
13451TIP3    H161768   1.333   6.807   6.383 -0.2032  0.3481 -0.2212
13451TIP3    H261769   1.226   6.732   6.306 -0.0868 -0.5055  0.4375
13452TIP3   OH261770   0.672   3.569  10.554  0.2659 -0.2404 -0.0504
13452TIP3    H161771   0.758   3.596  10.589  0.7531 -1.3323 -0.3640
13452TIP3    H261772   0.676   3.473  10.554 -0.8412 -0.2887 -0.3763
13453TIP3   OH261773   5.435   1.434  13.531 -0.3153  0.8450  0.3724
13453TIP3    H161774   5.359   1.492  13.524 -2.6161 -1.9635  0.1672
13453TIP3    H261775   5.425   1.393  13.616  0.7404  0.0889  0.1429
13454TIP3   OH261776   2.121   1.707  12.254 -0.1362  0.1590 -0.1607
13454TIP3    H161777   2.135   1.801  12.243  0.2973  0.0218 -0.8830
13454TIP3    H261778   2.182   1.681  12.323  0.4810  0.2405 -0.6609
13455TIP3   OH261779   3.872   6.533  11.663  0.7103  0.3420 -0.2042
13455TIP3    H161780   3.935   6.525  11.735  1.0710 -0.2601 -0.5731
13455TIP3    H261781   3.911   6.598  11.605 -0.5888  2.4521  1.1363
13456TIP3   OH261782   5.223   0.159  13.994  0.1134  0.0475 -0.2594
13456TIP3    H161783   5.201   0.067  13.979  1.4108 -0.4665  0.7733
13456TIP3    H261784   5.319   0.160  13.999  0.1426  1.5210 -0.5719
13457TIP3   OH261785   5.247   1.695   2.914 -0.6415  0.1490  0.1962
13457TIP3    H161786   5.204   1.693   2.828 -1.0956  2.0597  0.3358
13457TIP3    H261787   5.334   1.731   2.897 -0.8897  0.9529  0.5746
13458TIP3   OH261788   5.646   3.106  16.677  0.0448  0.0384  0.3224
13458TIP3    H161789   5.681   3.138  16.761 -0.5614 -1.3996  1.1496
13458TIP3    H261790   5.629   3.186  16.627  3.1193  0.8950  0.3996
13459TIP3   OH261791   0.626   6.495   1.753 -0.6794  0.3189 -0.2039
13459TIP3    H161792   0.575   6.428   1.708 -3.0592  1.5271  0.5208
13459TIP3    H261793   0.562   6.541   1.808  1.0526  2.4480  0.1737
13460TIP3   OH261794   0.127   3.625   3.562 -0.1939  0.2144  0.7098
13460TIP3    H161795   0.195   3.561   3.539 -2.3008 -2.0870  0.5325
13460TIP3    H261796   0.128   3.627   3.658  1.1443  1.4398  0.7105
13461TIP3   OH261797   3.505   0.562  11.927 -0.0323  0.4211  0.0599
13461TIP3    H161798   3.411   0.549  11.937  0.1772 -0.6775  0.7597
13461TIP3    H261799   3.525   0.528  11.840 -0.2800  0.6863 -0.1034
13462TIP3   OH261800   6.435   3.474  13.057  0.1741  0.6208 -0.2230
13462TIP3    H161801   6.526   3.473  13.087  0.4618  2.1049 -0.9362
13462TIP3    H261802   6.440   3.454  12.963 -0.4150 -0.8824  0.0359
13463TIP3   OH261803   2.840   4.304  12.101 -0.9772 -0.3863  0.0544
13463TIP3    H161804   2.864   4.238  12.166 -2.8460 -0.1577  1.0311
13463TIP3    H261805   2.840   4.257  12.018  4.6861 -0.0409 -0.5664
13464TIP3   OH261806   6.629   2.110  17.032 -0.0269 -0.0706 -0.0201
13464TIP3    H161807   6.701   2.172  17.041 -1.3129  1.4213  0.5473
13464TIP3    H261808   6.640   2.049  17.105  0.1397  0.7154  0.6252
13465TIP3   OH261809   6.606   2.473   4.035  0.2047 -0.0753 -0.3856
13465TIP3    H161810   6.611   2.381   4.010  0.1035 -0.4629  0.9597
13465TIP3    H261811   6.690   2.493   4.075 -0.5858 -0.2698  1.4824
13466TIP3   OH261812   4.117   0.006  12.783  0.1635  0.6800 -0.1418
13466TIP3    H161813   4.147  -0.009  12.693  2.0095  0.5933  0.4492
13466TIP3    H261814   4.050  -0.061  12.798  0.5791  0.0348 -1.1116
13467TIP3   OH261815   5.031   0.730  17.204  0.0287  0.1415  0.2710
13467TIP3    H161816   5.109   0.784  17.215 -0.4436  0.8897  0.0569
13467TIP3    H261817   5.045   0.655  17.262  1.7428 -0.7155 -1.1541
13468TIP3   OH261818   2.061   5.633   5.691 -0.3927 -0.3859 -0.1116
13468TIP3    H161819   2.026   5.707   5.742  1.0637 -1.0813  2.0590
13468TIP3    H261820   2.058   5.663   5.600 -1.2966  1.7294  0.5466
13469TIP3   OH261821   6.305   6.329   5.054 -0.3442  0.7622  0.2400
13469TIP3    H161822   6.346   6.408   5.020  0.3616 -0.3010 -1.5280
13469TIP3    H261823   6.220   6.324   5.009 -0.6788  0.8494  0.8494
13470TIP3   OH261824   4.734   0.809  11.238 -0.2675  0.4463  0.0695
13470TIP3    H161825   4.697   0.727  11.271  0.3645  0.8547  1.9281
13470TIP3    H261826   4.660   0.870  11.237 -1.0358 -0.4110 -2.5460
13471TIP3   OH261827   4.091   4.904   3.678  0.3782 -0.1764 -0.5284
13471TIP3    H161828   4.102   4.818   3.638 -1.4227 -0.2385 -0.9602
13471TIP3    H261829   4.032   4.889   3.751 -0.8717  0.8515 -1.2845
13472TIP3   OH261830   6.273   0.507  12.070 -0.2903 -0.7374  0.0839
13472TIP3    H161831   6.256   0.601  12.060 -0.0848 -0.7856 -0.8206
13472TIP3    H261832   6.188   0.469  12.092 -0.6773 -0.5160 -0.9551
13473TIP3   OH261833   2.030   3.469   4.420  0.1712  0.5459  0.0798
13473TIP3    H161834   1.939   3.484   4.444  0.3719  0.1445  1.1770
13473TIP3    H261835   2.074   3.552   4.437  0.4741  0.0287  2.0248
13474TIP3   OH261836   6.476   5.764   0.929 -0.5319 -0.5754  0.3344
13474TIP3    H161837   6.445   5.714   0.853 -0.5941  0.0440 -0.0519
13474TIP3    H261838   6.493   5.852   0.895  1.8809 -0.9395  0.4743
13475TIP3   OH261839   1.402   2.668  11.142  0.1834  0.4706 -0.0822
13475TIP3    H161840   1.416   2.755  11.179  2.7097 -0.2197  0.7546
13475TIP3    H261841   1.444   2.671  11.057  1.0167 -0.1459  0.2965
13476TIP3   OH261842   4.644   2.043   2.432  0.2966 -0.3222 -0.3942
13476TIP3    H161843   4.645   2.015   2.340 -1.1746 -0.0890 -0.5103
13476TIP3    H261844   4.610   2.133   2.429  0.8673 -0.0737  0.3285
13477TIP3   OH261845   3.208   1.393  12.494  0.2082 -0.2206  0.0217
13477TIP3    H161846   3.265   1.470  12.489  1.3728 -1.1002 -1.0041
13477TIP3    H261847   3.268   1.319  12.495 -0.8083 -1.3085 -3.3974
13478TIP3   OH261848   1.073   6.539   1.303 -0.5807 -0.1391 -0.2031
13478TIP3    H161849   1.067   6.628   1.268 -0.7015  1.1460  2.7742
13478TIP3    H261850   1.112   6.488   1.232 -0.4916  2.2661 -2.0218
13479TIP3   OH261851   0.763   3.603  11.084  0.1359  0.1791  0.2860
13479TIP3    H161852   0.785   3.629  11.173 -0.7976  0.4535  0.4446
13479TIP3    H261853   0.835   3.546  11.057  0.7912  0.6823  0.9464
13480TIP3   OH261854   5.354   0.177   2.735  0.1016 -0.0154 -0.5045
13480TIP3    H161855   5.337   0.232   2.659  0.2346  1.5421  0.5431
13480TIP3    H261856   5.396   0.235   2.798 -0.4505 -1.1222  0.9480
13481TIP3   OH261857   1.684   3.481  14.430 -0.2749  0.4697  0.2602
13481TIP3    H161858   1.640   3.465  14.347 -2.6728  0.7211  1.3868
13481TIP3    H261859   1.622   3.533  14.481  0.5957 -0.6435  2.6436
13482TIP3   OH261860   3.318   5.440   0.580 -0.5073  0.1504  0.2705
13482TIP3    H161861   3.401   5.395   0.565  1.3996  3.4585 -0.1373
13482TIP3    H261862   3.277   5.445   0.493 -0.5062 -0.3247  0.2394
13483TIP3   OH261863   5.282   4.160  13.080 -0.1036  0.0956  0.0432
13483TIP3    H161864   5.254   4.227  13.017  0.3706  0.5374  0.2955
13483TIP3    H261865   5.279   4.204  13.165  0.3020 -0.1787  0.2009
13484TIP3   OH261866   3.984   4.850  13.060 -0.0059 -0.2464 -0.3801
13484TIP3    H161867   3.936   4.892  12.989  1.8173  1.5439 -0.6590
13484TIP3    H261868   4.059   4.809  13.017  0.6276  0.0746  0.3877
13485TIP3   OH261869   0.942   2.741  15.362 -0.2439 -0.3991 -0.6800
13485TIP3    H161870   0.866   2.741  15.303 -0.1574 -1.3021 -0.8161
13485TIP3    H261871   0.997   2.669  15.330  0.3780 -0.1423 -0.2138
13486TIP3   OH261872   2.727   6.157  10.795  0.4731  0.5104 -0.2548
13486TIP3    H161873   2.794   6.151  10.863  0.2183  0.2319 -0.0267
13486TIP3    H261874   2.666   6.224  10.828 -1.3747 -1.7688  1.3356
13487TIP3   OH261875   0.408   2.743   2.023 -0.2108 -0.7420 -0.1169
13487TIP3    H161876   0.495   2.747   2.064  0.3749 -1.0948 -1.2850
13487TIP3    H261877   0.413   2.804   1.949 -1.5382  0.5519  0.8118
13488TIP3   OH261878   1.998   6.699   1.611  0.3848 -0.0209 -0.4933
13488TIP3    H161879   2.056   6.682   1.685  1.8375  0.8731 -1.3733
13488TIP3    H261880   2.056   6.698   1.534 -0.6564  1.4394 -1.3509
13489TIP3   OH261881   2.679   5.794  14.748 -0.3946  0.1300  0.1161
13489TIP3    H161882   2.754   5.748  14.787  0.1162 -1.0997 -2.1441
13489TIP3    H261883   2.603   5.745  14.778 -0.4997  1.8934  3.1396
13490TIP3   OH261884   5.625   2.417  14.047  0.1316 -0.0416  0.1424
13490TIP3    H161885   5.600   2.461  14.129  0.1270 -0.9829  0.6567
13490TIP3    H261886   5.599   2.479  13.979 -1.8652 -0.1231  0.7445
13491TIP3   OH261887   2.276   2.549  14.676 -0.0134 -0.3813 -0.1507
13491TIP3    H161888   2.307   2.462  14.704 -1.5706 -1.4682 -1.6076
13491TIP3    H261889   2.354   2.592  14.640  1.0025 -0.7458  1.5027
13492TIP3   OH261890   2.906   1.191  15.843  0.1522  0.2710  0.4960
13492TIP3    H161891   2.974   1.177  15.908  0.5033  1.1958  0.3471
13492TIP3    H261892   2.828   1.150  15.880  0.5230  0.1554  1.1638
13493TIP3   OH261893   1.613   5.267  11.758  0.0752  0.1226 -0.3205
13493TIP3    H161894   1.670   5.245  11.831 -0.8602  0.6243  0.5732
13493TIP3    H261895   1.590   5.183  11.719  0.8478 -0.1256 -0.2687
13494TIP3   OH261896   5.461   4.095   1.875  0.3940 -0.5769 -0.2743
13494TIP3    H161897   5.367   4.081   1.886 -0.5977  2.8577 -2.6710
13494TIP3    H261898   5.493   4.014   1.835 -1.9664 -1.0920 -1.2792
13495TIP3   OH261899   6.260   5.373   2.903  0.0666 -0.1466  0.0676
13495TIP3    H161900   6.355   5.358   2.900  0.3009  1.3228 -0.7673
13495TIP3    H261901   6.238   5.402   2.815 -1.0052  0.4475  0.5225
13496TIP3   OH261902   1.897   0.797  13.120 -0.7593  0.0430 -0.4892
13496TIP3    H161903   1.940   0.741  13.056 -1.6004  0.9794 -1.9320
13496TIP3    H261904   1.804   0.774  13.113 -0.6027 -2.0956  2.7119
13497TIP3   OH261905   1.896   4.601  14.719  0.2748  0.1596 -0.1811
13497TIP3    H161906   1.971   4.548  14.692  0.0424 -1.3998  1.9569
13497TIP3    H261907   1.820   4.549  14.695  0.0513 -0.9448  2.5227
13498TIP3   OH261908   1.367   5.957   1.336  0.0374  0.0267 -0.2118
13498TIP3    H161909   1.376   6.042   1.292 -1.7499  0.6343  0.4907
13498TIP3    H261910   1.363   5.979   1.429 -0.9367 -0.7727 -0.0506
13499TIP3   OH261911   3.627   1.224   5.618  0.5012  0.3231 -0.3949
13499TIP3    H161912   3.695   1.267   5.566  0.1472  0.5942 -0.6384
13499TIP3    H261913   3.655   1.237   5.709  0.8201  0.3540 -0.4954
13500TIP3   OH261914   4.919   0.617  15.564  0.2308  0.7432 -0.4334
13500TIP3    H161915   4.953   0.578  15.484  0.3566 -0.0647  0.0030
13500TIP3    H261916   4.861   0.551  15.601  0.7459  0.8026  0.5238
13501TIP3   OH261917   5.704   4.804   1.197  0.4917 -0.1034  0.5651
13501TIP3    H161918   5.616   4.826   1.168  1.0174 -0.5477 -1.6154
13501TIP3    H261919   5.706   4.824   1.290 -1.9946 -0.3812  0.7298
13502TIP3   OH261920   4.408   1.404   3.047 -0.2473  0.1155 -0.1657
13502TIP3    H161921   4.330   1.443   3.086 -0.6914  1.1972 -2.0251
13502TIP3    H261922   4.397   1.310   3.060 -0.1815  0.3772  2.5437
13503TIP3   OH261923   2.153   4.261  14.143 -0.0734 -0.1988 -0.2085
13503TIP3    H161924   2.245   4.262  14.118 -0.3623  0.6482 -1.3062
13503TIP3    H261925   2.141   4.177  14.188  1.3954  0.0261  0.6524
13504TIP3   OH261926   4.844   1.871   0.211 -1.0041  0.1733  0.0648
13504TIP3    H161927   4.850   1.857   0.305 -0.7976  0.4400  0.0920
13504TIP3    H261928   4.847   1.966   0.200 -0.1571  0.1171 -0.2725
13505TIP3   OH261929   0.979   3.809   4.989 -0.5048 -0.2320 -0.1994
13505TIP3    H161930   1.028   3.891   4.984 -0.6752 -0.1829 -1.3622
13505TIP3    H261931   1.033   3.752   5.042  0.1065  0.3052 -0.2359
13506TIP3   OH261932   4.613   6.159   5.634 -0.0128 -0.0772 -0.1871
13506TIP3    H161933   4.664   6.133   5.711  0.9235 -2.2830 -1.4558
13506TIP3    H261934   4.536   6.102   5.637 -0.5292  0.6003 -0.3216
13507TIP3   OH261935   1.187   0.147  13.072 -0.2437 -0.1736  0.0014
13507TIP3    H161936   1.119   0.209  13.049 -0.9395  0.5969  3.5319
13507TIP3    H261937   1.266   0.200  13.082  0.3267 -0.6703 -1.5740
13508TIP3   OH261938   1.564   2.909   4.633  0.0263  0.7955  0.0555
13508TIP3    H161939   1.620   2.980   4.665 -0.6048  1.3252  0.0121
13508TIP3    H261940   1.535   2.865   4.713  1.5904 -0.3625  0.0340
13509TIP3   OH261941   2.427   5.022  14.550 -0.0996 -0.0522  0.2773
13509TIP3    H161942   2.413   5.117  14.555  0.4945  0.3148 -3.0445
13509TIP3    H261943   2.344   4.984  14.578 -0.4256  1.4064  1.4627
13510TIP3   OH261944   1.730   0.042  11.695  0.1625  0.5104 -0.0407
13510TIP3    H161945   1.806   0.033  11.753  1.5574  1.7587 -1.5912
13510TIP3    H261946   1.765   0.032  11.607 -1.5267  0.9024 -0.7993
13511TIP3   OH261947   6.383   6.209  15.899 -0.4322  0.4691 -0.0350
13511TIP3    H161948   6.418   6.183  15.814 -0.3843  1.3781 -0.3106
13511TIP3    H261949   6.456   6.200  15.959 -0.1567  0.8422 -0.3059
13512TIP3   OH261950   0.776   5.725   2.299  0.5406  0.0334  0.1159
13512TIP3    H161951   0.789   5.631   2.297  0.2183 -0.0107  0.0370
13512TIP3    H261952   0.681   5.737   2.291  0.5886  0.3676  0.0117
13513TIP3   OH261953   1.923   4.354  13.960  0.0007  0.2502 -0.6824
13513TIP3    H161954   1.881   4.274  13.928 -0.6168 -0.2472  1.2094
13513TIP3    H261955   1.966   4.327  14.041 -1.4877  2.1121  0.8290
13514TIP3   OH261956   0.388   0.699   3.473 -0.2574 -0.4959 -0.1593
13514TIP3    H161957   0.458   0.724   3.533  0.5345 -1.9815 -0.4104
13514TIP3    H261958   0.362   0.781   3.430  0.9814  0.1603  0.3126
13515TIP3   OH261959   5.752   4.275   6.209 -0.6257 -0.1308  0.0910
13515TIP3    H161960   5.770   4.246   6.299 -2.5849  2.6006  1.5272
13515TIP3    H261961   5.838   4.293   6.172  0.2984 -2.5074  0.9253
13516TIP3   OH261962   0.262   5.282  16.437  0.2329  0.0624 -0.3279
13516TIP3    H161963   0.221   5.352  16.388 -0.2394 -0.0726 -0.1324
13516TIP3    H261964   0.353   5.281  16.408  0.4321  1.2413  0.2070
13517TIP3   OH261965   2.654   1.924  16.202 -0.0511  0.2033 -1.0569
13517TIP3    H161966   2.660   1.832  16.227  1.1343  0.4345 -0.3969
13517TIP3    H261967   2.702   1.929  16.119  0.9537  0.4202 -0.4803
13518TIP3   OH261968   3.185   3.766  11.317 -0.1063 -0.3585 -0.1920
13518TIP3    H161969   3.255   3.709  11.283 -1.6724 -2.4317 -0.1600
13518TIP3    H261970   3.165   3.825  11.244  1.2239 -0.1783 -0.4253
13519TIP3   OH261971   6.485   1.597  14.656 -0.3782 -0.4891  0.6156
13519TIP3    H161972   6.549   1.606  14.727 -0.3935  2.7334  0.3589
13519TIP3    H261973   6.413   1.547  14.695  0.4210 -0.4228  2.2639
13520TIP3   OH261974   6.056   1.829  16.116  0.7821 -0.3657  0.7095
13520TIP3    H161975   6.123   1.762  16.128  0.9309 -0.9756 -2.5333
13520TIP3    H261976   6.013   1.805  16.034 -0.9363  2.0799  0.7862
13521TIP3   OH261977   4.824   3.048   5.988  0.1600 -0.5950 -0.0667
13521TIP3    H161978   4.878   3.056   6.066  0.5668 -0.1883 -0.3807
13521TIP3    H261979   4.747   3.000   6.016  0.3086 -0.4582  0.5801
13522TIP3   OH261980   4.859   4.978  15.133 -0.0469 -0.2053  0.0989
13522TIP3    H161981   4.901   4.952  15.215  1.5836 -2.6550 -1.4084
13522TIP3    H261982   4.767   4.991  15.157  0.2146 -1.6544  2.1742
13523TIP3   OH261983   1.546   4.749  17.152 -0.0255  0.0055 -0.4545
13523TIP3    H161984   1.542   4.837  17.189 -0.0187  0.3846 -1.3134
13523TIP3    H261985   1.473   4.746  17.090 -0.0019 -0.5771 -0.4580
13524TIP3   OH261986   3.801   4.385   6.586  0.2856  0.4576 -0.7092
13524TIP3    H161987   3.785   4.292   6.604  1.0954  0.2865 -0.8090
13524TIP3    H261988   3.715   4.426   6.589 -0.0441 -0.2507 -0.3787
13525TIP3   OH261989   4.921   2.701   1.022  0.3497 -0.3448  0.4801
13525TIP3    H161990   4.843   2.679   1.074  0.1297 -0.7486 -0.0091
13525TIP3    H261991   4.967   2.767   1.074 -1.7097  1.9494 -0.4677
13526TIP3   OH261992   5.652   4.275  13.089 -0.5338  0.0963  0.5268
13526TIP3    H161993   5.639   4.181  13.073 -0.6951  0.0640  0.8457
13526TIP3    H261994   5.597   4.294  13.164 -0.9606  0.5774  0.0953
13527TIP3   OH261995   0.391   6.527   4.630 -0.1791  0.1195  0.1831
13527TIP3    H161996   0.431   6.562   4.710 -1.6379  0.4461  0.7968
13527TIP3    H261997   0.403   6.433   4.637  1.0281  0.2479  0.0440
13528TIP3   OH261998   2.427   4.168   4.810  0.2189  0.1305 -0.0461
13528TIP3    H161999   2.493   4.142   4.874  0.4450 -0.9364 -0.6892
13528TIP3    H262000   2.472   4.164   4.726 -0.6733 -0.6478 -0.5010
13529TIP3   OH262001   2.311   5.834   3.013 -0.0809  0.2032 -0.4161
13529TIP3    H162002   2.303   5.928   2.995 -0.8844  0.0563 -0.8582
13529TIP3    H262003   2.240   5.816   3.074 -1.1305 -0.4799 -1.7933
13530TIP3   OH262004   0.208   1.473  14.554 -0.2461 -0.2163 -0.0977
13530TIP3    H162005   0.192   1.562  14.587 -0.5455  0.0281 -0.8767
13530TIP3    H262006   0.303   1.470  14.540 -0.3795  0.4867 -1.3999
13531TIP3   OH262007   1.293   2.067   2.197 -0.0940 -0.3454 -0.2103
13531TIP3    H162008   1.281   1.972   2.205  0.7483 -0.7049 -2.5284
13531TIP3    H262009   1.225   2.104   2.254 -0.0812 -2.3089  1.1917
13532TIP3   OH262010   5.370   2.535   3.737  0.4672 -0.2240  0.6994
13532TIP3    H162011   5.441   2.555   3.798 -2.3495  1.4673  3.7163
13532TIP3    H262012   5.307   2.486   3.789 -1.2511 -0.4146 -1.4400
13533TIP3   OH262013   6.385   1.713  16.610  0.4333 -0.8188  0.2537
13533TIP3    H162014   6.369   1.720  16.704 -1.3652 -1.5617  0.0402
13533TIP3    H262015   6.301   1.737  16.570 -0.0653 -4.1639 -1.0206
13534TIP3   OH262016   2.029   6.139   3.655 -0.3528 -0.4926 -0.4889
13534TIP3    H162017   2.082   6.062   3.675 -1.4306 -1.2433 -0.4226
13534TIP3    H262018   1.982   6.116   3.575 -0.3292  0.2878 -0.7322
13535TIP3   OH262019   4.317   2.949   5.635  0.0051 -0.1375  0.1708
13535TIP3    H162020   4.388   2.920   5.693 -0.0754 -1.7543 -0.4859
13535TIP3    H262021   4.259   2.999   5.692 -1.2099 -3.4262  2.1052
13536TIP3   OH262022   6.526   6.409   1.896 -0.0437 -0.1796 -0.3922
13536TIP3    H162023   6.544   6.319   1.920 -0.9460 -0.0310  0.9679
13536TIP3    H262024   6.443   6.405   1.848 -0.6409  0.0368  0.6123
13537TIP3   OH262025   0.323   3.480   3.258  0.3797  0.5492 -0.0523
13537TIP3    H162026   0.349   3.490   3.166  1.9127 -0.4307  0.2345
13537TIP3    H262027   0.348   3.562   3.299  2.2854 -0.0152  0.0145
13538TIP3   OH262028   5.120   4.826  11.879 -0.3838  0.3697  0.1099
13538TIP3    H162029   5.188   4.792  11.821 -0.8034  1.1336 -0.8545
13538TIP3    H262030   5.048   4.851  11.821 -1.7952 -1.0382  1.1526
13539TIP3   OH262031   2.230   4.339  17.080  0.8281 -0.6655  0.0669
13539TIP3    H162032   2.242   4.244  17.086  0.1742 -0.7668 -0.1296
13539TIP3    H262033   2.215   4.367  17.170 -4.6464 -1.5733 -0.2135
13540TIP3   OH262034   3.365   5.280   3.904 -0.4948  0.2051 -0.1855
13540TIP3    H162035   3.301   5.217   3.936 -0.1734  0.0650  0.1813
13540TIP3    H262036   3.412   5.309   3.982  0.3450 -0.1931 -0.5329
13541TIP3   OH262037   1.968   1.553  11.624 -0.1456  0.3477 -0.4428
13541TIP3    H162038   1.958   1.458  11.622 -0.9955  0.3629  1.1048
13541TIP3    H262039   2.059   1.567  11.651 -0.9202 -0.1514  2.8425
13542TIP3   OH262040   1.006   1.871   3.604  0.2978 -0.5931  0.3015
13542TIP3    H162041   1.080   1.811   3.595  0.4448 -0.4756  0.7286
13542TIP3    H262042   1.043   1.950   3.643 -0.0457 -0.5291  0.5064
13543TIP3   OH262043   5.459   2.682   5.253  0.0208  0.3813 -0.3758
13543TIP3    H162044   5.537   2.705   5.204  0.1273  0.3918 -0.2003
13543TIP3    H262045   5.395   2.659   5.186  1.2353 -3.1808 -0.4847
13544TIP3   OH262046   5.957   6.230   0.079  0.2778  0.1721  0.0790
13544TIP3    H162047   6.001   6.233  -0.006  0.4867  3.0184  0.1974
13544TIP3    H262048   5.864   6.245   0.058 -0.0208 -1.2618  0.2312
13545TIP3   OH262049   4.830   5.645  12.427 -0.6777  0.1554 -0.0470
13545TIP3    H162050   4.874   5.609  12.503 -0.2580 -1.9573 -1.1969
13545TIP3    H262051   4.868   5.732  12.415  1.7934 -0.8267  0.1462
13546TIP3   OH262052   5.911   0.631  11.357 -0.4186 -0.5653  0.4069
13546TIP3    H162053   5.847   0.583  11.409 -1.2619 -0.6092 -0.6349
13546TIP3    H262054   5.989   0.636  11.413 -1.0536 -1.2119  1.3804
13547TIP3   OH262055   5.744   3.449   1.263 -0.0569 -0.5254  0.3156
13547TIP3    H162056   5.798   3.453   1.184 -1.4419  1.8976 -0.5893
13547TIP3    H262057   5.767   3.364   1.302  2.3786 -0.7921 -1.4165
13548TIP3   OH262058   0.949   1.167  12.739  0.0763  0.6565  0.4398
13548TIP3    H162059   0.993   1.099  12.790  0.6972  0.8361  0.1591
13548TIP3    H262060   1.019   1.227  12.714 -0.3774  1.0997  0.2126
13549TIP3   OH262061   4.149   0.723   4.866 -0.0733  0.1278 -0.4044
13549TIP3    H162062   4.090   0.666   4.915 -0.9950  1.3253 -0.0813
13549TIP3    H262063   4.094   0.796   4.837  0.4521 -0.4465 -3.1384
13550TIP3   OH262064   3.070   5.100  10.596 -0.0569 -0.1160  0.4553
13550TIP3    H162065   3.108   5.020  10.559  0.6926 -0.0411  1.0269
13550TIP3    H262066   3.122   5.171  10.557 -1.9211  0.2508 -1.5111
13551TIP3   OH262067   6.438   3.904   2.325 -0.3931  0.4144  0.2762
13551TIP3    H162068   6.372   3.881   2.260 -0.0649 -3.4163  1.0754
13551TIP3    H262069   6.522   3.881   2.285 -0.1077 -1.0266  1.6131
13552TIP3   OH262070   1.754   5.206  14.025  0.2854 -0.3334 -0.5746
13552TIP3    H162071   1.745   5.204  14.120  0.9659  1.0735 -0.4547
13552TIP3    H262072   1.666   5.184  13.993  0.4048 -2.3302  0.3226
13553TIP3   OH262073   0.945   2.261   2.809 -0.0690 -0.5713 -0.2684
13553TIP3    H162074   1.027   2.308   2.824 -0.5442  0.0645  0.4244
13553TIP3    H262075   0.971   2.170   2.796  0.6106 -0.7645  1.9989
13554TIP3   OH262076   0.099   1.409   0.928 -0.0801  0.5257  0.0211
13554TIP3    H162077   0.005   1.423   0.916  0.1731  1.8438 -0.6766
13554TIP3    H262078   0.128   1.485   0.978  0.4203 -0.5183  1.3872
13555TIP3   OH262079   4.856   3.358  15.496 -0.1929 -0.1717  1.0165
13555TIP3    H162080   4.805   3.353  15.577 -1.5582 -0.6328  0.1670
13555TIP3    H262081   4.878   3.451  15.487 -2.8184  0.4700  0.3012
13556TIP3   OH262082   2.136   0.258  13.564 -0.1456 -0.3591 -0.2947
13556TIP3    H162083   2.220   0.233  13.527 -0.0996 -0.3746 -0.1776
13556TIP3    H262084   2.133   0.217  13.650 -0.3900 -0.5856 -0.4079
13557TIP3   OH262085   1.392   3.819   0.313 -0.1114 -0.0164  0.6071
13557TIP3    H162086   1.334   3.812   0.389 -1.7067 -0.7704 -0.6007
13557TIP3    H262087   1.379   3.737   0.266 -0.0313  0.8791 -1.0363
13558TIP3   OH262088   1.213   3.073  16.078  0.9887  0.2368  0.8379
13558TIP3    H162089   1.165   3.001  16.036  0.1237  0.2811  1.6962
13558TIP3    H262090   1.250   3.123  16.006  0.2351 -0.1549  0.1575
13559TIP3   OH262091   1.956   4.918  12.554 -0.0170  0.1475  0.2454
13559TIP3    H162092   1.868   4.921  12.592  0.2278  0.1704  0.8167
13559TIP3    H262093   1.943   4.879  12.468 -1.1556  3.4317 -1.2405
13560TIP3   OH262094   1.103   2.164  12.673 -0.2863 -0.7608  0.5259
13560TIP3    H162095   1.051   2.105  12.727 -3.3096  0.2505 -0.9961
13560TIP3    H262096   1.154   2.107  12.615 -1.3854 -1.8838  0.6274
13561TIP3   OH262097   3.087   2.422  16.729  0.1353  0.6313  0.4894
13561TIP3    H162098   3.177   2.442  16.703  0.6247 -0.3846  1.3384
13561TIP3    H262099   3.086   2.435  16.824 -0.3518 -0.3308  0.6223
13562TIP3   OH262100   5.019   1.441  16.668  0.2188 -0.1127  0.2541
13562TIP3    H162101   4.993   1.390  16.745 -0.3771 -1.4994 -0.8293
13562TIP3    H262102   4.961   1.411  16.598  1.2409  0.5576 -0.9289
13563TIP3   OH262103   0.483   2.170  16.309  0.0071  0.0688  0.6345
13563TIP3    H162104   0.445   2.111  16.244  2.6912 -1.9207  0.6994
13563TIP3    H262105   0.489   2.118  16.388  0.3815  1.1916  1.3736
13564TIP3   OH262106   2.937   0.273  13.567  0.5826  0.8152 -0.0787
13564TIP3    H162107   2.927   0.366  13.547 -0.9443  0.3917 -1.4435
13564TIP3    H262108   3.027   0.252  13.539 -0.1670  1.1436 -3.0434
13565TIP3   OH262109   5.124   5.420  13.264  0.0067 -0.1948 -0.5763
13565TIP3    H162110   5.085   5.336  13.239 -0.7684 -0.0922  0.2333
13565TIP3    H262111   5.167   5.402  13.348  1.6903 -0.2825 -1.4076
13566TIP3   OH262112   3.466   2.844   0.435  0.2537 -0.1070 -0.6080
13566TIP3    H162113   3.502   2.769   0.388  1.9428  0.4683 -0.2972
13566TIP3    H262114   3.375   2.820   0.453  0.8575 -2.2197 -0.1956
13567TIP3   OH262115   3.424   5.802   5.320  0.3126  0.1596 -0.5387
13567TIP3    H162116   3.489   5.837   5.381 -1.2189  3.0175 -0.4036
13567TIP3    H262117   3.343   5.797   5.371 -0.5913  0.9277 -1.8505
13568TIP3   OH262118   4.946   1.319   6.251 -0.3194  0.0798 -0.1957
13568TIP3    H162119   4.898   1.334   6.332 -1.3581  0.2777 -0.8401
13568TIP3    H262120   4.934   1.225   6.233  0.9919 -0.2636  0.5359
13569TIP3   OH262121   5.860   2.028   3.888  0.3307 -0.2833 -0.0600
13569TIP3    H162122   5.915   1.987   3.822 -0.2195  1.1271 -1.4543
13569TIP3    H262123   5.880   2.121   3.881  1.0675 -0.1769  2.5541
13570TIP3   OH262124   1.072   4.631   6.307  0.3713  0.1948  0.1699
13570TIP3    H162125   1.061   4.698   6.374 -0.1073  1.3080 -0.9761
13570TIP3    H262126   1.124   4.674   6.239  3.3247 -1.7691  0.9701
13571TIP3   OH262127   1.122   5.351  17.005 -0.0374  0.0147  0.1407
13571TIP3    H162128   1.178   5.334  16.930 -0.1046  1.0556 -0.1559
13571TIP3    H262129   1.159   5.429  17.046  1.2976 -1.7102  2.4699
13572TIP3   OH262130   6.636   3.223   4.703  0.3116 -0.2911  0.3890
13572TIP3    H162131   6.671   3.134   4.714  0.8559  0.1556  2.8529
13572TIP3    H262132   6.661   3.268   4.783 -0.7563  1.8457 -0.4148
13573TIP3   OH262133   5.905   6.634  12.400 -0.6339  0.1565  0.3069
13573TIP3    H162134   5.932   6.615  12.310 -0.5257 -0.0132  0.3752
13573TIP3    H262135   5.831   6.576  12.416  0.9874 -1.7940  1.2299
13574TIP3   OH262136   1.125   5.628  15.442 -0.0761  0.3672 -0.1822
13574TIP3    H162137   1.127   5.579  15.524  0.9570  0.6012 -0.0467
13574TIP3    H262138   1.198   5.690  15.450 -1.1693  1.7426 -0.4684
13575TIP3   OH262139   2.977   0.504  11.218  0.2915 -0.5640  1.2552
13575TIP3    H162140   2.934   0.465  11.141  0.5809  0.8147  0.3655
13575TIP3    H262141   2.908   0.555  11.260  0.9097  1.4908 -0.0649
13576TIP3   OH262142   5.442   2.807  15.600 -0.2564 -0.1891  0.2374
13576TIP3    H162143   5.359   2.770  15.628  0.8635 -2.0827  1.3083
13576TIP3    H262144   5.469   2.863  15.673  0.1810 -0.9080  0.6325
13577TIP3   OH262145   1.521   5.662  14.518  0.4032  0.1245  0.5067
13577TIP3    H162146   1.586   5.594  14.502  0.4164  0.5019 -1.1691
13577TIP3    H262147   1.437   5.619  14.503  0.3689  0.2619  0.3123
13578TIP3   OH262148   0.428   0.509   2.690  0.4007  0.1063  0.2663
13578TIP3    H162149   0.402   0.477   2.776 -0.3663 -0.0824 -0.0306
13578TIP3    H262150   0.457   0.431   2.643  2.1122  0.3867  0.7826
13579TIP3   OH262151   2.471   1.683  13.339  0.6462  0.1921 -0.5339
13579TIP3    H162152   2.464   1.670  13.245  2.0121 -0.8640 -0.5145
13579TIP3    H262153   2.438   1.772  13.353 -0.6511 -0.0347 -1.8338
13580TIP3   OH262154   6.147   3.537   5.341  0.4873  0.5373 -0.4091
13580TIP3    H162155   6.188   3.477   5.279  2.0668  2.1013 -0.9575
13580TIP3    H262156   6.099   3.480   5.402  1.2857 -1.1998 -1.3420
13581TIP3   OH262157   5.390   2.337  11.047  0.1646  0.4391  0.1864
13581TIP3    H162158   5.411   2.251  11.010  0.6666  0.2431  0.9025
13581TIP3    H262159   5.317   2.369  10.995 -0.3017 -0.6081  0.1904
13582TIP3   OH262160   4.724   4.813  13.295 -0.3139  0.5199  0.3423
13582TIP3    H162161   4.732   4.719  13.314 -1.0336  0.5851  1.0082
13582TIP3    H262162   4.812   4.848  13.307  0.0555 -0.1474 -0.3577
13583TIP3   OH262163   6.466   4.296  11.080  0.1674 -0.2808  0.6300
13583TIP3    H162164   6.395   4.302  11.144 -0.4179  2.0188 -0.1505
13583TIP3    H262165   6.469   4.382  11.039  0.8898 -1.4884 -2.0605
13584TIP3   OH262166   2.344   0.178   1.975 -0.5668  0.3278 -0.1335
13584TIP3    H162167   2.253   0.178   1.946 -0.3168 -0.5715 -0.9807
13584TIP3    H262168   2.366   0.085   1.984  0.2481  0.5408  0.1261
13585TIP3   OH262169   0.410   6.685   1.612  0.0313  0.0939  0.0965
13585TIP3    H162170   0.464   6.677   1.533 -1.5572 -2.1788 -0.8515
13585TIP3    H262171   0.466   6.732   1.674  2.8780 -1.5168 -1.0491
13586TIP3   OH262172   4.999   6.236   2.775  0.2562 -0.3031 -0.4822
13586TIP3    H162173   5.061   6.181   2.822  0.8088  1.6033  1.1860
13586TIP3    H262174   5.032   6.325   2.788 -0.1216  0.4517 -3.7112
13587TIP3   OH262175   3.463   3.549   4.038  0.4387  0.5125  0.3377
13587TIP3    H162176   3.526   3.499   4.089  0.6219  2.0926  1.7259
13587TIP3    H262177   3.486   3.641   4.053 -2.5004  1.2103  1.3912
13588TIP3   OH262178   4.380   4.244  15.864 -0.5083 -0.6126  0.3359
13588TIP3    H162179   4.474   4.259  15.853 -0.5532  0.4001  1.2058
13588TIP3    H262180   4.355   4.190  15.789  1.1689 -2.7032  1.1971
13589TIP3   OH262181   2.488   1.070  16.364 -0.4542 -0.3431  0.0637
13589TIP3    H162182   2.532   1.147  16.398 -1.5892  0.3132  0.0996
13589TIP3    H262183   2.449   1.100  16.282 -1.1887 -0.7881  0.2477
13590TIP3   OH262184   4.062   2.241   5.935  0.6827 -0.1658 -0.2520
13590TIP3    H162185   3.995   2.290   5.887  0.0414  0.5430  1.3156
13590TIP3    H262186   4.075   2.291   6.015  2.0120 -1.1186  0.1459
13591TIP3   OH262187   0.739   2.659  14.872 -0.4626 -0.4244  0.5742
13591TIP3    H162188   0.736   2.737  14.927 -1.2754  0.2834 -0.4225
13591TIP3    H262189   0.715   2.691  14.785  0.6242 -1.5376 -0.1613
13592TIP3   OH262190   2.209   5.270   0.667 -0.1391 -0.2327  0.3790
13592TIP3    H162191   2.206   5.331   0.593  0.4443  0.3851  0.8513
13592TIP3    H262192   2.287   5.216   0.651 -0.2896 -0.4225  0.2898
13593TIP3   OH262193   5.689   0.649   3.793  0.6531 -0.2238 -0.6623
13593TIP3    H162194   5.692   0.559   3.824  2.6156  0.0927  0.1983
13593TIP3    H262195   5.779   0.681   3.803  0.0129  1.8067 -0.9889
13594TIP3   OH262196   1.996   1.925  13.333 -0.2459 -0.6910 -0.0798
13594TIP3    H162197   2.033   1.836  13.339 -0.2142 -0.6700  0.0450
13594TIP3    H262198   1.904   1.914  13.355 -0.0605 -0.5630  0.8224
13595TIP3   OH262199   6.398   4.062  13.524 -0.0521 -0.0977  0.3313
13595TIP3    H162200   6.351   4.043  13.443  1.5730 -2.2437 -0.1906
13595TIP3    H262201   6.329   4.068  13.591 -1.1718 -1.8581 -0.6069
13596TIP3   OH262202   4.058   6.066  11.786 -0.0709  0.2387 -0.8555
13596TIP3    H162203   4.058   6.068  11.690  2.3277  0.9871 -0.9027
13596TIP3    H262204   4.004   6.141  11.811  0.4051  0.8826 -1.6754
13597TIP3   OH262205   0.796   5.259  12.010  0.2400 -0.4379 -0.5345
13597TIP3    H162206   0.782   5.209  12.090 -0.1412  2.3444  1.2888
13597TIP3    H262207   0.761   5.204  11.940 -3.3812 -1.2874  1.7054
13598TIP3   OH262208   4.806   5.668   3.085 -0.5119  0.1921  0.1703
13598TIP3    H162209   4.721   5.679   3.042 -0.2105  2.1517 -0.0082
13598TIP3    H262210   4.786   5.668   3.179 -0.7716  0.0180  0.1139
13599TIP3   OH262211   6.703   1.941   0.237 -0.0936  1.0782  0.1922
13599TIP3    H162212   6.707   2.033   0.263  1.4609  1.4692 -1.2372
13599TIP3    H262213   6.718   1.893   0.319  0.7647  2.1576  0.7015
13600TIP3   OH262214   1.624   2.051   1.354  0.2056  0.6436  0.0088
13600TIP3    H162215   1.607   2.078   1.263 -2.1544 -0.4687  0.0370
13600TIP3    H262216   1.635   2.134   1.401  1.9548  1.2296 -1.3279
13601TIP3   OH262217   0.860   1.020  16.667 -0.5558 -0.6069  0.3311
13601TIP3    H162218   0.933   1.052  16.614 -0.3770  0.2085  1.0417
13601TIP3    H262219   0.897   0.950  16.720  1.0107  2.6514  3.9964
13602TIP3   OH262220   6.673   1.790   3.945 -0.7355 -0.0057 -0.1227
13602TIP3    H162221   6.667   1.834   3.860 -1.5881 -2.5700 -1.5050
13602TIP3    H262222   6.764   1.800   3.971 -0.6102  1.4133 -0.9881
13603TIP3   OH262223   3.901   4.419   2.823  0.0525  0.2410  0.5215
13603TIP3    H162224   3.939   4.346   2.774  0.1951  0.4820  0.2732
13603TIP3    H262225   3.836   4.456   2.764 -0.2211  0.1416  0.7552
13604TIP3   OH262226   3.689   1.104   4.357  0.3598  0.1919  0.2146
13604TIP3    H162227   3.626   1.032   4.364 -0.3496  0.7882  0.0889
13604TIP3    H262228   3.637   1.183   4.372  1.1311  0.6824  0.3579
13605TIP3   OH262229   2.405   2.012  15.532  0.2376  0.2085  0.0188
13605TIP3    H162230   2.416   2.020  15.437  0.2481  3.3421  0.1917
13605TIP3    H262231   2.495   2.015  15.566  0.2569 -1.2712  0.1477
13606TIP3   OH262232   4.577   3.449  16.354 -0.1100 -0.0691  0.0128
13606TIP3    H162233   4.560   3.536  16.317 -2.5740 -0.6153 -0.2978
13606TIP3    H262234   4.613   3.466  16.441 -0.7560  1.2593  0.0389
13607TIP3   OH262235   1.271   4.833   4.517  0.5257  0.0704  0.1957
13607TIP3    H162236   1.200   4.896   4.505 -0.3862 -0.7323  1.1173
13607TIP3    H262237   1.246   4.757   4.464 -0.2044 -0.8762  1.8015
13608TIP3   OH262238   4.839   0.239  11.663 -0.3308  0.3324  0.1908
13608TIP3    H162239   4.899   0.164  11.660 -0.0017  0.6099 -0.5955
13608TIP3    H262240   4.837   0.264  11.755 -1.2695 -1.2735  0.6579
13609TIP3   OH262241   6.301   2.262  11.500 -0.0653 -0.0730  1.0442
13609TIP3    H162242   6.370   2.325  11.474 -0.4356 -0.1784 -0.2987
13609TIP3    H262243   6.252   2.307  11.568  0.6983  0.4286  1.2778
13610TIP3   OH262244   5.452   1.127  13.585 -0.1921  0.1230 -0.1305
13610TIP3    H162245   5.460   1.128  13.489 -0.2840  0.3327 -0.1378
13610TIP3    H262246   5.358   1.130  13.601 -0.1946 -0.5200 -0.0362
13611TIP3   OH262247   1.830   4.677  17.078  0.4673  0.7682 -0.3473
13611TIP3    H162248   1.818   4.769  17.100  0.6794  0.5434  0.8048
13611TIP3    H262249   1.741   4.641  17.079  0.1612  1.3125 -2.6746
13612TIP3   OH262250   2.137   1.020   4.198 -0.0576 -0.9454  0.3195
13612TIP3    H162251   2.043   1.006   4.198 -0.2033 -0.0562 -0.3563
13612TIP3    H262252   2.166   0.988   4.112  0.3589 -1.8212  0.7770
13613TIP3   OH262253   0.135   2.119   4.148 -0.5873  0.0181  0.1651
13613TIP3    H162254   0.060   2.170   4.177 -0.9819 -0.3549 -0.1847
13613TIP3    H262255   0.128   2.036   4.196  0.0786  0.2994  0.7697
13614TIP3   OH262256   0.734   3.667  11.386 -0.1050  0.4597  0.3886
13614TIP3    H162257   0.777   3.736  11.436 -0.0590  1.0610 -0.4692
13614TIP3    H262258   0.651   3.705  11.359  0.1744  0.4026 -0.5991
13615TIP3   OH262259   4.658   6.758   5.064 -0.0736 -0.0174  0.8508
13615TIP3    H162260   4.597   6.831   5.078 -0.3588 -0.2442  0.7921
13615TIP3    H262261   4.606   6.691   5.020  0.6417  0.4400 -0.7717
13616TIP3   OH262262   0.984   5.241  16.071  0.3183 -0.4089 -0.3716
13616TIP3    H162263   0.897   5.205  16.055  0.0727  0.7475 -1.8045
13616TIP3    H262264   1.036   5.166  16.101 -0.8350 -1.3832 -0.7350
13617TIP3   OH262265   0.566   4.877   1.976 -0.5848 -0.0751  0.2327
13617TIP3    H162266   0.519   4.852   2.056  0.4891 -2.3806  0.2208
13617TIP3    H262267   0.658   4.885   2.004 -0.3049 -0.1977 -0.6342
13618TIP3   OH262268   2.763   6.773  16.042  0.2852  0.0865  0.1457
13618TIP3    H162269   2.719   6.704  16.091 -0.2840 -0.6123 -1.2926
13618TIP3    H262270   2.713   6.852  16.062 -0.4596 -0.3475  0.0246
13619TIP3   OH262271   5.266   3.643   2.306 -0.6861  0.1604  0.2822
13619TIP3    H162272   5.347   3.688   2.329  0.0943 -0.8940 -0.3326
13619TIP3    H262273   5.223   3.626   2.390  0.9195 -1.4290  0.8444
13620TIP3   OH262274   3.032   6.718  16.447 -0.0494  0.6640 -0.2527
13620TIP3    H162275   3.101   6.662  16.482 -1.0110 -0.8726 -0.7221
13620TIP3    H262276   3.078   6.794  16.412  1.4389 -0.5216 -0.9557
13621TIP3   OH262277   5.756   5.010  11.312  0.0502  0.3911 -0.2483
13621TIP3    H162278   5.678   5.023  11.366  0.8709  0.8902  0.8397
13621TIP3    H262279   5.783   4.920  11.330 -0.2149  0.2412 -0.5726
13622TIP3   OH262280   6.482   4.086   2.101 -0.2889  0.1517 -0.1909
13622TIP3    H162281   6.564   4.086   2.051 -0.5460 -0.9495 -0.6337
13622TIP3    H262282   6.435   4.009   2.071 -0.8842 -0.0050  1.0592
13623TIP3   OH262283   3.037   5.163   5.235  0.4243  0.6947 -0.3176
13623TIP3    H162284   3.131   5.182   5.226  0.3871  0.4943 -1.2437
13623TIP3    H262285   3.027   5.075   5.200  0.0536  0.2820  0.8051
13624TIP3   OH262286   4.938   5.145  11.750  0.1163 -0.0875 -0.4059
13624TIP3    H162287   4.889   5.189  11.680 -0.2976 -1.3912 -0.9686
13624TIP3    H262288   5.017   5.198  11.761 -0.7230  1.2333 -0.4970
13625TIP3   OH262289   3.114   6.729   5.551 -0.2696 -0.5417  0.1699
13625TIP3    H162290   3.136   6.747   5.643 -0.5210 -1.1822  0.3610
13625TIP3    H262291   3.059   6.803   5.525  0.7824  0.2630  0.1629
13626TIP3   OH262292   2.831   2.159  17.071 -0.3342 -0.0454 -0.1734
13626TIP3    H162293   2.835   2.147  17.166 -0.0166 -0.9582 -0.2944
13626TIP3    H262294   2.900   2.223  17.052 -1.0293  0.8755  0.3116
13627TIP3   OH262295   0.136   4.428  16.862 -0.5088  0.5579  0.3563
13627TIP3    H162296   0.231   4.419  16.872 -0.5037  0.1545 -0.0434
13627TIP3    H262297   0.100   4.366  16.925 -0.4811 -1.2029 -1.2738
13628TIP3   OH262298   3.028   3.907   2.930  0.3448 -0.1955  0.2356
13628TIP3    H162299   3.069   3.941   3.009 -0.1313  0.7842  0.0772
13628TIP3    H262300   3.090   3.926   2.860  0.7962 -1.1231  0.3676
13629TIP3   OH262301   1.861   1.282  10.289 -0.1970  0.4320  0.0938
13629TIP3    H162302   1.941   1.233  10.267 -1.4348 -0.3805 -3.2509
13629TIP3    H262303   1.803   1.217  10.329 -0.0831  0.3826  0.1781
13630TIP3   OH262304   0.006   4.034   3.230 -0.2256 -0.1656  0.0638
13630TIP3    H162305   0.033   3.960   3.284  2.0267  0.1675 -0.5185
13630TIP3    H262306  -0.068   4.000   3.179  1.4758 -2.4454 -1.0398
13631TIP3   OH262307   1.786   2.143   4.673 -0.0807  0.7113 -0.1324
13631TIP3    H162308   1.823   2.065   4.631  0.5551  0.8468  0.1610
13631TIP3    H262309   1.715   2.169   4.615 -0.5411 -0.2960 -0.0510
13632TIP3   OH262310   1.975   3.333  13.142 -0.1214 -0.8090  0.0752
13632TIP3    H162311   2.036   3.314  13.213 -0.6044 -0.5383  0.5650
13632TIP3    H262312   1.902   3.273  13.154  0.2065 -1.3945 -0.7334
13633TIP3   OH262313   1.950   4.742  15.291  0.2586  0.4495 -0.1273
13633TIP3    H162314   1.973   4.808  15.226 -0.1304  1.6017  0.8625
13633TIP3    H262315   1.855   4.736  15.286  0.3813 -1.2414 -1.3108
13634TIP3   OH262316   1.936   2.528   1.697  0.1335  0.1406 -0.1846
13634TIP3    H162317   1.964   2.454   1.643  2.1689  0.9774 -0.3766
13634TIP3    H262318   1.961   2.505   1.786  1.7567  0.9867 -0.3860
13635TIP3   OH262319   3.339   3.568  11.201 -0.4484  0.7783 -0.1039
13635TIP3    H162320   3.408   3.632  11.187  0.4345 -0.0293  0.3853
13635TIP3    H262321   3.327   3.526  11.116 -0.2856  0.8843 -0.1801
13636TIP3   OH262322   1.251   5.337   3.268  0.2742  0.1750 -0.4775
13636TIP3    H162323   1.240   5.416   3.320  0.6323 -0.0266 -0.0905
13636TIP3    H262324   1.269   5.268   3.332  0.7990 -0.0621 -0.8724
13637TIP3   OH262325   4.752   6.052   3.184  0.4583  0.4935 -0.6225
13637TIP3    H162326   4.837   6.083   3.215  0.3530 -1.2827  1.6758
13637TIP3    H262327   4.740   6.096   3.099  3.2521  1.4207 -0.6331
13638TIP3   OH262328   2.135   0.304  12.061  0.2597  0.3145  0.0294
13638TIP3    H162329   2.107   0.383  12.106  2.0604  0.3913  1.1082
13638TIP3    H262330   2.154   0.332  11.972  1.6808  1.3120  0.6151
13639TIP3   OH262331   1.971   5.156  16.290  0.1043 -0.3826 -0.2381
13639TIP3    H162332   1.953   5.197  16.206  0.6864 -0.9182 -0.6295
13639TIP3    H262333   1.884   5.132  16.324 -0.0842 -1.0332 -1.1372
13640TIP3   OH262334   1.235   1.702  12.660  0.1804  0.5503 -0.3047
13640TIP3    H162335   1.152   1.694  12.614  1.3690  1.8283 -2.9102
13640TIP3    H262336   1.226   1.644  12.736 -1.9552 -1.7822 -2.1358
13641TIP3   OH262337   4.685   2.122  15.194  0.1243 -0.4031  0.5871
13641TIP3    H162338   4.725   2.057  15.136  1.4932 -1.0299  2.1464
13641TIP3    H262339   4.720   2.101  15.280 -2.3446  0.0884  1.7862
13642TIP3   OH262340   4.680   5.757  15.947 -0.1003  0.3200  0.0718
13642TIP3    H162341   4.639   5.844  15.943 -0.3711  0.1543 -1.5174
13642TIP3    H262342   4.726   5.749  15.864  1.1330 -0.5018  0.8087
13643TIP3   OH262343   5.685   6.371   0.289 -0.2354 -0.0443 -0.4698
13643TIP3    H162344   5.754   6.418   0.335  1.1181 -0.0555 -2.4191
13643TIP3    H262345   5.709   6.278   0.299  0.0254 -0.0497 -1.1130
13644TIP3   OH262346   4.440   1.505  15.812  0.0697 -0.1282  0.3254
13644TIP3    H162347   4.437   1.598  15.792  2.0393 -0.2791 -0.9145
13644TIP3    H262348   4.487   1.499  15.895  1.0837 -0.0396 -0.2175
13645TIP3   OH262349   1.241   5.151   4.426 -0.3529 -0.4655 -0.2822
13645TIP3    H162350   1.241   5.143   4.331 -1.6763  0.8287 -0.4206
13645TIP3    H262351   1.322   5.198   4.447 -0.6729  0.3653 -0.8860
13646TIP3   OH262352   5.756   5.448  12.899 -0.3463  0.5130  0.2171
13646TIP3    H162353   5.834   5.499  12.878 -0.5526  1.2392  1.1255
13646TIP3    H262354   5.788   5.361  12.921  0.1668  0.7063  0.2449
13647TIP3   OH262355   3.420   1.823  11.144  0.2563  0.3543  0.2091
13647TIP3    H162356   3.430   1.918  11.134  1.1164  0.1494 -1.1907
13647TIP3    H262357   3.377   1.812  11.229  0.9217  1.9543  0.8002
13648TIP3   OH262358   3.968   2.259   4.059 -0.1527 -0.4403  0.0062
13648TIP3    H162359   3.926   2.344   4.071 -0.1918 -0.5080  0.3559
13648TIP3    H262360   3.986   2.228   4.148 -0.1739 -0.8147 -0.1181
13649TIP3   OH262361   1.737   3.888  16.432 -0.1775 -0.4194 -0.0159
13649TIP3    H162362   1.730   3.925  16.520 -2.0487  0.9578 -0.6786
13649TIP3    H262363   1.749   3.794  16.447 -1.6208 -0.3894  1.7262
13650TIP3   OH262364   0.548   5.200  13.683  0.3238 -0.3328  0.1551
13650TIP3    H162365   0.454   5.199  13.666  0.1019 -1.3786  1.2671
13650TIP3    H262366   0.587   5.234  13.602 -1.0428  0.7741 -0.0668
13651TIP3   OH262367   1.292   1.050   6.352  0.6685  0.4399 -0.2620
13651TIP3    H162368   1.352   0.983   6.385 -0.3496 -1.2694 -1.6883
13651TIP3    H262369   1.245   1.006   6.281 -1.5254  2.0349  0.1232
13652TIP3   OH262370   5.294   2.868   4.333  0.1666  0.2335 -0.4374
13652TIP3    H162371   5.350   2.876   4.256  2.5313 -2.0951  0.8998
13652TIP3    H262372   5.335   2.923   4.399 -0.1384 -0.1390  0.0673
13653TIP3   OH262373   4.402   2.903  10.803  0.0683  0.5064 -0.9643
13653TIP3    H162374   4.307   2.905  10.814  0.2374  0.1098  0.9041
13653TIP3    H262375   4.424   2.810  10.806  0.4444  0.5364 -2.3140
13654TIP3   OH262376   1.282   5.541  14.446  0.3568  0.3040  0.1651
13654TIP3    H162377   1.250   5.599  14.376  0.1910  0.7239  0.5783
13654TIP3    H262378   1.217   5.552  14.516  0.1183 -0.6793  0.1049
13655TIP3   OH262379   5.022   6.475  14.770 -0.3211 -0.1937  0.0562
13655TIP3    H162380   4.956   6.407  14.779  1.0012 -1.6511 -0.7514
13655TIP3    H262381   4.976   6.557  14.790 -2.3844 -1.1268 -0.6588
13656TIP3   OH262382   3.551   1.849  13.470 -0.2230  0.5609 -0.0771
13656TIP3    H162383   3.615   1.892  13.526 -0.6294  0.2790  0.6169
13656TIP3    H262384   3.571   1.756  13.478 -0.2002  0.5307 -0.5017
13657TIP3   OH262385   3.803   6.128   5.350  0.0947 -0.0208 -0.0813
13657TIP3    H162386   3.708   6.120   5.347  0.0428  0.3710  0.3883
13657TIP3    H262387   3.833   6.092   5.267 -0.3415 -1.6479  0.4345
13658TIP3   OH262388   6.152   1.873   2.975 -0.0631 -0.1034  0.4029
13658TIP3    H162389   6.059   1.852   2.989 -0.4741  0.7772 -0.8365
13658TIP3    H262390   6.191   1.790   2.947 -0.6659 -0.2960  0.1053
13659TIP3   OH262391   3.665   6.196   0.310 -0.2959  0.0110 -0.6387
13659TIP3    H162392   3.682   6.259   0.379  1.8888  0.1868 -1.2675
13659TIP3    H262393   3.674   6.111   0.352 -0.8821  0.1097 -0.3080
13660TIP3   OH262394   1.366   2.407  15.870 -0.0135 -0.4401 -0.2288
13660TIP3    H162395   1.340   2.320  15.840  0.4650 -1.0140  0.9917
13660TIP3    H262396   1.457   2.397  15.898 -0.1553  0.2927  0.5392
13661TIP3   OH262397   0.964   0.566  11.499  0.0131 -0.4982 -0.2383
13661TIP3    H162398   0.994   0.477  11.479 -0.0513 -0.6521  0.3411
13661TIP3    H262399   0.981   0.615  11.418  2.5119 -0.4026  0.2612
13662TIP3   OH262400   3.364   5.090  12.764 -0.1560  0.0680 -0.5475
13662TIP3    H162401   3.396   5.130  12.683  1.0461  0.4877  0.1045
13662TIP3    H262402   3.327   5.006  12.736 -0.7842  0.6824 -1.6616
13663TIP3   OH262403   2.201   1.848   3.356  0.0803  0.5904 -0.1805
13663TIP3    H162404   2.113   1.849   3.319  0.6255  0.7897 -1.5005
13663TIP3    H262405   2.187   1.830   3.450 -1.2591 -1.1866 -0.6633
13664TIP3   OH262406   3.818   4.240   5.571  0.1861 -0.1492 -0.0504
13664TIP3    H162407   3.817   4.213   5.480 -0.5691  1.2193 -0.4768
13664TIP3    H262408   3.725   4.241   5.597  0.3128  0.4720  0.4120
13665TIP3   OH262409   0.380   1.189  16.819  0.7549 -0.2164  0.4112
13665TIP3    H162410   0.335   1.118  16.866  0.6254  0.4264  1.2741
13665TIP3    H262411   0.459   1.147  16.783  0.6957 -0.7939  0.9318
13666TIP3   OH262412   5.071   0.796   5.343 -0.1839  0.5604 -0.4484
13666TIP3    H162413   5.049   0.825   5.254  0.9168  1.3658 -0.4818
13666TIP3    H262414   5.130   0.864   5.376  0.6161 -0.4895  0.3449
13667TIP3   OH262415   1.443   3.291  15.848 -0.3118  0.1428 -0.7088
13667TIP3    H162416   1.519   3.243  15.815 -1.1722 -0.9318 -1.1847
13667TIP3    H262417   1.481   3.366  15.894  1.1982 -2.1552  2.1121
13668TIP3   OH262418   4.930   5.816   3.862  0.1181  0.8343 -0.0387
13668TIP3    H162419   4.935   5.790   3.953 -1.8498 -3.1318 -0.8268
13668TIP3    H262420   4.858   5.879   3.859  0.3485  1.1756  1.1420
13669TIP3   OH262421   3.268   2.362   0.133 -0.5295  0.5666  0.3163
13669TIP3    H162422   3.299   2.434   0.188  0.1280  1.5352 -1.2309
13669TIP3    H262423   3.329   2.290   0.150  0.1482  1.1228  0.2918
13670TIP3   OH262424   1.321   0.437   6.110 -0.2554 -0.5722  0.3017
13670TIP3    H162425   1.304   0.531   6.115 -2.4346 -0.9249  0.4821
13670TIP3    H262426   1.396   0.423   6.167 -0.9842  0.8166  1.6658
13671TIP3   OH262427   3.710   0.332   1.099  0.0094 -0.4133 -0.3854
13671TIP3    H162428   3.725   0.415   1.144  0.7894 -0.7230 -0.0585
13671TIP3    H262429   3.718   0.266   1.168 -1.0814 -0.7338 -0.5492
13672TIP3   OH262430   3.067   3.232  12.572  0.2014 -0.7121  0.1922
13672TIP3    H162431   2.976   3.262  12.584  0.4824  0.8859 -1.2643
13672TIP3    H262432   3.120   3.309  12.594  1.2002 -1.4975  0.5784
13673TIP3   OH262433   2.698   6.168   2.972  0.1397  0.1928  0.0257
13673TIP3    H162434   2.606   6.167   2.998 -0.0182 -0.2520 -0.5562
13673TIP3    H262435   2.745   6.191   3.053 -0.5531  1.4481  0.0916
13674TIP3   OH262436   2.084   2.015  16.161 -0.4977  0.6249 -0.4250
13674TIP3    H162437   2.151   2.038  16.097  0.6063  0.5409  0.6653
13674TIP3    H262438   2.068   2.097  16.209 -0.1714  0.3289  0.2043
13675TIP3   OH262439   3.224   1.898  16.433 -0.4536 -0.2240 -0.3542
13675TIP3    H162440   3.133   1.885  16.459 -0.8916  0.9354 -1.2375
13675TIP3    H262441   3.238   1.837  16.360 -0.1238 -1.2936  0.5689
13676TIP3   OH262442   2.929   1.034  12.617  0.0559  0.4165  0.1766
13676TIP3    H162443   2.908   0.941  12.620  1.5229  0.1007  1.6106
13676TIP3    H262444   3.023   1.037  12.598  0.0846  1.5985  0.4406
13677TIP3   OH262445   4.785   1.978   5.992 -0.0820 -0.6636 -0.0878
13677TIP3    H162446   4.705   1.926   5.985 -0.7235 -0.1682  2.3263
13677TIP3    H262447   4.756   2.068   5.980  0.2282 -0.5349  0.1096
13678TIP3   OH262448   2.121   2.253   1.952  0.0198 -0.3579 -0.2781
13678TIP3    H162449   2.138   2.324   2.013 -0.6845 -1.7258  1.6253
13678TIP3    H262450   2.151   2.285   1.867  1.9126  1.2763  0.9452
13679TIP3   OH262451   5.163   3.134  12.729  0.3743 -0.1628  0.3694
13679TIP3    H162452   5.178   3.082  12.651 -0.8422 -2.4208  1.5440
13679TIP3    H262453   5.233   3.110  12.789  1.0109  1.1816  0.2119
13680TIP3   OH262454   6.639   1.001   1.232 -0.4166 -0.1463 -0.0978
13680TIP3    H162455   6.627   0.906   1.234 -0.0405 -0.2223  2.2969
13680TIP3    H262456   6.579   1.034   1.299  0.4518  1.1358  0.0832
13681TIP3   OH262457   1.117   2.898  11.702 -0.2010  0.0965  1.0853
13681TIP3    H162458   1.196   2.952  11.710  1.1095 -1.5698  0.1741
13681TIP3    H262459   1.053   2.941  11.758  1.1186  1.9229  1.2994
13682TIP3   OH262460   6.597   3.300  14.399  0.2495 -0.2314  0.0301
13682TIP3    H162461   6.624   3.252  14.477  0.7922 -2.3231 -1.3342
13682TIP3    H262462   6.660   3.271  14.331 -1.6482 -0.4166 -1.7512
13683TIP3   OH262463   2.360   0.245  14.227  0.0732  0.4114 -0.3211
13683TIP3    H162464   2.418   0.242  14.152  0.8740  3.2136  0.0563
13683TIP3    H262465   2.283   0.293  14.196 -0.4907 -0.1927  0.1183
13684TIP3   OH262466   4.441   1.990  10.621 -0.5264 -0.1668  0.6068
13684TIP3    H162467   4.481   2.013  10.705 -0.3731  0.5800  0.3309
13684TIP3    H262468   4.503   2.021  10.555 -1.2881  0.4782  0.1862
13685TIP3   OH262469   0.161   0.691  12.908  0.2576  0.2128 -0.7387
13685TIP3    H162470   0.078   0.651  12.934  0.5190 -0.1100 -0.3988
13685TIP3    H262471   0.164   0.774  12.956  0.1070  0.2509 -0.7948
13686TIP3   OH262472   4.158   5.661   1.504 -0.4268 -0.1460  0.1865
13686TIP3    H162473   4.247   5.659   1.539 -0.2248  0.4874 -0.2558
13686TIP3    H262474   4.167   5.628   1.415 -1.0539 -2.4640  0.9185
13687TIP3   OH262475   1.187   3.980  13.580  0.2354  0.9129 -0.7246
13687TIP3    H162476   1.256   4.021  13.528  1.5789 -1.1482 -0.6775
13687TIP3    H262477   1.226   3.967  13.666 -0.7647  1.1288 -0.2177
13688TIP3   OH262478   6.724   3.832   0.911  0.0200  0.1582  0.0865
13688TIP3    H162479   6.785   3.786   0.970 -0.1082 -0.0031  0.0929
13688TIP3    H262480   6.644   3.843   0.963 -0.4346 -0.8524 -0.3818
13689TIP3   OH262481   6.402   4.177  14.272  0.0619  0.1022 -0.4078
13689TIP3    H162482   6.355   4.108  14.226  0.7103 -0.2448 -0.5727
13689TIP3    H262483   6.334   4.234  14.307 -0.5255 -1.2020  0.6554
13690TIP3   OH262484   5.668   1.272   2.284  0.5754 -0.4998  0.4892
13690TIP3    H162485   5.599   1.215   2.248  1.7002 -0.6802 -1.5545
13690TIP3    H262486   5.686   1.236   2.370 -0.5738 -1.6182  0.2973
13691TIP3   OH262487   0.362   5.483   3.531 -0.2820 -0.1854  0.2275
13691TIP3    H162488   0.420   5.417   3.567  3.1971  1.6365 -1.5509
13691TIP3    H262489   0.366   5.556   3.594 -0.8005 -0.0995  0.1665
13692TIP3   OH262490   0.153   5.579  16.813 -0.0064 -0.1091  0.4449
13692TIP3    H162491   0.237   5.616  16.785 -0.2251  0.0376 -0.0336
13692TIP3    H262492   0.122   5.531  16.736 -1.1258  1.1914  0.0488
13693TIP3   OH262493   0.292   0.051   2.379 -0.4144  0.3896  0.2849
13693TIP3    H162494   0.368   0.085   2.331  0.0264 -0.1744  0.5672
13693TIP3    H262495   0.244  -0.000   2.314 -0.8637  1.2119 -0.0378
13694TIP3   OH262496   0.312   4.775   2.563  0.0769  0.0962 -0.0369
13694TIP3    H162497   0.327   4.837   2.635 -1.6374  0.1441  0.3320
13694TIP3    H262498   0.367   4.808   2.492 -0.0706  1.5160  0.4605
13695TIP3   OH262499   4.452   6.140  11.143 -0.4792 -0.4014  0.0820
13695TIP3    H162500   4.402   6.190  11.207 -0.8515 -1.4083  0.5990
13695TIP3    H262501   4.497   6.074  11.194 -1.2356 -1.5912 -0.7322
13696TIP3   OH262502   2.888   3.928   5.206  0.1124 -0.0805  0.6618
13696TIP3    H162503   2.816   3.925   5.143  0.8605  0.4179 -0.2439
13696TIP3    H262504   2.906   3.836   5.226 -0.4264 -0.2261  0.5019
13697TIP3   OH262505   0.588   3.920  16.604  0.1249  0.0914  0.0183
13697TIP3    H162506   0.630   3.846  16.561  0.7835 -0.8515  2.1079
13697TIP3    H262507   0.629   3.997  16.566  0.6622 -0.6754 -1.0008
13698TIP3   OH262508   5.371   2.854   1.882  0.4365 -0.3164 -0.3565
13698TIP3    H162509   5.444   2.797   1.860  0.1307 -0.6843 -0.4175
13698TIP3    H262510   5.398   2.897   1.963  0.5653 -0.7329 -0.1774
13699TIP3   OH262511   0.993   0.609  14.716 -0.2370  0.3218  0.4093
13699TIP3    H162512   1.022   0.634  14.628  3.1608  3.8725  2.1945
13699TIP3    H262513   1.056   0.543  14.744 -1.7931 -1.4063  0.0430
13700TIP3   OH262514   5.196   5.996   4.414 -0.1773  0.1050 -0.7599
13700TIP3    H162515   5.251   6.041   4.478 -0.9304 -0.0945  0.0370
13700TIP3    H262516   5.134   5.946   4.466 -0.3451 -0.6361 -1.6422
13701TIP3   OH262517   1.666   4.002  13.343 -0.1485 -0.4007 -0.4647
13701TIP3    H162518   1.727   3.929  13.357  0.8879  0.3005 -1.1887
13701TIP3    H262519   1.714   4.063  13.287 -1.2300  0.5565 -0.3836
13702TIP3   OH262520   5.108   2.313  15.338 -0.1532 -0.8602 -0.3875
13702TIP3    H162521   5.165   2.265  15.398 -0.3744  0.5971  1.0730
13702TIP3    H262522   5.023   2.313  15.382  0.5383  3.5893  1.4534
13703TIP3   OH262523   4.316   1.419  12.571  0.4210  0.3349 -0.3802
13703TIP3    H162524   4.380   1.459  12.512  1.8339 -0.1114  0.7817
13703TIP3    H262525   4.330   1.325  12.559 -0.0333  0.2373 -0.1274
13704TIP3   OH262526   0.414   1.474   1.257  0.6726  0.0542 -0.2879
13704TIP3    H162527   0.478   1.505   1.192  1.1634 -0.3717 -0.0177
13704TIP3    H262528   0.468   1.434   1.326  0.1480  0.2976  0.2735
13705TIP3   OH262529   6.669   4.178  16.099 -0.4413  0.6400  0.0848
13705TIP3    H162530   6.607   4.239  16.058 -2.7329 -0.7977  1.2118
13705TIP3    H262531   6.621   4.095  16.103  2.5590 -1.3530 -1.4428
13706TIP3   OH262532   2.054   6.697  10.963 -0.0831  0.3799  0.3630
13706TIP3    H162533   2.113   6.766  10.994  0.9241 -0.0755 -0.4929
13706TIP3    H262534   2.106   6.647  10.901 -1.1688 -0.4605  0.1029
13707TIP3   OH262535   6.129   6.338  15.847  0.0868  0.3047 -0.3495
13707TIP3    H162536   6.206   6.280  15.849  0.5230  0.6357 -3.2563
13707TIP3    H262537   6.139   6.392  15.926  1.6258 -1.1073  0.5141
13708TIP3   OH262538   2.907   2.684   3.583  0.4362  0.1099  0.0072
13708TIP3    H162539   2.813   2.700   3.584  0.3712 -0.2794 -0.0010
13708TIP3    H262540   2.945   2.761   3.627 -0.0209 -0.7354  1.9839
13709TIP3   OH262541   6.334   4.576   3.899  0.3212  0.0214  0.1541
13709TIP3    H162542   6.379   4.492   3.902  1.0090  0.3571 -0.5449
13709TIP3    H262543   6.281   4.577   3.979 -0.0043 -1.2338 -0.0186
13710TIP3   OH262544   4.514   6.599  14.705 -0.7144  0.2182  0.2132
13710TIP3    H162545   4.543   6.562  14.622  0.5908 -0.2456  0.8536
13710TIP3    H262546   4.525   6.694  14.695  1.7223  0.0249  0.6617
13711TIP3   OH262547   1.604   2.299   0.840 -0.3345  0.0416 -0.0010
13711TIP3    H162548   1.654   2.380   0.852  0.5528 -0.4194 -0.4922
13711TIP3    H262549   1.577   2.300   0.748 -0.8394  0.0614  0.1425
13712TIP3   OH262550   3.656   4.822   4.654 -0.1535  0.5483  0.9667
13712TIP3    H162551   3.601   4.744   4.658 -0.5813  0.8608  1.2569
13712TIP3    H262552   3.725   4.800   4.592 -2.3062  1.1867 -1.8838
13713TIP3   OH262553   4.162   4.707  12.909 -0.2656 -0.0036 -0.2966
13713TIP3    H162554   4.107   4.706  12.831  0.7123  0.5977 -1.0139
13713TIP3    H262555   4.184   4.615  12.924 -3.2650 -0.5710  1.3549
13714TIP3   OH262556   3.542   4.172  13.268  0.1395 -0.1282 -0.2918
13714TIP3    H162557   3.484   4.222  13.325 -0.3379  0.3755 -1.1829
13714TIP3    H262558   3.489   4.098  13.238 -0.1022  0.3900 -1.1926
13715TIP3   OH262559   5.398   0.329  12.487 -0.0704 -0.3017 -0.6148
13715TIP3    H162560   5.328   0.306  12.548  0.4911  1.2141  0.6943
13715TIP3    H262561   5.463   0.259  12.498  0.8177  0.7655  1.9633
13716TIP3   OH262562   0.943   0.175   1.441 -0.4626  0.4327  0.0734
13716TIP3    H162563   1.022   0.212   1.478  1.2537 -1.9830 -0.8874
13716TIP3    H262564   0.890   0.250   1.414  1.9231  2.1338 -0.1158
13717TIP3   OH262565   4.238   0.675  14.014  0.1706 -0.4451  0.0211
13717TIP3    H162566   4.296   0.727  14.070  0.1553  0.3832 -0.7119
13717TIP3    H262567   4.165   0.733  13.993 -0.0327 -0.8803 -0.5225
13718TIP3   OH262568   3.083   2.591  14.495 -0.5845 -0.3887  0.1734
13718TIP3    H162569   3.156   2.639  14.455  0.4948 -0.5085  1.9110
13718TIP3    H262570   3.015   2.657  14.507  0.0399  0.2212  0.4577
13719TIP3   OH262571   2.877   2.479   0.166 -0.4173 -0.2860 -0.2453
13719TIP3    H162572   2.888   2.523   0.082  0.1888 -1.8531 -1.0312
13719TIP3    H262573   2.790   2.504   0.196  0.4703  2.6632  0.1324
13720TIP3   OH262574   0.918   3.050  12.336 -0.2342 -0.3650 -0.4349
13720TIP3    H162575   0.883   3.108  12.404 -0.2416 -1.0318  0.1435
13720TIP3    H262576   0.995   3.010  12.376  1.1873  1.0197 -1.6604
13721TIP3   OH262577   2.900   2.608   3.933  0.4705  0.0880 -0.0055
13721TIP3    H162578   2.866   2.554   3.862 -1.0168 -0.5320  1.1097
13721TIP3    H262579   2.956   2.548   3.983  1.0323  0.3550 -0.3111
13722TIP3   OH262580   5.638   1.469  13.879  0.0929 -0.7486 -0.4674
13722TIP3    H162581   5.650   1.376  13.899  0.6830 -0.5907 -0.0713
13722TIP3    H262582   5.546   1.476  13.853 -0.5542 -1.1137  1.5270
13723TIP3   OH262583   4.916   4.605   4.212  0.4874  0.1599 -0.7892
13723TIP3    H162584   4.866   4.646   4.141 -3.3163  0.5111  1.8085
13723TIP3    H262585   4.893   4.513   4.207  2.6005 -0.3961 -1.6604
13724TIP3   OH262586   1.492   0.821  15.205 -0.4947 -0.1833 -0.2243
13724TIP3    H162587   1.535   0.801  15.288  1.3999  1.1796 -0.8070
13724TIP3    H262588   1.466   0.735  15.171 -0.5354 -0.8360  1.3487
13725TIP3   OH262589   2.952   1.634   6.132 -0.3386  0.3560 -0.0162
13725TIP3    H162590   2.888   1.602   6.195 -1.3632  1.7282 -0.2970
13725TIP3    H262591   2.900   1.688   6.072  1.0070  1.0582 -0.5736
13726TIP3   OH262592   5.546   2.036  14.624  0.1703  0.0202 -0.2534
13726TIP3    H162593   5.527   2.107  14.686 -0.6945  1.5031 -2.0849
13726TIP3    H262594   5.590   2.080  14.551 -0.4764 -1.2951 -1.4833
13727TIP3   OH262595   2.287   3.484  10.399  0.3825  0.1045  0.6556
13727TIP3    H162596   2.365   3.442  10.363  0.2267  0.0423  0.3906
13727TIP3    H262597   2.214   3.437  10.359  0.1995  1.0862 -0.1971
13728TIP3   OH262598   6.640   4.834  12.057 -0.0062  0.5342  0.4419
13728TIP3    H162599   6.696   4.758  12.074  1.4950  1.4909 -0.1102
13728TIP3    H262600   6.562   4.817  12.110 -0.2884 -1.9997 -0.6331
13729TIP3   OH262601   5.693   4.426   5.496 -0.4622 -0.0602  0.0773
13729TIP3    H162602   5.786   4.446   5.506 -0.3288 -0.8842  0.6069
13729TIP3    H262603   5.688   4.373   5.417 -0.2922 -1.0741  0.7218
13730TIP3   OH262604   3.547   2.723  17.011 -0.4501 -0.2369 -0.1321
13730TIP3    H162605   3.572   2.721  17.104 -1.0586  0.4579  0.0559
13730TIP3    H262606   3.620   2.766  16.967  0.8730 -2.5348 -0.3414
13731TIP3   OH262607   5.437   3.479   0.594  0.5224  0.5672 -0.5589
13731TIP3    H162608   5.526   3.510   0.580  1.1006 -1.0034 -0.4876
13731TIP3    H262609   5.402   3.465   0.506  0.1038  1.7526 -0.6069
13732TIP3   OH262610   4.417   2.796  17.121  0.4131 -0.2010 -0.6440
13732TIP3    H162611   4.382   2.709  17.141 -1.4478  0.8962  1.3989
13732TIP3    H262612   4.487   2.780  17.059 -0.5830 -3.0518 -1.2008
13733TIP3   OH262613   1.170   5.762   1.294 -0.0572  0.3742 -0.1959
13733TIP3    H162614   1.173   5.721   1.380  0.0994  0.3836 -0.1973
13733TIP3    H262615   1.228   5.838   1.300  0.4757 -0.0028 -0.5055
13734TIP3   OH262616   0.299   1.263  12.948  0.0466 -0.2678 -0.1324
13734TIP3    H162617   0.371   1.317  12.916 -0.4109  0.5876  0.2542
13734TIP3    H262618   0.283   1.201  12.877  0.7668 -0.0820 -0.4691
13735TIP3   OH262619   0.473   5.434   1.128 -0.1668  0.3479 -0.2481
13735TIP3    H162620   0.514   5.364   1.178 -0.2500  1.4850  1.4785
13735TIP3    H262621   0.531   5.447   1.053  0.9103 -0.2439  0.4565
13736TIP3   OH262622   2.000   0.990  16.617 -0.3151  0.1345 -0.2526
13736TIP3    H162623   2.060   1.049  16.571 -0.5807  1.1646  0.6941
13736TIP3    H262624   2.055   0.916  16.643  0.1467  0.2185 -0.9586
13737TIP3   OH262625   2.996   2.593   1.081 -0.4537  0.2879  0.2594
13737TIP3    H162626   3.014   2.578   0.988  3.1316  2.9837  0.3182
13737TIP3    H262627   2.912   2.639   1.083 -1.2536 -0.9969 -1.4557
13738TIP3   OH262628   4.842   1.391   6.014  0.2106  0.2472 -0.4639
13738TIP3    H162629   4.757   1.370   6.055  0.8154 -2.1808 -0.3009
13738TIP3    H262630   4.903   1.392   6.088  0.8078 -1.1119 -0.9233
13739TIP3   OH262631   3.451   3.537   0.424  0.1547  0.4397 -1.0210
13739TIP3    H162632   3.458   3.632   0.416 -3.2396  0.8759 -0.0808
13739TIP3    H262633   3.451   3.521   0.518  0.2563 -0.4839 -1.1705
13740TIP3   OH262634   3.804   2.594  10.954  0.3156 -0.0993  0.1843
13740TIP3    H162635   3.819   2.516  10.900 -0.0748  0.5155 -0.8280
13740TIP3    H262636   3.891   2.615  10.989  1.1691  1.0463 -2.3704
13741TIP3   OH262637   2.891   2.727  14.245 -0.4908  0.7343  0.1433
13741TIP3    H162638   2.847   2.806  14.212  1.1989  1.4409 -0.5355
13741TIP3    H262639   2.875   2.728  14.340 -2.8243  0.3493 -0.2012
13742TIP3   OH262640   0.706   4.970   2.701  0.0905 -0.0778  0.0444
13742TIP3    H162641   0.777   5.034   2.705 -1.6869  2.0208 -0.5165
13742TIP3    H262642   0.742   4.892   2.744  2.9423  0.6461 -0.8033
13743TIP3   OH262643   6.501   3.483   2.591 -0.3709 -0.1488  0.4603
13743TIP3    H162644   6.459   3.566   2.569 -0.0481  0.3615  1.7178
13743TIP3    H262645   6.556   3.502   2.666  0.4441 -1.2998  0.1898
13744TIP3   OH262646   0.252   2.961  14.518  0.0368  0.2540  0.5898
13744TIP3    H162647   0.284   2.915  14.441  0.5050  0.1442  0.8509
13744TIP3    H262648   0.160   2.981  14.497  0.1449  0.1782  0.0298
13745TIP3   OH262649   0.638   4.357  14.350 -0.2811 -0.2077  0.0655
13745TIP3    H162650   0.607   4.442  14.382 -0.8705 -0.9714  1.6120
13745TIP3    H262651   0.558   4.309  14.329 -0.0287 -1.0182  0.9298
13746TIP3   OH262652   2.545   3.213  10.341 -0.0921  0.0536 -0.9089
13746TIP3    H162653   2.628   3.195  10.298 -0.2507 -0.6404 -0.9280
13746TIP3    H262654   2.512   3.292  10.298  0.8071  0.6442 -0.5372
13747TIP3   OH262655   6.341   1.251   3.736  0.2080 -0.1082 -0.6377
13747TIP3    H162656   6.283   1.326   3.732  0.6147  0.2091 -0.6311
13747TIP3    H262657   6.311   1.194   3.664 -2.5983 -1.8139  1.6627
13748TIP3   OH262658   3.254   1.748  10.920 -0.1038 -0.2464 -0.0066
13748TIP3    H162659   3.263   1.654  10.909  0.3562 -0.2786  0.6173
13748TIP3    H262660   3.328   1.773  10.975  0.2939  0.6168 -0.9094
13749TIP3   OH262661   4.538   4.186  15.160  0.1452  0.1759  0.6999
13749TIP3    H162662   4.551   4.102  15.204 -1.5841 -0.4004  0.2063
13749TIP3    H262663   4.575   4.174  15.073 -0.7415 -0.3477  0.3821
13750TIP3   OH262664   2.630   0.849  17.046  0.2371  0.3736  0.2221
13750TIP3    H162665   2.560   0.788  17.070  0.6293 -0.0215  0.3670
13750TIP3    H262666   2.620   0.921  17.108  1.1076 -0.5431  1.4852
13751TIP3   OH262667   1.745   5.243  13.441  0.5063  0.4972  0.1544
13751TIP3    H162668   1.721   5.304  13.371 -1.7768  0.6846  1.0330
13751TIP3    H262669   1.815   5.190  13.403 -0.4065  0.8302 -2.1418
13752TIP3   OH262670   2.675   1.780   6.474 -0.7770  0.3799  0.1047
13752TIP3    H162671   2.642   1.800   6.561 -1.0834  0.3349  0.0015
13752TIP3    H262672   2.598   1.750   6.426 -0.6831  0.7411 -0.2836
13753TIP3   OH262673   2.618   5.711  10.976  0.0399 -0.3755  0.0003
13753TIP3    H162674   2.644   5.751  10.893  1.1413  1.1171  1.0099
13753TIP3    H262675   2.561   5.776  11.018  1.4090 -0.0355  1.4313
13754TIP3   OH262676   2.819   2.585  13.387  0.5533  0.1034 -0.1044
13754TIP3    H162677   2.875   2.529  13.333 -0.1638 -1.7216  0.9805
13754TIP3    H262678   2.764   2.525  13.437 -1.1808  1.8044  0.1670
13755TIP3   OH262679   3.406   2.038  13.339 -0.3480  0.4210 -0.0838
13755TIP3    H162680   3.476   1.995  13.389 -1.3154  0.2751  1.2144
13755TIP3    H262681   3.389   1.978  13.266  1.2879  0.7723 -0.7918
13756TIP3   OH262682   5.846   2.192  16.274 -0.0406 -0.3870 -0.0019
13756TIP3    H162683   5.890   2.275  16.293  0.9193 -1.2288  1.6840
13756TIP3    H262684   5.763   2.198  16.320 -0.7784  0.3328 -1.3814
13757TIP3   OH262685   3.069   2.459   0.396 -0.4349 -0.3618  0.0022
13757TIP3    H162686   3.042   2.405   0.321 -0.7262 -2.7212  1.6716
13757TIP3    H262687   2.987   2.481   0.440 -0.3351  1.7313 -0.7446
13758TIP3   OH262688   1.750   0.801   5.103 -0.3335  0.2168  0.1472
13758TIP3    H162689   1.833   0.844   5.122  0.1914 -0.3095 -0.8921
13758TIP3    H262690   1.747   0.726   5.161  0.2161 -0.1174 -0.2524
13759TIP3   OH262691   0.904   4.943  13.014 -0.3881  0.5013 -0.5343
13759TIP3    H162692   0.889   5.027  12.972  0.4257  0.3940 -1.0638
13759TIP3    H262693   0.954   4.893  12.950  0.0775  0.0113  0.1993
13760TIP3   OH262694   4.806   2.104  12.373  0.4459 -0.2245  0.3803
13760TIP3    H162695   4.810   2.010  12.386 -0.1934 -0.3804 -0.4538
13760TIP3    H262696   4.740   2.135  12.434 -0.9794 -0.6457 -0.8915
13761TIP3   OH262697   6.003   3.297   0.233 -0.2725  0.2547 -0.3105
13761TIP3    H162698   6.041   3.329   0.151  1.4561 -0.7391  0.0505
13761TIP3    H262699   5.988   3.204   0.218  0.1469  0.0459  0.5247
13762TIP3   OH262700   0.958   6.016  10.974  0.2567 -0.7277 -0.1755
13762TIP3    H162701   0.921   5.937  11.012  1.6381 -1.4457 -0.2379
13762TIP3    H262702   0.976   5.994  10.883 -1.5148  0.4552 -0.8669
13763TIP3   OH262703   4.804   1.030  15.302  0.3824  0.0276 -0.1607
13763TIP3    H162704   4.842   1.048  15.389  0.7130  1.6377 -0.6129
13763TIP3    H262705   4.825   1.107  15.250 -0.3759 -0.6391 -1.5072
13764TIP3   OH262706   0.863   3.109   5.040 -0.4957  0.4903  0.3084
13764TIP3    H162707   0.936   3.164   5.071 -0.1824  0.0212  0.4031
13764TIP3    H262708   0.788   3.168   5.042 -0.8514  0.1124  3.5691
13765TIP3   OH262709   5.941   5.449  14.002  0.2760  0.0694  0.1932
13765TIP3    H162710   5.960   5.367  14.047 -0.7672  0.3364  1.1672
13765TIP3    H262711   6.027   5.492  13.994  1.0210 -1.6104 -1.4164
13766TIP3   OH262712   2.871   6.518   1.637 -0.2390 -0.6235  0.5631
13766TIP3    H162713   2.805   6.581   1.607  1.6045  0.7293 -0.9000
13766TIP3    H262714   2.944   6.572   1.666  0.9169 -2.0873  0.4808
13767TIP3   OH262715   0.281   4.829   3.786  0.4913 -0.1241  0.0730
13767TIP3    H162716   0.329   4.832   3.869  0.2522 -0.0802  0.2108
13767TIP3    H262717   0.189   4.831   3.812  0.3133 -2.6877 -0.0313
13768TIP3   OH262718   1.461   6.618   2.786 -0.0572  0.5627  0.8059
13768TIP3    H162719   1.499   6.576   2.708  3.0732 -1.7463  3.2872
13768TIP3    H262720   1.369   6.590   2.785  0.5164 -1.5623 -0.7552
13769TIP3   OH262721   3.752   4.053   1.238  0.3605 -0.4470 -0.1339
13769TIP3    H162722   3.675   4.070   1.293  0.3562 -0.6654 -0.0726
13769TIP3    H262723   3.825   4.089   1.288  0.6670 -2.5283  1.0403
13770TIP3   OH262724   2.972   1.479  16.428  0.7148 -0.4396 -0.3390
13770TIP3    H162725   3.040   1.439  16.484 -0.3612 -0.1450  1.2557
13770TIP3    H262726   2.895   1.485  16.485 -0.1160  0.9253 -1.5450
13771TIP3   OH262727   0.994   0.646   0.085 -0.6658 -0.4697  0.8053
13771TIP3    H162728   1.085   0.652   0.115 -0.0764 -1.6958 -0.6018
13771TIP3    H262729   0.942   0.640   0.166  0.1663  3.0637  1.7874
13772TIP3   OH262730   1.149   6.439  12.746 -0.1168 -0.6621  0.4305
13772TIP3    H162731   1.126   6.530  12.762  0.2682 -0.4783 -0.0316
13772TIP3    H262732   1.132   6.395  12.829 -0.3287 -0.1759  0.6491
13773TIP3   OH262733   3.315   0.257  11.257  0.0788 -0.0564  0.1456
13773TIP3    H162734   3.407   0.231  11.257  0.6673  1.7613  1.7137
13773TIP3    H262735   3.299   0.292  11.170  1.1790  0.5138  0.1573
13774TIP3   OH262736   6.773   2.217  13.033  0.2655 -0.3822 -0.0400
13774TIP3    H162737   6.842   2.282  13.021 -0.6339  0.6034 -0.0614
13774TIP3    H262738   6.787   2.154  12.963  0.2846  0.5994 -0.9524
13775TIP3   OH262739   5.064   1.841  14.000  0.2488  0.1840 -0.1103
13775TIP3    H162740   5.083   1.879  14.086 -0.8092 -0.3900  0.4099
13775TIP3    H262741   5.125   1.769  13.992 -0.6403 -0.7241  0.8747
13776TIP3   OH262742   1.179   0.042   4.332  0.1764  0.8303 -0.1027
13776TIP3    H162743   1.145  -0.000   4.253 -1.0204  1.3314  0.1228
13776TIP3    H262744   1.103   0.050   4.389  0.8055  1.4693  0.6695
13777TIP3   OH262745   1.746   3.330  13.461  0.9776  0.0787 -0.9180
13777TIP3    H162746   1.676   3.393  13.442  0.7113  0.3647  0.8152
13777TIP3    H262747   1.761   3.286  13.378 -3.3165 -2.0380 -0.8895
13778TIP3   OH262748   2.766   6.195   3.253  0.7730  0.0499  0.0812
13778TIP3    H162749   2.679   6.234   3.248  0.5381 -0.6162 -2.7516
13778TIP3    H262750   2.770   6.155   3.340 -1.6232  0.3846  0.4057
13779TIP3   OH262751   0.293   1.454  12.687  0.2229 -0.3095  0.0517
13779TIP3    H162752   0.225   1.445  12.753 -1.4560  4.0363 -0.7673
13779TIP3    H262753   0.254   1.421  12.606  0.5366 -1.3225  0.3084
13780TIP3   OH262754   6.638   1.736   2.068  0.2486 -0.3293  0.0621
13780TIP3    H162755   6.647   1.812   2.126 -0.7066 -0.9799  1.1139
13780TIP3    H262756   6.716   1.738   2.013  1.2427  0.2879  1.4299
13781TIP3   OH262757   5.433   3.448   1.653  0.1625  0.4724 -1.1319
13781TIP3    H162758   5.453   3.435   1.560  0.2508 -1.2041 -0.9107
13781TIP3    H262759   5.518   3.452   1.696  0.1372 -1.7471 -0.7889
13782TIP3   OH262760   3.042   1.353   0.945 -0.4952 -0.2724 -0.0305
13782TIP3    H162761   3.053   1.388   0.857  2.0501 -0.4588  0.1245
13782TIP3    H262762   3.117   1.294   0.957 -0.8991 -0.4425  2.1715
13783TIP3   OH262763   4.613   0.173  16.910  0.4846  0.2263 -0.6684
13783TIP3    H162764   4.661   0.226  16.846 -0.9784  1.2234 -0.9947
13783TIP3    H262765   4.609   0.227  16.989  0.3483 -0.0559 -0.4786
13784TIP3   OH262766   5.567   2.492  15.745 -0.0236 -0.0668  0.1283
13784TIP3    H162767   5.509   2.562  15.715  0.5700 -0.0896 -1.1333
13784TIP3    H262768   5.642   2.537  15.783  0.0012 -0.0151  0.0185
13785TIP3   OH262769   4.379   0.099  16.224  0.1361 -0.2618  0.4843
13785TIP3    H162770   4.328   0.019  16.236  0.4647 -0.9996 -2.2321
13785TIP3    H262771   4.314   0.165  16.199  0.2717 -0.8763 -1.6914
13786TIP3   OH262772   3.213   2.003   3.648 -0.3126  0.3092  0.7027
13786TIP3    H162773   3.245   1.922   3.689 -0.8228 -1.0900 -1.4812
13786TIP3    H262774   3.224   1.988   3.554 -2.3657  1.9381  0.1325
13787TIP3   OH262775   5.325   5.107  12.491  0.2759  0.7127  1.2261
13787TIP3    H162776   5.399   5.167  12.498 -0.6661  2.2677 -0.9991
13787TIP3    H262777   5.360   5.030  12.446  0.6623  1.1965  0.6982
13788TIP3   OH262778   5.615   4.040   0.023 -0.0735 -0.0181 -0.1410
13788TIP3    H162779   5.531   4.067  -0.015 -0.4089 -0.4777  0.2551
13788TIP3    H262780   5.593   3.965   0.079  0.4782  0.3409  0.5769
13789TIP3   OH262781   6.528   5.752   0.431  0.0166  0.2120 -0.6762
13789TIP3    H162782   6.609   5.794   0.402 -0.6132  0.6362 -1.8918
13789TIP3    H262783   6.477   5.741   0.351 -0.0677 -2.4232 -0.3338
13790TIP3   OH262784   0.106   5.175  12.950  0.0632 -0.4627 -0.6504
13790TIP3    H162785   0.119   5.231  13.026  3.7816 -1.9769 -0.0087
13790TIP3    H262786   0.072   5.235  12.883 -1.1483  1.3692  1.4509
13791TIP3   OH262787   6.183   0.275   0.770  0.3794  0.6086 -0.5168
13791TIP3    H162788   6.162   0.182   0.761  0.5264  0.4932  0.2510
13791TIP3    H262789   6.240   0.295   0.696  0.3812  0.0757 -0.6584
13792TIP3   OH262790   4.865   0.112  14.201 -0.1771 -0.0961 -0.3092
13792TIP3    H162791   4.856   0.077  14.290 -4.0184 -0.0141 -0.4876
13792TIP3    H262792   4.866   0.207  14.214 -2.1502 -0.0272 -0.3092
13793TIP3   OH262793   1.648   1.234  15.029  0.3259 -0.6318 -0.4246
13793TIP3    H162794   1.561   1.195  15.037  0.2381 -0.6142 -1.1758
13793TIP3    H262795   1.647   1.277  14.944  1.2908 -1.1978 -0.7450
13794TIP3   OH262796   1.657   2.734   1.591 -0.0491  0.5558  0.1188
13794TIP3    H162797   1.719   2.806   1.577 -1.1912  1.3413 -1.0687
13794TIP3    H262798   1.684   2.696   1.675  0.5532  2.3946  0.8069
13795TIP3   OH262799   5.237   1.816  16.461  0.1319 -0.7482 -0.2149
13795TIP3    H162800   5.207   1.898  16.422 -0.3837 -0.6563  0.3548
13795TIP3    H262801   5.313   1.790  16.408  0.1876 -0.0014 -0.5131
13796TIP3   OH262802   5.122   4.741  10.731  0.0776 -0.4437  0.4310
13796TIP3    H162803   5.084   4.676  10.672  2.0596 -0.5681 -0.8102
13796TIP3    H262804   5.116   4.702  10.818 -1.2991 -1.0285  0.0992
13797TIP3   OH262805   0.186   0.493  13.727  0.7766 -0.3040 -0.5557
13797TIP3    H162806   0.243   0.541  13.786 -0.6492  1.0124 -0.1859
13797TIP3    H262807   0.192   0.402  13.756  1.5014  0.0432  0.4223
13798TIP3   OH262808   0.881   5.905   3.230 -0.1778  0.5193 -0.4716
13798TIP3    H162809   0.849   5.994   3.242 -1.7107 -0.2652  1.8191
13798TIP3    H262810   0.863   5.885   3.138  0.1984  2.5416 -1.0179
13799TIP3   OH262811   0.398   3.331   2.514  0.6985 -0.0617 -0.1944
13799TIP3    H162812   0.353   3.329   2.429  1.6874  2.3275 -0.8629
13799TIP3    H262813   0.338   3.286   2.574 -1.6922  1.2527 -1.4343
13800TIP3   OH262814   5.879   1.091  16.063  0.0492 -0.1488 -0.3981
13800TIP3    H162815   5.920   1.025  16.007  2.7247  0.9924  0.0924
13800TIP3    H262816   5.913   1.175  16.031  0.8394  0.6056  2.2145
13801TIP3   OH262817   2.580   6.259  14.563 -0.5370  0.1761 -0.3053
13801TIP3    H162818   2.567   6.348  14.594 -1.2740  0.2125 -0.6739
13801TIP3    H262819   2.499   6.213  14.588  0.8666 -1.1017  2.2028
13802TIP3   OH262820   3.395   5.620   3.987 -0.1332 -0.2091 -0.0300
13802TIP3    H162821   3.300   5.629   3.999  0.0745  0.4620  1.3501
13802TIP3    H262822   3.422   5.560   4.058  0.2076 -2.1404 -1.7054
13803TIP3   OH262823   2.160   0.249   0.933 -0.3759 -0.1082 -0.1412
13803TIP3    H162824   2.085   0.288   0.889 -2.3732 -2.9802  0.3912
13803TIP3    H262825   2.124   0.211   1.013  1.6116 -1.7101  0.0853
13804TIP3   OH262826   3.309   4.292  14.736  0.3577 -0.7656 -0.7757
13804TIP3    H162827   3.258   4.224  14.781 -1.8148  0.6852 -0.9200
13804TIP3    H262828   3.364   4.330  14.805  1.2751 -2.2898 -0.6021
13805TIP3   OH262829   6.237   2.926  15.864 -0.6162  0.1928 -0.1521
13805TIP3    H162830   6.229   3.021  15.876  0.9709  0.6206 -1.8857
13805TIP3    H262831   6.330   2.913  15.843 -0.5551 -1.9213  1.2326
13806TIP3   OH262832   2.136   1.217   5.577 -0.1058  0.1226  0.0641
13806TIP3    H162833   2.051   1.247   5.610 -0.5193  1.9329 -2.3688
13806TIP3    H262834   2.180   1.296   5.548  1.1140 -1.0793 -1.5485
13807TIP3   OH262835   6.639   4.520   2.124  0.5220  0.4624 -0.0529
13807TIP3    H162836   6.728   4.487   2.136  0.2954 -0.3072 -0.4483
13807TIP3    H262837   6.647   4.615   2.133  1.2024  0.3170  1.0198
13808TIP3   OH262838   0.118   0.553  14.161  0.3899  0.6309  0.2406
13808TIP3    H162839   0.103   0.593  14.075  1.6048  0.4734 -0.0678
13808TIP3    H262840   0.213   0.548  14.168  0.3285 -2.7866 -0.0192
13809TIP3   OH262841   6.322   0.626   2.501 -0.3527  0.6320 -0.5986
13809TIP3    H162842   6.296   0.598   2.414  2.8217 -0.7452 -1.2324
13809TIP3    H262843   6.310   0.549   2.556  1.7722  0.0540 -0.8461
13810TIP3   OH262844   0.746   2.272  15.751 -0.0594 -0.3694  0.1972
13810TIP3    H162845   0.713   2.244  15.665 -0.3394 -0.7727  0.4311
13810TIP3    H262846   0.830   2.313  15.732 -1.0238  1.4366 -0.5297
13811TIP3   OH262847   2.478   3.830  10.570  0.0470  0.5375 -0.0773
13811TIP3    H162848   2.435   3.883  10.504 -0.3199 -2.0090 -2.0592
13811TIP3    H262849   2.406   3.783  10.613  0.3012  1.9418  2.0633
13812TIP3   OH262850   5.367   2.639  15.879  0.0158  0.0956 -0.1541
13812TIP3    H162851   5.298   2.623  15.814 -0.0521  1.2817 -0.4023
13812TIP3    H262852   5.321   2.680  15.952  0.2892 -0.1273  0.1434
13813TIP3   OH262853   1.106   5.360   5.715 -0.0490 -0.3741  0.5599
13813TIP3    H162854   1.195   5.334   5.691 -0.7245 -1.9126 -0.4070
13813TIP3    H262855   1.115   5.449   5.749  1.9354 -0.7292  1.0579
13814TIP3   OH262856   1.269   5.757  15.830 -0.1161  0.0683 -0.6878
13814TIP3    H162857   1.226   5.812  15.765  0.2224  0.1238 -0.8715
13814TIP3    H262858   1.360   5.753  15.801 -0.2891 -1.1953 -1.0889
13815TIP3   OH262859   6.511   0.264   0.691 -0.3124  0.0339 -0.3555
13815TIP3    H162860   6.537   0.346   0.733 -0.4801  0.1575 -0.4919
13815TIP3    H262861   6.450   0.291   0.622  0.9101 -0.0485 -1.5093
13816TIP3   OH262862   6.202   4.620   2.006 -0.8005  0.1809  0.1068
13816TIP3    H162863   6.194   4.591   2.097  1.2898 -1.4380 -0.1494
13816TIP3    H262864   6.136   4.689   1.997 -0.1340  1.3880  3.2227
13817TIP3   OH262865   5.666   5.084  14.639  0.4425 -0.7614  0.1208
13817TIP3    H162866   5.668   5.150  14.570 -0.5317  0.6217  1.3445
13817TIP3    H262867   5.756   5.079  14.670  0.3951  0.6777  0.5796
13818TIP3   OH262868   1.364   1.319  14.078  0.6587 -0.0755 -0.3360
13818TIP3    H162869   1.400   1.397  14.120  1.2759 -0.2945 -0.4554
13818TIP3    H262870   1.440   1.268  14.051  0.2618 -0.6212 -0.4518
13819TIP3   OH262871   2.773   1.540   1.345  0.0001  0.3046 -0.4906
13819TIP3    H162872   2.840   1.581   1.401  0.7338 -1.2800 -0.1405
13819TIP3    H262873   2.807   1.550   1.256 -0.0840  0.9061 -0.4563
13820TIP3   OH262874   4.028   1.608   2.546  0.0428  0.2361 -0.2676
13820TIP3    H162875   4.060   1.692   2.579 -0.4651  1.0438 -1.7585
13820TIP3    H262876   3.963   1.580   2.611  0.1922  1.0013  0.2240
13821TIP3   OH262877   1.112   1.361   6.573 -0.3457  0.5698  0.2268
13821TIP3    H162878   1.100   1.343   6.479 -0.8206  0.9511  0.2092
13821TIP3    H262879   1.033   1.326   6.614 -0.6933  1.4493  0.3364
13822TIP3   OH262880   6.167   2.754  13.488  0.4076  0.1861  0.7233
13822TIP3    H162881   6.259   2.776  13.472  0.3018  1.1482  1.3626
13822TIP3    H262882   6.144   2.695  13.416  1.4319  0.1900  0.3756
13823TIP3   OH262883   5.060   1.673   6.539 -0.0336  0.2127 -0.1992
13823TIP3    H162884   4.974   1.633   6.528  0.0765 -0.2634  0.6243
13823TIP3    H262885   5.053   1.757   6.495 -0.2720 -0.6819 -1.9956
13824TIP3   OH262886   1.098   0.387  13.586  0.1967 -0.5560 -0.2472
13824TIP3    H162887   1.063   0.475  13.575  0.6049 -0.1540  1.3481
13824TIP3    H262888   1.155   0.373  13.510  2.5815  1.8067  0.9548
13825TIP3   OH262889   1.633   5.202  11.380 -0.4570  0.4003 -0.0772
13825TIP3    H162890   1.647   5.151  11.300  0.6608 -0.2971  0.5312
13825TIP3    H262891   1.601   5.287  11.350 -0.5590 -0.0337 -1.2292
13826TIP3   OH262892   1.548   1.714  14.385 -0.1663  0.0982 -0.1141
13826TIP3    H162893   1.479   1.770  14.419  0.2999 -0.2982  1.6086
13826TIP3    H262894   1.507   1.665  14.314 -1.5314  0.2271  0.5462
13827TIP3   OH262895   1.161   2.628  12.602  0.8920  0.0563 -0.0998
13827TIP3    H162896   1.235   2.570  12.584  0.3088 -1.0903  1.0721
13827TIP3    H262897   1.158   2.634  12.698 -0.1884  0.5369 -0.1523
13828TIP3   OH262898   6.347   0.884   2.371 -0.1406  0.0258 -0.3465
13828TIP3    H162899   6.276   0.865   2.309 -1.0669  0.5529  0.5323
13828TIP3    H262900   6.344   0.812   2.433 -1.1168  0.9779  0.7448
13829TIP3   OH262901   5.270   4.218   5.399  0.6789  0.6294  0.4033
13829TIP3    H162902   5.278   4.289   5.335  1.0729  1.6243  1.5331
13829TIP3    H262903   5.194   4.167   5.370  0.2247  1.6681 -0.2578
13830TIP3   OH262904   5.175   3.267   0.378  0.5106  0.0759 -0.0332
13830TIP3    H162905   5.123   3.346   0.366 -0.2622 -0.3928  0.1439
13830TIP3    H262906   5.110   3.199   0.399  1.2282 -0.4457  0.5211
13831TIP3   OH262907   6.463   2.045  11.510 -0.0259  0.1523  0.1739
13831TIP3    H162908   6.410   2.119  11.481 -0.3339  0.3745  1.2496
13831TIP3    H262909   6.422   1.969  11.470  0.9407  0.6234 -1.8413
13832TIP3   OH262910   6.075   6.153   3.132  0.3548  0.2621  0.0607
13832TIP3    H162911   6.148   6.209   3.158 -1.2101  1.4666  2.2350
13832TIP3    H262912   6.018   6.211   3.081  1.3041 -0.9501 -2.5702
13833TIP3   OH262913   3.163   4.517   1.110 -0.6290 -0.1542  0.4734
13833TIP3    H162914   3.152   4.598   1.159 -1.1095 -1.2724  2.3106
13833TIP3    H262915   3.257   4.499   1.112 -0.6736 -0.3194  1.2265
13834TIP3   OH262916   2.284   4.671   3.796 -0.0221  0.2115  0.0682
13834TIP3    H162917   2.365   4.644   3.753 -0.7156 -0.1873 -1.0510
13834TIP3    H262918   2.309   4.748   3.848  0.8972  0.6369 -0.9481
13835TIP3   OH262919   2.790   3.044  16.560  0.0176 -0.6712  0.2030
13835TIP3    H162920   2.704   3.072  16.593 -0.0479 -0.9436  0.2641
13835TIP3    H262921   2.843   3.036  16.639 -0.3256 -1.9792  0.3213
13836TIP3   OH262922   5.955   3.748   2.785 -0.2162  0.4286  0.0460
13836TIP3    H162923   5.952   3.741   2.880  1.0681  0.8480  0.1390
13836TIP3    H262924   5.896   3.820   2.764  0.9171  1.5926  0.7115
13837TIP3   OH262925   3.521   2.404  14.673  0.0368  0.6610 -0.6018
13837TIP3    H162926   3.599   2.430  14.623  0.0895  1.3175 -0.1813
13837TIP3    H262927   3.450   2.406  14.609  0.5189 -0.9708 -1.2545
13838TIP3   OH262928   3.520   0.396   2.398 -0.1804  0.3704 -0.0431
13838TIP3    H162929   3.434   0.374   2.434 -0.2879  0.1132 -0.4443
13838TIP3    H262930   3.578   0.401   2.474 -0.6028  0.7907  0.2484
13839TIP3   OH262931   2.996   2.374  13.585 -0.4023 -0.2919 -0.1804
13839TIP3    H162932   3.020   2.414  13.668 -0.2858 -0.8145  0.0376
13839TIP3    H262933   3.064   2.402  13.524 -1.0350  0.9451 -0.3620
13840TIP3   OH262934   3.835   6.610  14.910 -0.5123 -0.5467  0.3000
13840TIP3    H162935   3.800   6.533  14.953  0.0448 -0.0690  1.6656
13840TIP3    H262936   3.759   6.651  14.869 -1.2199 -0.6185  1.4863
13841TIP3   OH262937   1.244   1.576   2.524 -0.3338 -0.6896 -0.0050
13841TIP3    H162938   1.222   1.566   2.432 -0.7189  0.2873 -0.0241
13841TIP3    H262939   1.193   1.508   2.568  1.2476 -2.3897 -0.6777
13842TIP3   OH262940   2.178   1.736  12.795 -0.6973  0.1642 -0.0124
13842TIP3    H162941   2.269   1.716  12.819 -1.3427 -0.8764  1.7402
13842TIP3    H262942   2.166   1.828  12.820  0.1374  0.6279 -1.2144
13843TIP3   OH262943   4.475   5.489  11.411 -0.0118 -0.4515 -0.1926
13843TIP3    H162944   4.419   5.542  11.353  0.6941 -0.0156 -0.4914
13843TIP3    H262945   4.559   5.535  11.411 -0.0050 -0.4443  1.1942
13844TIP3   OH262946   5.312   3.259   4.758  0.7078 -0.0087  0.4840
13844TIP3    H162947   5.333   3.255   4.665  1.3001 -0.9084  0.6448
13844TIP3    H262948   5.396   3.248   4.803  0.1109 -2.5156  1.1358
13845TIP3   OH262949   0.995   1.163   3.016  0.4315 -0.2190 -0.0044
13845TIP3    H162950   0.986   1.192   2.925 -1.0461  0.0194  0.1940
13845TIP3    H262951   1.088   1.176   3.036  0.1042  3.5414 -0.2415
13846TIP3   OH262952   2.591   1.871   1.832 -0.3740 -0.2192  0.0215
13846TIP3    H162953   2.617   1.899   1.745 -1.5062  2.2108  0.3777
13846TIP3    H262954   2.532   1.940   1.863 -0.2794 -1.1731  2.5824
13847TIP3   OH262955   3.868   6.387   5.417 -0.1926 -0.1816  0.0411
13847TIP3    H162956   3.854   6.292   5.415 -0.5485 -0.3548  3.7689
13847TIP3    H262957   3.782   6.423   5.439 -1.2004  1.6168 -5.3050
13848TIP3   OH262958   2.015   0.034  10.603 -0.6766  0.2492  0.6079
13848TIP3    H162959   2.041   0.126  10.591 -0.4702  0.0510 -0.5756
13848TIP3    H262960   1.950   0.019  10.534  0.1854 -0.8390  0.0106
13849TIP3   OH262961   4.605   5.911   0.390 -0.5684  0.0632 -0.0222
13849TIP3    H162962   4.603   5.959   0.473 -0.0151 -1.2292  0.7680
13849TIP3    H262963   4.628   5.977   0.325 -1.2613  1.1623  0.8013
13850TIP3   OH262964   6.751   3.117   1.849 -0.4219  0.2904 -0.0102
13850TIP3    H162965   6.754   3.025   1.878  0.5653  0.6631  1.1407
13850TIP3    H262966   6.692   3.116   1.773 -0.5582 -1.2655  0.0797
13851TIP3   OH262967   2.467   3.632   0.429 -0.1358  0.3374 -0.4473
13851TIP3    H162968   2.537   3.576   0.464  1.2894  2.0144 -0.5150
13851TIP3    H262969   2.412   3.571   0.379  2.2710 -0.7967 -1.9107
13852TIP3   OH262970   6.657   2.512   0.562 -0.0014 -0.0357 -0.6919
13852TIP3    H162971   6.583   2.452   0.568 -0.5620  0.7689  1.0913
13852TIP3    H262972   6.617   2.599   0.563  0.9742  0.4608  2.1237
13853TIP3   OH262973   5.704   0.815  12.180 -0.3353  0.5036 -0.3397
13853TIP3    H162974   5.704   0.823  12.275 -0.5602 -1.8347 -0.0871
13853TIP3    H262975   5.783   0.862  12.152  0.6210 -0.1607  1.1442
13854TIP3   OH262976   4.017   5.674   6.265  0.4337  0.0916  0.0498
13854TIP3    H162977   3.967   5.754   6.254 -0.4111 -0.5128 -0.6932
13854TIP3    H262978   3.959   5.605   6.232  1.5353 -0.7031 -0.2817
13855TIP3   OH262979   1.548   6.296  11.729 -0.5151  0.1567 -0.0651
13855TIP3    H162980   1.459   6.332  11.738 -0.1251  0.8696  1.2355
13855TIP3    H262981   1.535   6.211  11.688 -1.8296  0.1659  0.2825
13856TIP3   OH262982   1.571   0.113  16.272  0.6783 -0.4775 -0.3390
13856TIP3    H162983   1.543   0.151  16.188 -0.9348 -0.3847  0.2140
13856TIP3    H262984   1.653   0.068  16.251  0.0527 -0.9057 -2.0997
13857TIP3   OH262985   6.247   3.755   5.520  0.7622  0.1563 -0.1883
13857TIP3    H162986   6.274   3.704   5.596 -2.2565 -0.5583  0.5026
13857TIP3    H262987   6.210   3.692   5.459  1.3981  0.9635 -1.4654
13858TIP3   OH262988   3.265   3.042  14.715  0.3904  0.3889  0.2979
13858TIP3    H162989   3.341   3.091  14.685  0.9701 -1.0066 -0.6198
13858TIP3    H262990   3.216   3.023  14.635  1.3776 -2.4403  0.2604
13859TIP3   OH262991   5.957   4.599  14.502 -0.6041 -0.2151 -0.1754
13859TIP3    H162992   6.037   4.620  14.550  0.5184 -0.1960 -1.9631
13859TIP3    H262993   5.934   4.511  14.531 -0.7262  0.2934  1.3469
13860TIP3   OH262994   4.057   4.540   5.802 -0.2595 -0.1548 -0.2340
13860TIP3    H162995   4.117   4.558   5.874  0.2447 -1.2686 -0.3508
13860TIP3    H262996   3.999   4.471   5.836 -0.5782 -0.0662 -0.5964
13861TIP3   OH262997   5.150   3.469   1.304 -0.3991 -0.4491  0.1646
13861TIP3    H162998   5.222   3.425   1.349  0.8724 -0.0599 -1.4309
13861TIP3    H262999   5.092   3.398   1.277  0.4377 -0.9646 -0.3180
13862TIP3   OH263000   4.725   2.630   3.224  0.2629 -0.5885  0.4718
13862TIP3    H163001   4.794   2.673   3.274  0.0015  0.2599  0.1346
13862TIP3    H263002   4.757   2.630   3.134  0.6183 -1.8759  0.5782
13863TIP3   OH263003   0.063   4.076   2.721 -0.1636 -0.0040 -0.2740
13863TIP3    H163004   0.071   4.099   2.813 -0.6127 -0.9004  0.0033
13863TIP3    H263005  -0.001   4.139   2.686 -0.6057 -0.1736  0.2209
13864TIP3   OH263006   5.250   1.330  15.427  0.3954 -0.0143  0.1527
13864TIP3    H163007   5.196   1.339  15.505  2.8115  3.2558  1.6917
13864TIP3    H263008   5.325   1.279  15.456  1.0554  0.7660 -0.1310
13865TIP3   OH263009   6.662   6.501  16.459 -0.2679  0.0496  0.3422
13865TIP3    H163010   6.717   6.542  16.525  0.8198 -1.6681  0.5605
13865TIP3    H263011   6.697   6.413  16.450 -1.7939 -0.4720 -0.9307
13866TIP3   OH263012   4.855   3.603  12.680 -0.5216  0.4237  0.3668
13866TIP3    H163013   4.845   3.524  12.733  0.0878  0.2787  0.2789
13866TIP3    H263014   4.766   3.627  12.654 -0.7158 -0.1983  0.4526
13867TIP3   OH263015   2.702   2.285   2.205  0.0939  0.3579  0.1882
13867TIP3    H163016   2.649   2.218   2.162  0.5712  0.7740 -1.1073
13867TIP3    H263017   2.724   2.346   2.134  1.0411  0.9923  1.0111
13868TIP3   OH263018   0.114   2.739   1.205  0.3337  0.0681 -0.3058
13868TIP3    H163019   0.139   2.672   1.141 -0.7625  0.2635 -0.9562
13868TIP3    H263020   0.124   2.695   1.290  0.3265 -0.6991 -0.6896
13869TIP3   OH263021   5.898   3.081  13.222  0.6533 -0.3740  0.3490
13869TIP3    H163022   5.881   3.167  13.184 -0.9714 -0.5126  0.7069
13869TIP3    H263023   5.982   3.091  13.266 -0.3935  1.6130  2.0566
13870TIP3   OH263024   0.112   3.313  16.306 -0.1757  0.4813 -0.4517
13870TIP3    H163025   0.198   3.351  16.322 -1.1544  1.9431  1.8431
13870TIP3    H263026   0.092   3.264  16.385 -1.5784  0.4174 -0.8104
13871TIP3   OH263027   1.241   6.233  13.776 -0.5611 -0.6433  0.3372
13871TIP3    H163028   1.203   6.298  13.836  0.6316 -1.1709  1.7285
13871TIP3    H263029   1.301   6.283  13.721 -1.1652 -0.2577  0.0207
13872TIP3   OH263030   2.329   0.710  14.993 -0.0647 -1.1348 -0.5013
13872TIP3    H163031   2.376   0.686  14.913  1.9853  1.2915 -0.1601
13872TIP3    H263032   2.395   0.705  15.062 -0.7946  0.4434  0.3733
13873TIP3   OH263033   1.101   1.869   0.388  0.2275  0.0965 -0.1343
13873TIP3    H163034   1.058   1.947   0.353 -0.6554  0.4995  1.7234
13873TIP3    H263035   1.192   1.878   0.361 -0.2427  0.7790 -1.5849
13874TIP3   OH263036   5.738   1.822   2.827  0.1694  0.3461  0.0112
13874TIP3    H163037   5.783   1.745   2.863  0.2596  0.4523  0.1241
13874TIP3    H263038   5.807   1.886   2.811  0.2777 -0.0643 -1.3126
13875TIP3   OH263039   5.054   0.979   3.659 -0.1454  0.4457 -0.3069
13875TIP3    H163040   5.127   1.004   3.603 -0.1860  1.2900  0.0071
13875TIP3    H263041   5.057   1.041   3.732 -0.3754 -0.3492  0.3880
13876TIP3   OH263042   6.603   2.057  13.234 -0.5299  0.0814  0.4968
13876TIP3    H163043   6.685   2.056  13.282  0.0326  2.0965 -0.3431
13876TIP3    H263044   6.618   2.000  13.158 -0.6847 -1.3136  1.4822
13877TIP3   OH263045   0.920   3.899  16.905  0.0121  0.5939 -0.5099
13877TIP3    H163046   0.969   3.909  16.824 -0.3271  0.8991 -0.6824
13877TIP3    H263047   0.974   3.942  16.971  1.2201 -1.3255 -0.1884
13878TIP3   OH263048   1.758   3.333   4.217 -0.7782 -0.5651 -0.3459
13878TIP3    H163049   1.831   3.271   4.218  0.5079  0.8151  1.9392
13878TIP3    H263050   1.715   3.320   4.301  0.2604  2.2774  0.7713
13879TIP3   OH263051   3.570   3.248  10.948  0.2505  0.4703 -0.7315
13879TIP3    H163052   3.611   3.291  11.023  1.4840 -0.6985 -0.7123
13879TIP3    H263053   3.642   3.229  10.888 -0.6273  0.8063 -1.9531
13880TIP3   OH263054   3.966   5.301   4.955  0.1194  0.7497 -0.2469
13880TIP3    H163055   3.883   5.331   4.916 -0.2610  0.1857  0.1068
13880TIP3    H263056   3.997   5.232   4.897 -0.4799 -0.1346  0.4524
13881TIP3   OH263057   0.705   1.536   5.260 -0.0525  0.1345  0.2589
13881TIP3    H163058   0.752   1.458   5.291 -0.3933  0.2038  0.9627
13881TIP3    H263059   0.752   1.609   5.300 -0.2585  0.2490  0.2910
13882TIP3   OH263060   1.916   4.335  17.148 -0.2786  0.8402 -0.4350
13882TIP3    H163061   1.937   4.418  17.190  0.1060  1.4537 -1.8023
13882TIP3    H263062   1.845   4.299  17.201  0.5099  1.3524  1.0102
13883TIP3   OH263063   6.461   5.839   4.602 -0.2413 -0.3003  0.1649
13883TIP3    H163064   6.424   5.890   4.530 -2.1396 -0.4797  0.9393
13883TIP3    H263065   6.508   5.903   4.655  0.6785 -0.0682 -0.8985
13884TIP3   OH263066   4.002   2.454  12.224 -0.1171 -0.0894  0.1467
13884TIP3    H163067   3.967   2.371  12.257  1.0459 -0.2450  1.0767
13884TIP3    H263068   4.097   2.443  12.229  0.1694  2.1938  2.8046
13885TIP3   OH263069   4.885   1.712  16.559  0.0924  0.1096 -0.0501
13885TIP3    H163070   4.880   1.692  16.653  0.2501 -1.2326 -0.3086
13885TIP3    H263071   4.794   1.709  16.529  0.0495  0.4673  0.0335
13886TIP3   OH263072   2.819   4.804   1.566 -0.2740  0.4293  0.2641
13886TIP3    H163073   2.735   4.847   1.585 -0.3618 -0.4878  2.2700
13886TIP3    H263074   2.854   4.783   1.653  0.5665 -1.9740 -0.5823
13887TIP3   OH263075   6.328   2.849  12.540 -0.0435  0.0432 -0.0703
13887TIP3    H163076   6.243   2.860  12.581  0.2861  0.2008  0.5750
13887TIP3    H263077   6.308   2.839  12.447 -0.8299 -0.7847  0.1660
13888TIP3   OH263078   3.444   1.780   1.054 -0.0363  0.1582  0.1355
13888TIP3    H163079   3.411   1.697   1.089  2.0903 -1.1175 -0.6732
13888TIP3    H263080   3.512   1.807   1.116 -2.4072  2.7511  1.8117
13889TIP3   OH263081   2.859   2.792  12.538  0.1990 -0.0186 -0.2361
13889TIP3    H163082   2.831   2.884  12.540  0.1068 -0.0108 -1.3554
13889TIP3    H263083   2.796   2.747  12.594 -0.0463  0.5277 -0.0626
13890TIP3   OH263084   3.502   6.421   2.289 -0.2272  0.0747 -0.1761
13890TIP3    H163085   3.455   6.464   2.361 -0.4228 -0.0539 -0.2257
13890TIP3    H263086   3.432   6.390   2.231 -0.0633  0.5647 -0.6415
13891TIP3   OH263087   5.923   3.854  13.199 -0.3797 -0.6430  0.3414
13891TIP3    H163088   5.844   3.908  13.208 -0.1865 -0.5381  1.6182
13891TIP3    H263089   5.986   3.912  13.156 -0.6357 -0.3357  0.3712
13892TIP3   OH263090   4.241   2.172   5.266  0.0529  0.1856 -0.1743
13892TIP3    H163091   4.321   2.122   5.246 -0.1371  0.0607 -0.6119
13892TIP3    H263092   4.242   2.244   5.204 -1.1874 -0.8996 -1.5272
13893TIP3   OH263093   3.354   2.595   1.400 -0.1478 -0.3754 -0.2366
13893TIP3    H163094   3.366   2.607   1.494  1.3857  0.8164 -0.5538
13893TIP3    H263095   3.420   2.652   1.359 -1.9661  0.5609 -2.0614
13894TIP3   OH263096   5.231   3.187   2.986  0.2243  0.3569 -0.3056
13894TIP3    H163097   5.258   3.272   2.952 -0.2517  0.4814 -0.3740
13894TIP3    H263098   5.310   3.133   2.981  0.0591  0.2323 -2.0631
13895TIP3   OH263099   0.474   5.665  12.684 -0.3459  0.3848  0.6152
13895TIP3    H163100   0.383   5.692  12.671 -0.4857 -0.0212  0.7440
13895TIP3    H263101   0.525   5.728  12.633 -0.6350  1.1777  1.2986
13896TIP3   OH263102   1.736   0.099   4.803  0.0742 -0.4950 -0.3451
13896TIP3    H163103   1.825   0.133   4.801 -0.4700  0.9788 -1.7183
13896TIP3    H263104   1.728   0.046   4.724  0.6833 -3.4396  1.4118
13897TIP3   OH263105   2.802   0.860   1.228  0.2738 -0.5622 -0.1543
13897TIP3    H163106   2.730   0.889   1.173 -0.3347 -1.1149  0.3346
13897TIP3    H263107   2.760   0.826   1.307  1.0681 -0.8824  0.1444
13898TIP3   OH263108   0.697   5.626  14.444 -0.4749  0.0593 -0.7633
13898TIP3    H163109   0.610   5.650  14.474  0.2072 -0.3055  1.7126
13898TIP3    H263110   0.709   5.536  14.475  1.2478  0.5551  0.0977
13899TIP3   OH263111   6.093   5.263   3.136  0.1181  0.4802 -0.0981
13899TIP3    H163112   6.126   5.296   3.052  1.0947 -0.9887 -0.3322
13899TIP3    H263113   6.165   5.210   3.171 -0.2088  1.1902  1.7653
13900TIP3   OH263114   4.797   3.390   2.523 -0.2372 -0.2013 -0.3104
13900TIP3    H163115   4.730   3.430   2.468 -0.7182  0.7870  0.9398
13900TIP3    H263116   4.775   3.418   2.612  1.9497  0.3497  0.1359
13901TIP3   OH263117   2.839   0.977   2.735 -0.0788 -0.1584 -0.1898
13901TIP3    H163118   2.872   0.992   2.646  0.8924 -2.2901 -0.2492
13901TIP3    H263119   2.915   0.989   2.791 -0.0788 -1.2789  0.0768
13902TIP3   OH263120   2.564   1.208  11.952 -0.4035 -0.7006  0.1131
13902TIP3    H163121   2.567   1.251  12.037 -1.6793  0.2515 -0.2812
13902TIP3    H263122   2.640   1.241  11.905 -0.0777 -0.7013  0.6368
13903TIP3   OH263123   3.397   0.313  16.281 -0.0851  0.1859 -0.1756
13903TIP3    H163124   3.356   0.277  16.202  1.2764  0.4325 -1.0279
13903TIP3    H263125   3.472   0.256  16.298 -0.4349  0.0513  1.0481
13904TIP3   OH263126   0.760   6.691   2.559  0.1244 -0.1288  0.4473
13904TIP3    H163127   0.776   6.597   2.568 -1.8242 -0.6918 -1.4431
13904TIP3    H263128   0.666   6.699   2.546  0.5458  1.8359 -2.1353
13905TIP3   OH263129   5.356   3.609   3.418  0.2550 -0.4748 -0.0036
13905TIP3    H163130   5.363   3.704   3.408 -0.2876 -0.4552 -0.2306
13905TIP3    H263131   5.439   3.583   3.458  0.7532 -0.0193 -0.7251
13906TIP3   OH263132   0.207   2.073  16.083 -0.1019 -0.3581  0.1596
13906TIP3    H163133   0.264   2.113  16.018  0.0405  0.4723  0.7772
13906TIP3    H263134   0.123   2.117  16.072 -0.3562 -0.8914 -0.0933
13907TIP3   OH263135   4.978   5.070   0.319 -0.8484 -0.3030 -0.4464
13907TIP3    H163136   4.980   5.009   0.245 -1.1194 -0.3047 -0.4533
13907TIP3    H263137   5.022   5.022   0.390 -0.8177 -0.4008 -0.5302
13908TIP3   OH263138   6.284   5.335  11.210  0.3824 -0.2269  0.2699
13908TIP3    H163139   6.295   5.258  11.266 -1.2755  0.1685  1.2046
13908TIP3    H263140   6.227   5.305  11.139  2.9884 -0.9046 -1.6864
13909TIP3   OH263141   1.362   5.191   5.680 -0.2348 -0.0389 -0.1135
13909TIP3    H163142   1.348   5.109   5.633 -0.9413 -0.9179  1.5516
13909TIP3    H263143   1.430   5.171   5.745  1.2365  1.3376 -1.1251
13910TIP3   OH263144   2.058   2.522   5.492  0.2427 -0.1722  0.0761
13910TIP3    H163145   2.000   2.539   5.418  1.2740 -2.6228 -1.3961
13910TIP3    H263146   2.110   2.601   5.501 -0.3947  0.4338 -1.3488
13911TIP3   OH263147   1.482   5.040  15.102  0.2424  0.4811  0.0032
13911TIP3    H163148   1.475   5.133  15.127  1.6671  0.6649 -0.2025
13911TIP3    H263149   1.480   5.041  15.007 -0.8218  0.1871  0.0167
13912TIP3   OH263150   5.474   3.446  12.168 -0.4276  0.1382 -0.2977
13912TIP3    H163151   5.552   3.467  12.116  0.2790 -1.6282 -0.0090
13912TIP3    H263152   5.439   3.366  12.128 -1.5333  0.3519  0.1913
13913TIP3   OH263153   0.097   6.131   0.940 -0.2869  0.3089  0.0046
13913TIP3    H163154   0.153   6.059   0.968 -1.4134 -0.6749 -0.1959
13913TIP3    H263155   0.045   6.094   0.868  1.2927  2.2311 -2.2805
13914TIP3   OH263156   0.213   2.534   4.385 -0.0716 -0.2331  0.1629
13914TIP3    H163157   0.174   2.458   4.429  2.1131 -0.4625  1.8909
13914TIP3    H263158   0.171   2.609   4.425  1.1497 -0.4743  2.0178
13915TIP3   OH263159   6.252   6.534  12.443  0.9880  0.3325 -0.0424
13915TIP3    H163160   6.239   6.627  12.424  0.4078  0.3375  0.3696
13915TIP3    H263161   6.326   6.509  12.387  1.1059  1.0210 -0.2097
13916TIP3   OH263162   6.295   6.581  13.444 -0.0360 -0.7434 -0.2489
13916TIP3    H163163   6.386   6.612  13.442 -0.5257  1.1163  1.9440
13916TIP3    H263164   6.251   6.639  13.507 -2.9542 -1.0922 -1.7955
13917TIP3   OH263165   5.147   0.932  11.016  0.7379 -0.3375  0.3710
13917TIP3    H163166   5.198   0.889  11.084  0.4386 -1.4989 -0.1125
13917TIP3    H263167   5.075   0.975  11.062  0.9369 -0.5207  0.8534
13918TIP3   OH263168   0.172   4.272   1.940  0.1769 -0.0219  0.1061
13918TIP3    H163169   0.222   4.346   1.906  0.4673 -0.2691 -0.0140
13918TIP3    H263170   0.219   4.195   1.908 -0.8127 -0.2676 -0.7917
13919TIP3   OH263171   1.035   4.845  13.929  0.6138 -0.0314  0.9129
13919TIP3    H163172   0.975   4.899  13.980 -0.5720  1.0460 -1.4185
13919TIP3    H263173   1.000   4.756  13.936  0.8611 -0.0223  2.4437
13920TIP3   OH263174   6.583   5.004   0.249  0.9580 -0.0035  0.2115
13920TIP3    H163175   6.579   5.093   0.283  2.7250 -0.7179  2.5255
13920TIP3    H263176   6.535   5.008   0.166 -0.4865  2.6788  1.0557
13921TIP3   OH263177   2.353   2.652   2.173 -0.1441  0.6328  0.1447
13921TIP3    H163178   2.400   2.697   2.243  2.1987 -1.7332  0.2352
13921TIP3    H263179   2.391   2.687   2.092  0.4962  0.0449  0.1825
13922TIP3   OH263180   0.769   5.508  13.481  0.1305 -0.7697  0.4384
13922TIP3    H163181   0.686   5.510  13.527 -0.1237 -0.4210 -0.0222
13922TIP3    H263182   0.815   5.432  13.516 -1.1859 -2.1379 -0.6731
13923TIP3   OH263183   2.099   6.235  12.672  0.0713 -0.0130 -0.6525
13923TIP3    H163184   2.019   6.230  12.724  0.1202 -1.6726 -0.6845
13923TIP3    H263185   2.085   6.173  12.600  1.2859 -0.1710 -0.7740
13924TIP3   OH263186   1.164   5.490   4.408  0.3476  0.2350 -0.4346
13924TIP3    H163187   1.256   5.480   4.383 -0.0453 -1.3926 -1.3634
13924TIP3    H263188   1.120   5.414   4.369 -0.8837 -0.7394  2.5418
13925TIP3   OH263189   0.620   3.255  12.911  0.2056  0.6568 -0.5544
13925TIP3    H163190   0.573   3.335  12.934 -1.6328 -0.8201  1.2639
13925TIP3    H263191   0.695   3.254  12.971 -1.3079 -0.2507  1.4566
13926TIP3   OH263192   3.612   0.049   3.010  0.1351 -0.0663 -0.3466
13926TIP3    H163193   3.554  -0.027   2.999  0.2392 -0.0720 -0.9373
13926TIP3    H263194   3.590   0.106   2.936  0.1597  0.4135  0.0142
13927TIP3   OH263195   0.384   0.192   5.438 -0.6914 -0.2791  0.1403
13927TIP3    H163196   0.334   0.164   5.515 -0.2172  1.0152  0.9474
13927TIP3    H263197   0.361   0.284   5.427  0.1063 -0.1548 -0.5869
13928TIP3   OH263198   6.040   4.514  13.937 -0.0798 -1.0203  0.0955
13928TIP3    H163199   6.021   4.427  13.903  1.2042 -1.7952  1.2570
13928TIP3    H263200   6.024   4.506  14.031  1.5255 -0.4577  0.4376
13929TIP3   OH263201   4.475   3.389  11.898 -0.2554 -0.1906  0.4806
13929TIP3    H163202   4.390   3.426  11.874 -0.9158 -1.7707  0.2644
13929TIP3    H263203   4.485   3.409  11.991  0.5548  2.6082 -0.1045
13930TIP3   OH263204   3.997   5.111  13.293  0.3948 -0.0219 -0.7001
13930TIP3    H163205   3.978   5.020  13.313  0.1958  0.4112  1.4126
13930TIP3    H263206   3.912   5.149  13.271  0.0797  0.0953  0.5978
13931TIP3   OH263207   3.548   2.849   6.048  0.3856  0.3525  0.0925
13931TIP3    H163208   3.548   2.766   6.000  0.6483  0.8848 -0.8469
13931TIP3    H263209   3.486   2.835   6.119 -0.3673 -0.2916 -0.6718
13932TIP3   OH263210   1.821   0.119   1.192 -0.1310  0.4182 -0.1053
13932TIP3    H163211   1.768   0.095   1.268  0.7654  2.8371  1.3942
13932TIP3    H263212   1.911   0.098   1.217  0.0432 -0.0651 -1.0849
13933TIP3   OH263213   3.753   5.026  16.307  0.3928  0.4688  0.1786
13933TIP3    H163214   3.744   4.941  16.351  2.3609  0.5167  0.7671
13933TIP3    H263215   3.779   5.004  16.218  1.9319  0.4358  0.6141
13934TIP3   OH263216   6.190   2.733   3.349 -0.6559  0.1974  0.0568
13934TIP3    H163217   6.127   2.726   3.421 -2.0549 -0.9266 -1.1858
13934TIP3    H263218   6.186   2.647   3.306  0.4229  0.7047 -1.1216
13935TIP3   OH263219   3.699   4.159   0.746 -0.1132  0.1513  0.0270
13935TIP3    H163220   3.766   4.135   0.681 -0.0185 -1.0553  0.5575
13935TIP3    H263221   3.748   4.208   0.813  0.0592  0.1284 -0.0801
13936TIP3   OH263222   2.874   0.772   0.004 -0.1245  0.4209  0.0682
13936TIP3    H163223   2.845   0.838  -0.059 -0.2456  1.2977  1.0036
13936TIP3    H263224   2.930   0.713  -0.046 -1.3103  0.2821 -1.1593
13937TIP3   OH263225   1.217   5.875   4.434  0.3302  0.3675  0.5346
13937TIP3    H163226   1.279   5.939   4.398  1.0301 -1.4082 -1.6624
13937TIP3    H263227   1.271   5.798   4.452 -0.6912 -0.0418  1.9785
13938TIP3   OH263228   5.196   0.997   1.859 -0.2409 -0.1291  0.2963
13938TIP3    H163229   5.253   1.072   1.875 -1.4796  1.5242 -2.2558
13938TIP3    H263230   5.114   1.036   1.826 -0.6261 -2.5718 -1.9921
13939TIP3   OH263231   4.502   0.881  13.255 -1.0995  0.2018  0.4462
13939TIP3    H163232   4.488   0.907  13.346 -2.9236 -0.3434  0.3598
13939TIP3    H263233   4.414   0.864  13.221 -0.4698  0.4561 -1.4488
13940TIP3   OH263234   2.561   1.397   2.126 -0.0292  0.0541  0.3452
13940TIP3    H163235   2.568   1.471   2.065 -1.1638 -0.0628  0.0558
13940TIP3    H263236   2.467   1.388   2.142  0.1029 -1.2821  0.4418
13941TIP3   OH263237   0.357   2.518   2.826  0.4016  0.3663  0.0241
13941TIP3    H163238   0.437   2.547   2.782 -0.2001 -0.2712 -1.5739
13941TIP3    H263239   0.310   2.469   2.759 -2.0451  1.9857  0.4541
13942TIP3   OH263240   1.175   5.537   0.463  0.0608 -0.3340  0.4322
13942TIP3    H163241   1.265   5.517   0.490  0.3659  0.1932 -0.1501
13942TIP3    H263242   1.180   5.546   0.368 -0.0282  2.4109  0.6079
13943TIP3   OH263243   2.133   2.504  12.072 -0.4238 -0.0153  0.5689
13943TIP3    H163244   2.184   2.494  11.991  0.8474  1.5368  1.1145
13943TIP3    H263245   2.091   2.419  12.085  2.2148 -1.4832  0.1752
13944TIP3   OH263246   5.335   2.092   2.057 -0.0177 -0.5735  0.3920
13944TIP3    H163247   5.313   2.028   2.125  3.0060 -2.8628 -0.5723
13944TIP3    H263248   5.314   2.048   1.975 -2.6689  1.7703 -0.3285
13945TIP3   OH263249   4.366   5.949   0.867 -0.1032  0.2990 -0.1950
13945TIP3    H163250   4.381   5.949   0.962 -0.1045 -0.5400 -0.1838
13945TIP3    H263251   4.281   5.906   0.857  0.0014  0.1856 -0.5920
13946TIP3   OH263252   4.088   1.282   6.746 -0.1840  0.3365 -0.2350
13946TIP3    H163253   4.095   1.187   6.733  1.3484  0.4081 -0.0957
13946TIP3    H263254   4.178   1.314   6.742 -0.7116  1.8754 -0.8178
13947TIP3   OH263255   4.756   3.556   6.726  0.7918 -0.4732 -0.0270
13947TIP3    H163256   4.774   3.635   6.777  3.4028 -0.1844 -1.1964
13947TIP3    H263257   4.765   3.484   6.789  0.3566  0.0549  0.6494
13948TIP3   OH263258   3.119   1.374   2.612  0.6428  0.0579 -0.1969
13948TIP3    H163259   3.181   1.331   2.671  0.5409  1.6009  1.0919
13948TIP3    H263260   3.160   1.457   2.589 -0.2617  0.4120 -0.6028
13949TIP3   OH263261   0.699   6.290   5.014  0.0293 -0.4620  0.7502
13949TIP3    H163262   0.615   6.324   4.981 -0.1843  0.7422  2.4010
13949TIP3    H263263   0.703   6.201   4.981 -1.1610 -0.0369 -0.6800
13950TIP3   OH263264   0.799   0.779  15.218  0.2445  0.1900 -0.0406
13950TIP3    H163265   0.839   0.855  15.176  0.8952  0.6453  1.3297
13950TIP3    H263266   0.836   0.779  15.307  0.6249 -2.0053 -0.1442
13951TIP3   OH263267   6.290   3.082  13.043  0.2667  0.7841 -0.1846
13951TIP3    H163268   6.247   3.100  12.960 -0.2013  0.7349  0.0465
13951TIP3    H263269   6.366   3.030  13.019 -0.2545  0.1643 -0.5143
13952TIP3   OH263270   0.417   1.918  11.915 -0.1085 -0.4723  0.5862
13952TIP3    H163271   0.347   1.896  11.977  1.2078 -0.7830  2.0216
13952TIP3    H263272   0.472   1.981  11.962 -0.1053  0.7830 -0.9995
13953TIP3   OH263273   6.604   3.636  15.427 -0.9434  0.4185 -0.7509
13953TIP3    H163274   6.587   3.546  15.454 -1.8528  0.8102  0.0561
13953TIP3    H263275   6.692   3.634  15.390 -0.9828 -0.8099 -0.8090
13954TIP3   OH263276   4.406   2.291  16.546  0.6449  0.4679 -0.3546
13954TIP3    H163277   4.330   2.318  16.495  0.8158 -1.9615 -2.0856
13954TIP3    H263278   4.376   2.291  16.637 -1.2907  0.0550 -0.9581
13955TIP3   OH263279   2.029   5.159  12.661 -0.3721 -0.2921  0.2364
13955TIP3    H163280   1.998   5.079  12.619  2.1653 -1.0035 -0.4824
13955TIP3    H263281   2.042   5.134  12.753  1.1838 -1.0315 -0.1415
13956TIP3   OH263282   0.999   4.185  14.703  0.4364  0.0606 -0.3469
13956TIP3    H163283   0.924   4.187  14.762 -0.4137  1.6251 -1.4209
13956TIP3    H263284   1.013   4.276  14.678  1.0595 -0.4902 -2.1723
13957TIP3   OH263285   2.089   5.534  12.312  0.8961 -0.2843  0.1178
13957TIP3    H163286   2.027   5.481  12.362 -1.8133  1.2154 -1.4130
13957TIP3    H263287   2.156   5.472  12.284 -0.9074 -2.4450  0.2768
13958TIP3   OH263288   4.984   5.084   4.065 -0.6063 -0.5568 -0.1639
13958TIP3    H163289   4.994   5.019   4.135 -0.9801 -0.9170 -0.4376
13958TIP3    H263290   5.065   5.077   4.015  0.2936  0.7058  1.0377
13959TIP3   OH263291   4.688   5.049   0.410  0.3256 -0.0034  0.3566
13959TIP3    H163292   4.669   5.001   0.329 -1.4096  0.6213  0.3328
13959TIP3    H263293   4.758   5.110   0.386  0.1131 -0.1047 -0.5768
13960TIP3   OH263294   4.309   6.478   3.681 -0.8498 -0.8907  0.1931
13960TIP3    H163295   4.300   6.568   3.651  0.2302 -1.1751 -1.0508
13960TIP3    H263296   4.302   6.484   3.777  0.9938  0.7832  0.2954
13961TIP3   OH263297   4.001   3.438  16.659 -0.4430 -0.0041 -0.5048
13961TIP3    H163298   4.020   3.400  16.574  0.9150 -0.9477  0.1817
13961TIP3    H263299   4.010   3.533  16.645 -0.1055 -0.1537 -1.3707
13962TIP3   OH263300   2.097   4.128  15.593 -0.1740  0.2775 -0.1528
13962TIP3    H163301   2.149   4.178  15.529 -1.2942  1.3591 -0.2692
13962TIP3    H263302   2.146   4.137  15.675  0.4403  0.2538 -0.5055
13963TIP3   OH263303   3.508   5.863  13.465  0.2672 -0.1463 -0.1064
13963TIP3    H163304   3.433   5.824  13.508  0.0704  0.3423  0.0037
13963TIP3    H263305   3.548   5.918  13.533 -2.0291  3.4383 -1.3683
13964TIP3   OH263306   4.750   2.313  12.045  0.0128 -0.2880 -0.3507
13964TIP3    H163307   4.728   2.358  12.126  0.9996 -2.3266  1.1614
13964TIP3    H263308   4.790   2.380  11.989 -1.5411  1.3627  0.4354
13965TIP3   OH263309   5.899   5.115  14.320 -0.0879  0.2332 -0.2893
13965TIP3    H163310   5.823   5.162  14.353 -0.5146 -0.7558  0.1672
13965TIP3    H263311   5.922   5.054  14.389  1.3100  0.6999 -0.3037
13966TIP3   OH263312   0.862   4.809   3.597  0.2677  0.1796 -0.6940
13966TIP3    H163313   0.842   4.758   3.675 -0.4655  2.9407  1.0708
13966TIP3    H263314   0.897   4.891   3.631  2.4561  0.4985 -3.3905
13967TIP3   OH263315   0.839   0.674   4.572  0.6342  0.3848  0.3759
13967TIP3    H163316   0.807   0.593   4.530 -0.7701  0.5455  1.0685
13967TIP3    H263317   0.912   0.645   4.627  0.6265 -0.2938  0.0394
13968TIP3   OH263318   6.085   5.598   3.118  0.5414 -0.2183 -0.5990
13968TIP3    H163319   6.139   5.523   3.143 -1.8672 -1.4225  1.4916
13968TIP3    H263320   6.134   5.675   3.146  2.5339 -1.0103 -1.7065
13969TIP3   OH263321   4.645   5.631  12.835  0.5904 -0.7107 -0.6089
13969TIP3    H163322   4.720   5.660  12.781  0.2410  0.2687 -0.5953
13969TIP3    H263323   4.622   5.709  12.886 -0.6587 -0.8886 -0.8727
13970TIP3   OH263324   2.360   5.465  15.433  0.7578 -0.1308  0.1858
13970TIP3    H163325   2.360   5.493  15.341 -1.0988 -0.4776  0.0309
13970TIP3    H263326   2.452   5.462  15.458  1.3065 -0.1726 -1.7159
13971TIP3   OH263327   2.523   5.430   2.104  0.2449 -0.7820 -0.4418
13971TIP3    H163328   2.553   5.411   2.192 -1.4995 -1.4080  0.0574
13971TIP3    H263329   2.462   5.359   2.083 -3.0841  1.7692 -0.2529
13972TIP3   OH263330   4.760   3.044   4.528  0.1547  0.5732  0.4472
13972TIP3    H163331   4.793   2.969   4.578 -1.1307 -0.1406  0.2565
13972TIP3    H263332   4.693   3.083   4.584 -3.0365 -1.6286 -1.4742
13973TIP3   OH263333   3.768   4.723   3.562 -1.1075  0.2016  0.2817
13973TIP3    H163334   3.816   4.716   3.644 -0.3486  0.4731 -0.1288
13973TIP3    H263335   3.801   4.803   3.522 -0.1261 -0.8684 -1.1415
13974TIP3   OH263336   4.266   3.161   2.568 -0.1502  0.0601  0.1759
13974TIP3    H163337   4.350   3.128   2.536 -0.8054 -0.4407 -1.1514
13974TIP3    H263338   4.217   3.181   2.488 -1.5029 -0.2218  0.9091
13975TIP3   OH263339   4.102   5.632   5.178 -0.2369  0.5574  0.4495
13975TIP3    H163340   4.094   5.663   5.087 -2.5812  0.8270  0.6730
13975TIP3    H263341   4.145   5.704   5.223 -0.5510  1.1369 -0.1466
13976TIP3   OH263342   5.293   5.520  16.321  0.4907 -0.0477  0.3510
13976TIP3    H163343   5.217   5.560  16.279  0.7624 -0.0027 -0.1041
13976TIP3    H263344   5.257   5.475  16.398 -0.0394 -0.2784 -0.0216
13977TIP3   OH263345   5.585   3.955   4.335 -0.1338 -0.5355  0.1820
13977TIP3    H163346   5.594   3.908   4.418 -1.2938  0.0658  0.6649
13977TIP3    H263347   5.536   3.895   4.279 -0.7777 -0.2979  0.4814
13978TIP3   OH263348   0.538   5.167  13.275 -0.0944  0.0341  0.0703
13978TIP3    H163349   0.615   5.114  13.256  0.4848  0.7473  0.3945
13978TIP3    H263350   0.526   5.223  13.198 -1.0577 -0.9426 -0.5303
13979TIP3   OH263351   0.831   4.005  13.237 -0.0631 -0.0654 -0.0246
13979TIP3    H163352   0.741   4.037  13.234 -0.2984 -0.5153  1.4925
13979TIP3    H263353   0.884   4.085  13.233 -0.6054  0.4164  1.4939
13980TIP3   OH263354   6.704   3.194  14.655 -0.1081  0.5053 -0.2290
13980TIP3    H163355   6.786   3.243  14.647 -1.1650  2.2825 -0.7170
13980TIP3    H263356   6.732   3.107  14.682  1.8126  1.5604  1.5223
13981TIP3   OH263357   5.986   0.678  15.208  0.1895  0.5144 -0.0866
13981TIP3    H163358   6.061   0.738  15.208  1.4901 -1.0104  1.7520
13981TIP3    H263359   5.962   0.669  15.116  0.4551  3.1710 -0.4978
13982TIP3   OH263360   6.563   5.557   1.101  1.0360  0.2447 -0.2034
13982TIP3    H163361   6.644   5.606   1.112  0.4892  0.7996  1.7540
13982TIP3    H263362   6.512   5.610   1.039  1.1374  1.2732  0.5665
13983TIP3   OH263363   2.393   5.073   3.182  0.6596  0.6125 -0.1505
13983TIP3    H163364   2.368   5.139   3.117 -0.0573 -1.1843 -1.7802
13983TIP3    H263365   2.313   5.024   3.200  1.1985  0.0823  0.9317
13984TIP3   OH263366   5.204   3.381  15.151 -0.2471 -0.3087  0.6186
13984TIP3    H163367   5.289   3.402  15.111 -1.4103  1.7184 -1.0618
13984TIP3    H263368   5.222   3.373  15.244  1.5606  2.0182  0.5744
13985TIP3   OH263369   2.966   6.492  12.130  0.2101  0.0545 -0.0142
13985TIP3    H163370   3.005   6.437  12.198  1.5815  2.7103  1.4914
13985TIP3    H263371   2.893   6.536  12.173 -0.5790 -0.1722 -1.0617
13986TIP3   OH263372   4.938   0.344  11.056  0.3527  0.3621  0.2570
13986TIP3    H163373   4.998   0.269  11.050  1.0276  0.7809  1.4227
13986TIP3    H263374   4.954   0.380  11.143 -0.3687  1.5314 -0.0757
13987TIP3   OH263375   1.400   0.901  11.792 -0.4360 -0.2024 -0.3334
13987TIP3    H163376   1.395   0.870  11.701 -2.2824  3.6421 -1.7761
13987TIP3    H263377   1.308   0.905  11.821 -0.2068  2.0804  0.2699
13988TIP3   OH263378   5.858   4.634  12.819  0.3499  0.2388  0.3327
13988TIP3    H163379   5.937   4.675  12.785 -0.3121  0.7835 -0.6099
13988TIP3    H263380   5.889   4.555  12.863  1.4759  0.8107  0.6006
13989TIP3   OH263381   4.424   0.725  11.654 -0.2446  0.0428 -0.0771
13989TIP3    H163382   4.501   0.677  11.685  0.3585  2.3067  2.3245
13989TIP3    H263383   4.349   0.676  11.689  0.1842 -1.0048 -0.6009
13990TIP3   OH263384   2.714   1.666  11.148 -0.5239  0.0829  0.0139
13990TIP3    H163385   2.716   1.573  11.171 -0.1898  0.0430 -0.1781
13990TIP3    H263386   2.761   1.671  11.065 -2.2602  0.1176 -1.0247
13991TIP3   OH263387   6.689   3.943  10.837 -0.0886  0.0518 -0.0173
13991TIP3    H163388   6.672   3.986  10.753 -0.6013  0.3007  0.2096
13991TIP3    H263389   6.605   3.904  10.862 -0.0415  0.3023  0.5572
13992TIP3   OH263390   4.457   5.442  15.125 -0.1156 -0.5322 -0.4345
13992TIP3    H163391   4.452   5.528  15.083  0.8925 -0.6264 -0.7597
13992TIP3    H263392   4.516   5.455  15.199  1.3401 -1.3039 -1.4276
13993TIP3   OH263393   2.811   4.536  11.064 -0.2695  0.6871 -0.7009
13993TIP3    H163394   2.827   4.444  11.043 -0.3409  0.2640  1.0132
13993TIP3    H263395   2.748   4.565  10.998  0.1837 -0.3201 -1.6022
13994TIP3   OH263396   5.636   2.767  12.163 -0.2200 -0.4619  0.3194
13994TIP3    H163397   5.555   2.806  12.196  0.7222  0.8536  1.1566
13994TIP3    H263398   5.652   2.810  12.079 -0.6348 -1.0741 -0.0776
13995TIP3   OH263399   5.486   0.220   0.419  0.1642 -0.2920 -0.4109
13995TIP3    H163400   5.394   0.248   0.422 -0.2923 -1.5750 -1.4210
13995TIP3    H263401   5.530   0.288   0.369  0.0201  0.9219  1.0395
13996TIP3   OH263402   5.711   5.945   6.548  0.5434 -0.0577 -0.2658
13996TIP3    H163403   5.734   6.034   6.575 -0.5272 -0.4921  2.3706
13996TIP3    H263404   5.633   5.957   6.493 -0.5884  0.6123  1.3936
13997TIP3   OH263405   1.836   5.909  11.692  0.1521  0.3727  0.0044
13997TIP3    H163406   1.885   5.831  11.665  1.1852  1.4198 -1.2776
13997TIP3    H263407   1.859   5.921  11.784 -0.9531 -1.4780  0.5802
13998TIP3   OH263408   6.370   3.037   2.046  0.1762  0.2044 -0.7196
13998TIP3    H163409   6.320   2.957   2.029 -1.7900  1.1979  0.1136
13998TIP3    H263410   6.369   3.084   1.963  0.0791  0.0432 -0.8109
13999TIP3   OH263411   1.957   0.325  14.086  0.3968  0.7308 -0.0360
13999TIP3    H163412   2.015   0.390  14.126  1.5737  0.5555 -1.3428
13999TIP3    H263413   1.992   0.241  14.115 -1.2154  0.6401  1.7712
14000TIP3   OH263414   2.115   5.451   5.396 -0.4228 -0.4246  0.3993
14000TIP3    H163415   2.122   5.460   5.301  2.1257  1.6123  0.6594
14000TIP3    H263416   2.077   5.534   5.425  1.0018 -0.0522  1.2887
14001TIP3   OH263417   5.554   5.879  11.711 -0.7984  0.3460 -0.5352
14001TIP3    H163418   5.586   5.872  11.801 -2.2109  0.0560 -0.0277
14001TIP3    H263419   5.554   5.973  11.693  1.7048  0.2961 -1.1043
14002TIP3   OH263420   4.997   0.451   6.121 -0.2580  0.9098  0.0925
14002TIP3    H163421   4.912   0.426   6.158  0.2446  1.1514  1.4959
14002TIP3    H263422   5.050   0.473   6.198  0.8971  1.3078 -0.7984
14003TIP3   OH263423   1.437   3.295   6.651 -0.1747  0.1627 -0.0120
14003TIP3    H163424   1.372   3.319   6.584  0.0105 -1.9045 -1.0318
14003TIP3    H263425   1.463   3.206   6.627 -0.3703 -0.8099  3.0734
14004TIP3   OH263426   4.214   2.057  17.178 -0.1625  0.2071  0.3927
14004TIP3    H163427   4.304   2.071  17.148 -0.2707  0.6526  0.2632
14004TIP3    H263428   4.181   1.986  17.123  0.1676 -0.0797  0.5614
14005TIP3   OH263429   3.060   0.232   5.455  0.9240  0.2870 -0.2055
14005TIP3    H163430   2.992   0.212   5.519 -1.1250  0.0673 -2.3391
14005TIP3    H263431   3.055   0.327   5.444 -1.0924  0.0159 -2.3909
14006TIP3   OH263432   0.192   3.711  12.623 -0.0081 -0.1433 -0.2051
14006TIP3    H163433   0.119   3.720  12.562  0.2701  1.0527 -0.3862
14006TIP3    H263434   0.267   3.749  12.577  0.9438 -2.0607 -0.3430
14007TIP3   OH263435   2.863   1.979  15.503 -0.1796  0.1241  0.3582
14007TIP3    H163436   2.956   1.987  15.525  0.2823  2.7366 -2.0054
14007TIP3    H263437   2.817   2.014  15.579  0.6692 -1.5863  1.7331
14008TIP3   OH263438   1.681   4.597  12.834  0.3468 -0.0376 -0.4785
14008TIP3    H163439   1.636   4.518  12.866  1.1961 -0.2270  0.3096
14008TIP3    H263440   1.615   4.642  12.782 -0.5180 -0.6926  0.0003
14009TIP3   OH263441   2.884   4.306   5.445 -0.0616  0.4942  0.8947
14009TIP3    H163442   2.901   4.346   5.530 -0.6631  1.2252  0.6839
14009TIP3    H263443   2.929   4.362   5.382  0.2211  0.0643  0.7095
14010TIP3   OH263444   2.187   0.491  12.787  0.2059 -0.0892 -0.2284
14010TIP3    H163445   2.251   0.458  12.724 -2.7241  0.7389 -4.0378
14010TIP3    H263446   2.222   0.574  12.818  1.5048 -0.2535 -1.2259
14011TIP3   OH263447   0.744   1.750  14.172 -0.0586  0.6515  0.5731
14011TIP3    H163448   0.658   1.791  14.163 -0.3564 -0.0216  0.2981
14011TIP3    H263449   0.784   1.794  14.247 -1.0929  0.2173  1.4114
14012TIP3   OH263450   3.706   4.357  12.608 -0.0270  0.0342  0.0020
14012TIP3    H163451   3.800   4.369  12.624  0.0808 -0.8075  0.0552
14012TIP3    H263452   3.697   4.264  12.589 -0.9263  0.0103  0.4917
14013TIP3   OH263453   2.456   4.067   5.957  0.2004 -0.4358  0.1316
14013TIP3    H163454   2.403   4.045   5.881  1.1728  1.5753 -1.2132
14013TIP3    H263455   2.525   4.001   5.959  0.8313  0.1196 -1.4768
14014TIP3   OH263456   4.000   1.267  13.537  0.3495  0.0898 -0.0120
14014TIP3    H163457   4.024   1.345  13.588 -1.5569  0.1958  0.8132
14014TIP3    H263458   4.081   1.242  13.492  1.8891  0.5964  2.2893
14015TIP3   OH263459   5.696   2.899  11.131  0.6924 -0.1030 -0.4872
14015TIP3    H163460   5.615   2.867  11.091  0.3219  0.3599 -0.1026
14015TIP3    H263461   5.701   2.991  11.105  0.4533  0.2033  0.5093
14016TIP3   OH263462   2.259   3.559   1.531 -0.6294  0.0675 -0.9389
14016TIP3    H163463   2.182   3.548   1.475 -0.0888  1.5393 -2.0266
14016TIP3    H263464   2.332   3.567   1.470  0.1698  0.4289  0.0342
14017TIP3   OH263465   4.768   0.802  14.071 -0.2883 -0.8798  0.3990
14017TIP3    H163466   4.844   0.749  14.052  0.5653  0.3572  0.2184
14017TIP3    H263467   4.727   0.817  13.985 -0.6655 -1.4224  0.4785
14018TIP3   OH263468   5.787   2.486   4.768  0.2365 -0.0550 -0.4108
14018TIP3    H163469   5.760   2.556   4.828 -0.0454 -2.0801  1.9761
14018TIP3    H263470   5.882   2.498   4.759  0.1517  0.7859 -0.2593
14019TIP3   OH263471   6.161   4.116   4.589  0.4851 -0.1243  0.0368
14019TIP3    H163472   6.074   4.127   4.627 -1.3780 -0.7209 -3.6469
14019TIP3    H263473   6.178   4.199   4.543  0.9950 -0.7071 -0.8550
14020TIP3   OH263474   0.257   3.309   2.276 -0.1207 -0.1861  0.7831
14020TIP3    H163475   0.220   3.222   2.293 -0.7758  0.2291  1.4935
14020TIP3    H263476   0.196   3.370   2.317 -0.0076  0.6581 -0.2656
14021TIP3   OH263477   1.351   2.182   1.959  0.3486 -0.0550 -0.1323
14021TIP3    H163478   1.325   2.126   1.886  0.3180 -1.5468  0.9725
14021TIP3    H263479   1.337   2.127   2.037  1.4999  1.0661  0.9031
14022TIP3   OH263480   5.471   3.994   0.359  0.0998  0.4668 -0.1324
14022TIP3    H163481   5.397   4.051   0.379  1.0312  1.6233  0.0821
14022TIP3    H263482   5.440   3.939   0.287 -0.6419  1.6064 -0.7117
14023TIP3   OH263483   1.592   6.571  10.943 -0.0529  0.6850  0.4087
14023TIP3    H163484   1.541   6.651  10.958  1.2997  1.7776 -0.5170
14023TIP3    H263485   1.575   6.549  10.851 -0.0579  0.1671  0.5316
14024TIP3   OH263486   6.380   4.034  16.621 -0.1690 -0.0370 -0.1828
14024TIP3    H163487   6.429   4.098  16.672  0.1416  1.2131 -1.9606
14024TIP3    H263488   6.293   4.033  16.660  0.4204 -0.1694  1.2122
14025TIP3   OH263489   2.140   6.533  14.182 -0.0738 -0.9462 -0.0806
14025TIP3    H163490   2.079   6.530  14.108  0.1024 -1.2156 -0.2161
14025TIP3    H263491   2.095   6.488  14.253 -0.5896  0.0393  0.2400
14026TIP3   OH263492   1.048   1.851  11.551 -0.5031  0.2082 -0.3817
14026TIP3    H163493   1.005   1.932  11.579 -0.8539 -0.7506  2.1537
14026TIP3    H263494   1.138   1.877  11.530 -1.2840  1.6345 -2.1810
14027TIP3   OH263495   4.743   5.349  13.113 -0.4487 -0.6316  0.2135
14027TIP3    H163496   4.760   5.290  13.186 -1.8555 -1.9436 -0.4521
14027TIP3    H263497   4.725   5.291  13.039 -0.4230  0.6535 -0.8313
14028TIP3   OH263498   3.036   6.470   5.888  0.6230  0.4810 -0.1153
14028TIP3    H163499   3.086   6.550   5.900  2.2928 -0.5267 -0.0080
14028TIP3    H263500   3.064   6.413   5.960 -1.5044  0.2430  0.5985
14029TIP3   OH263501   1.788   6.683  13.186  0.0426 -0.0799 -0.3089
14029TIP3    H163502   1.863   6.676  13.127  0.1044  0.2072 -0.2691
14029TIP3    H263503   1.754   6.772  13.171 -1.1771 -0.6941 -1.3910
14030TIP3   OH263504   5.200   0.563  13.669  0.6829 -0.1925  0.3810
14030TIP3    H163505   5.110   0.545  13.642  0.6576  0.3205  0.1179
14030TIP3    H263506   5.192   0.597  13.758  0.6514 -0.5192  0.5054
14031TIP3   OH263507   0.091   5.777   6.268  0.1738  0.3962  0.1677
14031TIP3    H163508   0.127   5.716   6.204 -1.6876  0.8260 -1.3495
14031TIP3    H263509   0.022   5.728   6.313  1.0218  0.3090  1.4455
14032TIP3   OH263510   1.456   2.538   1.636 -0.4687 -0.0641 -0.2942
14032TIP3    H163511   1.496   2.585   1.709 -0.5871 -1.1136  0.4696
14032TIP3    H263512   1.502   2.570   1.559 -0.8755  1.6564  0.1347
14033TIP3   OH263513   6.494   1.212  14.457  0.2298 -0.4374  0.2863
14033TIP3    H163514   6.427   1.264  14.414  0.1237 -0.1903  0.7429
14033TIP3    H263515   6.487   1.236  14.550  0.5788 -0.8179  0.4139
14034TIP3   OH263516   2.899   5.434   3.882  0.3544  0.1203 -0.2100
14034TIP3    H163517   2.817   5.385   3.891  0.0644  0.9164  2.0374
14034TIP3    H263518   2.934   5.406   3.797 -2.3203 -0.0714 -1.3531
14035TIP3   OH263519   5.950   6.390  11.709  0.5156  0.3912  0.1169
14035TIP3    H163520   6.012   6.371  11.639 -0.3811 -1.2441 -0.2727
14035TIP3    H263521   5.975   6.478  11.739  2.6865  0.0041 -0.3429
14036TIP3   OH263522   1.934   3.973   4.095  0.7599 -0.5098 -0.0870
14036TIP3    H163523   1.909   3.953   4.005 -1.3772  0.9107  0.1173
14036TIP3    H263524   1.903   3.898   4.146  0.9447 -0.7913 -0.3889
14037TIP3   OH263525   4.942   6.553   6.352 -0.3624 -0.3665 -0.1562
14037TIP3    H163526   5.028   6.512   6.343  0.0273  0.1973  0.7826
14037TIP3    H263527   4.941   6.621   6.284 -0.4012 -0.9145 -0.7086
14038TIP3   OH263528   6.436   2.547   3.021  0.4826 -0.0475 -0.4815
14038TIP3    H163529   6.483   2.616   2.975  1.2944 -0.6871 -0.6448
14038TIP3    H263530   6.389   2.500   2.951  0.3650  0.0053 -0.4387
14039TIP3   OH263531   0.031   1.663   1.768  0.6159 -0.4261 -0.4156
14039TIP3    H163532   0.071   1.693   1.850  0.5589 -0.0275 -0.5315
14039TIP3    H263533   0.100   1.673   1.702  0.6872 -0.8228 -0.4054
14040TIP3   OH263534   5.815   6.464   5.568  0.2545 -0.6915  0.7229
14040TIP3    H163535   5.733   6.468   5.618 -1.4509 -1.1742 -1.8078
14040TIP3    H263536   5.825   6.552   5.533  0.7501 -0.6738  0.9108
14041TIP3   OH263537   2.299   6.450   0.451 -0.0958 -0.2654 -0.3860
14041TIP3    H163538   2.391   6.423   0.455  0.1140  0.3412 -0.9052
14041TIP3    H263539   2.279   6.479   0.540  0.6576  0.9779 -0.6006
14042TIP3   OH263540   0.714   0.096  15.808 -0.1277 -0.3891  0.0787
14042TIP3    H163541   0.674   0.144  15.735 -1.6389 -1.0246  0.4550
14042TIP3    H263542   0.738   0.011  15.770 -2.4388 -1.3584  0.6600
14043TIP3   OH263543   5.352   3.181  15.578  0.1221  0.0519  0.4333
14043TIP3    H163544   5.270   3.143  15.545 -0.7370  1.7698  0.4554
14043TIP3    H263545   5.383   3.118  15.643 -2.1428  0.1644  1.7208
14044TIP3   OH263546   5.724   3.704   3.223  0.4101 -0.2001  0.2814
14044TIP3    H163547   5.713   3.641   3.294  1.9900 -0.0876  0.6740
14044TIP3    H263548   5.733   3.789   3.267 -0.0005  0.0740 -0.1461
14045TIP3   OH263549   6.646   6.516   1.266 -0.4896 -0.5322  0.2566
14045TIP3    H163550   6.647   6.496   1.360  1.6394  1.4038  0.7403
14045TIP3    H263551   6.696   6.445   1.226  0.8048 -0.0606  0.9700
14046TIP3   OH263552   4.023   2.125   5.420 -0.2693  0.2289  0.0014
14046TIP3    H163553   3.989   2.213   5.402 -1.9473  0.0622  1.9956
14046TIP3    H263554   4.100   2.118   5.364 -1.4602  2.0180 -2.0710
14047TIP3   OH263555   4.832   4.445   2.980 -0.0680 -0.0933 -0.3582
14047TIP3    H163556   4.786   4.526   3.000  1.7005  1.0457 -0.7233
14047TIP3    H263557   4.763   4.385   2.949 -1.9508  0.1508  2.8713
14048TIP3   OH263558   2.369   4.974   4.871  0.1441  0.0710  0.8504
14048TIP3    H163559   2.459   4.942   4.870 -0.0797 -0.5859 -0.1616
14048TIP3    H263560   2.356   5.014   4.785 -0.3639  0.6576  1.1885
14049TIP3   OH263561   4.677   5.460  14.854  0.2892  0.3651 -0.1209
14049TIP3    H163562   4.699   5.372  14.886 -0.4448  0.8602  1.8363
14049TIP3    H263563   4.704   5.519  14.924  0.2168  1.6672 -1.1596
14050TIP3   OH263564   2.571   4.999  14.791  0.0581 -0.0950 -0.1269
14050TIP3    H163565   2.530   4.983  14.707 -0.5863 -1.4750  0.4163
14050TIP3    H263566   2.665   4.999  14.772 -0.1159  1.9888 -1.1930
14051TIP3   OH263567   3.357   1.615  12.458  0.5044  0.4894  0.1695
14051TIP3    H163568   3.401   1.661  12.530  2.6389 -0.1889 -0.6186
14051TIP3    H263569   3.428   1.571  12.412 -1.2319 -2.0799 -0.2173
14052TIP3   OH263570   0.218   2.161  11.428  0.1557  0.1905  0.4696
14052TIP3    H163571   0.153   2.202  11.371 -0.7546 -1.0969  0.5231
14052TIP3    H263572   0.290   2.136  11.370 -0.4478 -0.4673 -0.0158
14053TIP3   OH263573   1.830   5.766  16.198 -0.1382  0.5300 -0.0907
14053TIP3    H163574   1.896   5.697  16.185 -0.7380 -0.3956  1.4218
14053TIP3    H263575   1.876   5.847  16.179  0.6836 -0.2557 -1.6378
14054TIP3   OH263576   1.788   1.058   1.263 -0.2319 -0.0672 -0.0519
14054TIP3    H163577   1.716   0.996   1.265 -0.4602  0.1953  1.1378
14054TIP3    H263578   1.767   1.119   1.193 -0.3778 -0.8836 -0.7335
14055TIP3   OH263579   1.056   3.026  12.044  0.2086  0.1375 -0.1136
14055TIP3    H163580   1.027   3.060  12.128  0.6031  1.2782 -0.4055
14055TIP3    H263581   0.976   3.013  11.994 -0.0383 -0.7436  0.5051
14056TIP3   OH263582   3.907   1.682  16.606  0.3470  0.1610 -0.2968
14056TIP3    H163583   3.908   1.664  16.512 -0.8235  0.6773 -0.4169
14056TIP3    H263584   3.827   1.641  16.638  0.8643 -0.2348  0.5314
14057TIP3   OH263585   6.083   1.266   5.058 -0.0755  0.1056  0.0214
14057TIP3    H163586   6.031   1.215   4.997 -0.4615 -0.4275  0.7825
14057TIP3    H263587   6.020   1.303   5.120  0.4432 -0.6842  1.0522
14058TIP3   OH263588   5.664   6.413  17.008 -0.5251  0.5342 -0.6046
14058TIP3    H163589   5.671   6.368  17.093  0.6069  0.4433 -0.7359
14058TIP3    H263590   5.677   6.505  17.029  1.1288  0.3868 -0.8176
14059TIP3   OH263591   5.170   1.570   3.863  0.7003  0.3756  0.0102
14059TIP3    H163592   5.108   1.640   3.886  0.1899 -0.0430 -0.0711
14059TIP3    H263593   5.224   1.560   3.941 -0.7439 -0.7528  0.9286
14060TIP3   OH263594   0.874   0.367   4.175 -0.0565  0.1511 -0.3984
14060TIP3    H163595   0.844   0.277   4.163 -0.3094 -0.0329  1.3315
14060TIP3    H263596   0.794   0.420   4.166 -0.0438  0.1334 -0.6251
14061TIP3   OH263597   0.299   0.315  13.117 -0.2395 -0.1777  0.3623
14061TIP3    H163598   0.293   0.228  13.158 -1.8179 -0.8451 -1.1784
14061TIP3    H263599   0.364   0.304  13.048 -0.5406 -0.1869  0.0770
14062TIP3   OH263600   1.371   4.630  14.740 -0.1046 -0.2840 -0.9607
14062TIP3    H163601   1.440   4.601  14.680  0.4989 -2.3820  0.6342
14062TIP3    H263602   1.326   4.550  14.767 -0.2344  0.5216  1.4914
14063TIP3   OH263603   6.678   1.575   5.671 -0.1342 -0.0601 -0.0326
14063TIP3    H163604   6.720   1.660   5.662  0.4314 -0.3158  0.1125
14063TIP3    H263605   6.690   1.534   5.585  0.1336 -0.2293  0.0839
14064TIP3   OH263606   5.063   3.120   5.661  0.2381  0.5399 -0.0752
14064TIP3    H163607   4.999   3.050   5.678 -0.1720  0.2397 -2.4021
14064TIP3    H263608   5.031   3.195   5.711 -0.9148 -0.1484  0.2596
14065TIP3   OH263609   6.489   5.960  12.086  0.0222 -0.3650  0.4293
14065TIP3    H163610   6.546   5.998  12.019  1.9025 -2.1394  0.9065
14065TIP3    H263611   6.546   5.900  12.133 -2.2221 -2.0651  1.1122
14066TIP3   OH263612   0.658   2.979   0.959 -0.2821 -0.3424  0.2740
14066TIP3    H163613   0.595   3.044   0.928 -0.0215 -1.5050 -3.1266
14066TIP3    H263614   0.739   3.029   0.973 -0.5293  0.3665 -0.7024
14067TIP3   OH263615   3.941   4.245  13.007  0.3952 -0.2568  0.2210
14067TIP3    H163616   3.912   4.289  12.927  0.1126  2.1837  1.5728
14067TIP3    H263617   3.862   4.208  13.044  0.0061  1.0744  0.7752
14068TIP3   OH263618   6.597   5.504  16.046 -0.1604 -0.7106 -0.1407
14068TIP3    H163619   6.682   5.530  16.012  0.7365 -2.0021  0.9652
14068TIP3    H263620   6.611   5.494  16.140 -1.2129 -2.0956 -0.0906
14069TIP3   OH263621   4.731   1.596   6.223  0.5777  0.7188  0.4989
14069TIP3    H163622   4.679   1.671   6.252 -1.1113 -0.0826 -0.3090
14069TIP3    H263623   4.682   1.520   6.254  1.9966 -0.0694  0.8584
14070TIP3   OH263624   5.801   4.188   0.998  0.0707 -0.3381  0.0492
14070TIP3    H163625   5.826   4.144   1.079  0.7463  0.5055  0.3098
14070TIP3    H263626   5.803   4.119   0.931  0.5908 -0.8069  0.5433
14071TIP3   OH263627   5.088   5.585  12.854  0.0701  0.2761  0.1981
14071TIP3    H163628   5.148   5.646  12.897  0.5578 -0.1031  0.0626
14071TIP3    H263629   5.005   5.597  12.900  0.1656  1.0149  0.1984
14072TIP3   OH263630   4.776   6.523  15.264  0.3236 -0.3917 -0.1828
14072TIP3    H163631   4.799   6.472  15.341 -1.2634 -1.3788 -0.3076
14072TIP3    H263632   4.780   6.461  15.192  0.1550  0.1027 -0.6251
14073TIP3   OH263633   6.331   6.747  12.714  0.4419  0.1863 -0.4679
14073TIP3    H163634   6.335   6.660  12.755  0.9682  0.1901 -0.5050
14073TIP3    H263635   6.376   6.736  12.630 -0.2455  0.2872 -0.8557
14074TIP3   OH263636   0.165   6.756   5.204 -0.0379  0.0490  0.4338
14074TIP3    H163637   0.171   6.830   5.144 -2.3849 -0.2665 -0.2916
14074TIP3    H263638   0.221   6.689   5.166 -0.3182  0.3859 -0.6018
14075TIP3   OH263639   4.127   3.149   1.515 -0.0142  0.0861  0.2119
14075TIP3    H163640   4.151   3.212   1.447  1.6773 -0.5456  0.1673
14075TIP3    H263641   4.194   3.161   1.583 -0.6784 -0.4796  0.9787
14076TIP3   OH263642   6.145   6.777   1.933 -0.3195  0.2424  0.7101
14076TIP3    H163643   6.106   6.690   1.922 -0.7652  0.5853 -0.5908
14076TIP3    H263644   6.095   6.817   2.004 -2.6792  0.8200 -1.1644
14077TIP3   OH263645   2.884   1.425   5.568 -0.0415 -0.4318 -0.4946
14077TIP3    H163646   2.900   1.447   5.477  1.1198  0.0038 -0.1923
14077TIP3    H263647   2.853   1.507   5.608  0.2555 -0.4041 -0.3157
14078TIP3   OH263648   2.097   5.951  17.165  0.0118  0.8350 -0.4526
14078TIP3    H163649   2.133   6.036  17.140  2.6795 -0.1062 -0.1626
14078TIP3    H263650   2.094   5.901  17.083  0.1924  0.6297 -0.3364
14079TIP3   OH263651   5.309   6.213   3.511 -0.2853 -0.6606  0.8344
14079TIP3    H163652   5.236   6.251   3.462 -0.5563 -0.7192  1.1915
14079TIP3    H263653   5.337   6.138   3.457  1.3776  1.0016 -0.7761
14080TIP3   OH263654   1.076   1.097  13.695  0.4364 -0.4177 -0.0207
14080TIP3    H163655   1.155   1.104  13.748  0.9989 -0.7776 -0.7955
14080TIP3    H263656   1.067   1.003  13.678  1.3569 -0.1744 -2.1459
14081TIP3   OH263657   2.902   1.797  12.884 -0.1301  0.0986 -0.1110
14081TIP3    H163658   2.997   1.807  12.885 -0.0587 -0.5230 -0.1926
14081TIP3    H263659   2.869   1.875  12.928  0.2777  1.6240 -2.3435
14082TIP3   OH263660   1.704   5.977   4.470 -0.0040  0.1001  0.3141
14082TIP3    H163661   1.660   6.054   4.504  1.1626  0.6062  0.6989
14082TIP3    H263662   1.722   5.998   4.378 -1.2961 -0.4462 -0.0835
14083TIP3   OH263663   0.359   5.253  13.470 -0.1002 -0.4088 -0.0577
14083TIP3    H163664   0.406   5.231  13.389  0.0667  0.4788 -0.2117
14083TIP3    H263665   0.309   5.174  13.490 -1.2480 -0.1882 -1.7974
14084TIP3   OH263666   1.666   2.545  16.432 -0.1256 -0.2632 -0.3344
14084TIP3    H163667   1.735   2.479  16.432 -1.3461 -1.5672 -0.7633
14084TIP3    H263668   1.649   2.562  16.340 -0.6933 -0.2904 -0.2374
14085TIP3   OH263669   2.678   3.083   1.720 -0.3643  0.4877  0.2108
14085TIP3    H163670   2.730   3.097   1.799 -1.0152 -0.4123  0.8048
14085TIP3    H263671   2.731   3.123   1.650  1.4505 -0.9412  0.6802
14086TIP3   OH263672   0.496   2.952   0.307 -0.1073 -0.0666  0.0117
14086TIP3    H163673   0.519   2.945   0.399 -0.6304  0.7473  0.2191
14086TIP3    H263674   0.577   2.934   0.260 -0.5450 -4.0325  0.4775
14087TIP3   OH263675   1.533   6.513   2.061 -0.1418  0.5159  0.0835
14087TIP3    H163676   1.458   6.497   2.004  0.1173 -1.2714  0.1946
14087TIP3    H263677   1.497   6.503   2.150  0.4321 -1.5903  0.1248
14088TIP3   OH263678   4.542   2.638   4.703  0.1981  0.4475 -0.3716
14088TIP3    H163679   4.483   2.602   4.769 -0.2826  1.0286 -0.4665
14088TIP3    H263680   4.516   2.730   4.697  2.5955  1.3321  1.2175
14089TIP3   OH263681   4.357   4.692   0.224 -0.0723 -0.1195  0.3923
14089TIP3    H163682   4.392   4.716   0.310  1.8545 -1.2891 -0.0111
14089TIP3    H263683   4.262   4.700   0.234  0.1115 -0.0173  2.5691
14090TIP3   OH263684   2.871   1.391  13.860 -0.2467 -0.8977  0.0990
14090TIP3    H163685   2.799   1.341  13.898  1.2569 -2.1033  1.5603
14090TIP3    H263686   2.894   1.455  13.927 -0.8105  0.4172 -0.9226
14091TIP3   OH263687   2.047   1.551   6.417 -0.1761  0.4149  0.2850
14091TIP3    H163688   2.037   1.488   6.489  0.2541 -0.8862 -0.7703
14091TIP3    H263689   2.093   1.503   6.349 -1.2377  1.3886 -1.1808
14092TIP3   OH263690   1.272   1.799   3.345 -0.3201 -0.1202 -0.2270
14092TIP3    H163691   1.302   1.890   3.354  2.1606 -0.8666 -0.3031
14092TIP3    H263692   1.251   1.772   3.434 -3.3838  1.1573 -0.4308
14093TIP3   OH263693   4.351   1.269  13.793  0.1565 -0.4041  0.0930
14093TIP3    H163694   4.388   1.279  13.705 -1.5878  0.2522 -0.6123
14093TIP3    H263695   4.312   1.354  13.812 -3.6245 -1.8037 -0.5409
14094TIP3   OH263696   3.394   3.735   0.846 -0.2684 -0.5051 -0.1410
14094TIP3    H163697   3.447   3.736   0.926 -1.2731 -1.0360  0.5508
14094TIP3    H263698   3.437   3.672   0.789 -0.8447 -1.9127  0.9231
14095TIP3   OH263699   4.292   6.099   1.642  0.2700 -0.0242  0.4109
14095TIP3    H163700   4.244   6.132   1.718 -1.9836 -0.6730 -0.6461
14095TIP3    H263701   4.370   6.154   1.637 -0.2403  0.9426  2.3591
14096TIP3   OH263702   6.722   0.649   5.164  0.6155 -0.4034 -0.3321
14096TIP3    H163703   6.685   0.584   5.104  2.3714 -2.1857  0.4031
14096TIP3    H263704   6.805   0.674   5.125  0.5474  0.4596  0.0514
14097TIP3   OH263705   3.383   1.147  14.783  1.0826 -0.0023 -0.2478
14097TIP3    H163706   3.401   1.211  14.851 -0.7817  1.3395 -0.9562
14097TIP3    H263707   3.328   1.081  14.825  1.0132  0.1331 -0.1285
14098TIP3   OH263708   2.414   0.801  16.078 -0.2947  0.7124 -0.0439
14098TIP3    H163709   2.464   0.781  16.157  0.2245 -0.6275 -0.6924
14098TIP3    H263710   2.324   0.814  16.109 -0.2891 -0.8024  0.6672
14099TIP3   OH263711   5.801   2.842  13.389  0.4418 -0.3858 -0.0552
14099TIP3    H163712   5.804   2.881  13.477  1.0933 -0.1562 -0.1687
14099TIP3    H263713   5.795   2.918  13.330 -1.9229 -0.5995 -0.1548
14100TIP3   OH263714   0.531   1.005  16.166 -0.1500  0.2965  0.1731
14100TIP3    H163715   0.436   1.013  16.160 -0.3258  2.1477  3.2681
14100TIP3    H263716   0.546   0.925  16.216 -0.1634  0.5634  0.6117
14101TIP3   OH263717   2.187   5.799   2.163  0.7416  0.4489 -0.4713
14101TIP3    H163718   2.199   5.874   2.222 -0.7715  0.1442  0.2772
14101TIP3    H263719   2.275   5.782   2.127  1.2377  2.1457 -0.1530
14102TIP3   OH263720   0.132   1.556   2.719  0.1087  0.1358  0.7228
14102TIP3    H163721   0.048   1.523   2.751 -0.1313  0.3556  0.3343
14102TIP3    H263722   0.124   1.550   2.623  1.0035 -0.9949  0.6955
14103TIP3   OH263723   1.220   3.223   4.620 -0.3197 -0.1158  0.4715
14103TIP3    H163724   1.205   3.297   4.561 -1.6678 -0.5647  0.2078
14103TIP3    H263725   1.274   3.162   4.569 -1.8003 -0.6835 -0.5180
14104TIP3   OH263726   6.266   6.709   1.459 -0.2946  0.2373  0.7326
14104TIP3    H163727   6.335   6.714   1.525  0.7414 -0.0938 -0.2880
14104TIP3    H263728   6.286   6.779   1.397  0.3987 -1.1659 -0.7138
14105TIP3   OH263729   3.715   6.346   1.379  0.0307  0.3456 -0.6304
14105TIP3    H163730   3.697   6.437   1.355  1.4331  0.2268 -2.3616
14105TIP3    H263731   3.785   6.353   1.444 -0.0551  0.5165 -0.5551
14106TIP3   OH263732   3.425   0.353  17.086  0.0106  0.0533  0.2752
14106TIP3    H163733   3.395   0.421  17.146 -1.1239 -1.0611  1.0482
14106TIP3    H263734   3.474   0.292  17.141 -0.6845 -0.7674  0.0213
14107TIP3   OH263735   6.430   2.194  15.678 -0.2531  0.3840  0.5764
14107TIP3    H163736   6.393   2.134  15.742 -0.8573  0.3933  0.2353
14107TIP3    H263737   6.401   2.281  15.707 -1.8709  0.2691 -0.5823
14108TIP3   OH263738   1.275   0.964  14.433 -0.1958  0.2085  0.4107
14108TIP3    H163739   1.263   1.059  14.422  0.4465  0.1863 -0.5920
14108TIP3    H263740   1.267   0.950  14.527 -1.8616  1.0277  0.4190
14109TIP3   OH263741   6.024   2.401  11.778  0.0039 -0.0533  0.2185
14109TIP3    H163742   5.982   2.465  11.835  0.1480  0.8029 -0.6140
14109TIP3    H263743   6.007   2.317  11.820  0.8239  0.6189  1.9624
14110TIP3   OH263744   1.159   1.872  16.195  0.2869 -0.1706 -0.2416
14110TIP3    H163745   1.239   1.839  16.236  0.5545  1.7221  0.9128
14110TIP3    H263746   1.165   1.843  16.104  2.6368  0.4205 -0.3602
14111TIP3   OH263747   4.125   2.997  14.459  0.8157 -0.0996  0.3358
14111TIP3    H163748   4.165   3.048  14.389 -0.9525  1.8180  0.6046
14111TIP3    H263749   4.060   2.943  14.414  0.2425  0.5356  0.3789
14112TIP3   OH263750   5.604   2.900   1.390  0.3023  0.1993 -0.2232
14112TIP3    H163751   5.653   2.834   1.438  1.0094 -0.2188 -1.4848
14112TIP3    H263752   5.595   2.973   1.452  1.0832 -0.3583  0.5713
14113TIP3   OH263753   1.820   5.423   3.295 -0.4019  0.4434  0.1567
14113TIP3    H163754   1.881   5.364   3.249  0.2090 -0.6706  2.2748
14113TIP3    H263755   1.740   5.371   3.306 -0.4761  0.6331  0.5164
14114TIP3   OH263756   5.679   3.677   3.658  0.5629  0.0753 -0.5395
14114TIP3    H163757   5.676   3.765   3.621  0.1121 -0.5809 -2.1491
14114TIP3    H263758   5.603   3.673   3.717 -0.6555  0.1024 -2.0681
14115TIP3   OH263759   0.093   4.327  13.328  0.7593  0.1974 -0.2575
14115TIP3    H163760   0.154   4.395  13.300  1.7601  0.2097  1.7890
14115TIP3    H263761   0.010   4.351  13.287  1.5966  1.3868 -1.3582
14116TIP3   OH263762   2.648   1.805  12.670  0.6124  0.0511  0.5086
14116TIP3    H163763   2.741   1.808  12.691  0.7006  1.3140  0.0136
14116TIP3    H263764   2.609   1.874  12.722  0.0299 -0.1255  0.3152
14117TIP3   OH263765   1.901   4.553   2.463 -0.0791 -0.4092  0.2362
14117TIP3    H163766   1.947   4.484   2.513 -2.7681 -1.0766  2.0455
14117TIP3    H263767   1.937   4.635   2.497 -0.0309 -0.9129  1.4845
14118TIP3   OH263768   4.639   0.527  16.082 -0.0718 -0.3941 -0.3956
14118TIP3    H163769   4.718   0.474  16.068  0.8258  1.2339 -1.9010
14118TIP3    H263770   4.630   0.578  16.001 -0.2371  2.5358  1.3368
14119TIP3   OH263771   1.622   0.412  17.228 -0.3737 -0.1484 -0.4698
14119TIP3    H163772   1.607   0.337  17.285  0.6057 -1.3173 -1.6935
14119TIP3    H263773   1.715   0.407  17.205 -0.2919  1.4316 -0.6064
14120TIP3   OH263774   1.511   0.636   2.964 -0.1822  0.1288 -0.3496
14120TIP3    H163775   1.418   0.641   2.986 -0.3547  0.7631 -1.1744
14120TIP3    H263776   1.553   0.701   3.020  0.3415 -2.4829  2.6164
14121TIP3   OH263777   2.455   5.636   3.555 -0.3612  0.6604  1.0054
14121TIP3    H163778   2.441   5.543   3.536  1.7859  0.2344  1.3182
14121TIP3    H263779   2.400   5.653   3.631 -0.2251 -0.5403  1.3932
14122TIP3   OH263780   3.680   5.324   5.257  0.1716 -0.2974 -0.3467
14122TIP3    H163781   3.636   5.304   5.339  0.0508 -0.2895 -0.4091
14122TIP3    H263782   3.761   5.367   5.283 -1.0886  2.2028 -0.2579
14123TIP3   OH263783   2.396   2.995   0.937 -0.0440  0.3671 -0.3342
14123TIP3    H163784   2.332   3.056   0.900 -0.2418 -0.0002 -0.5985
14123TIP3    H263785   2.470   2.998   0.876 -0.8596 -1.1684 -1.4780
14124TIP3   OH263786   0.801   6.327  14.274  0.2912  0.2212  0.2743
14124TIP3    H163787   0.718   6.305  14.317 -1.2149 -0.5006 -2.7264
14124TIP3    H263788   0.840   6.243  14.252  1.6210  0.5663  1.1410
14125TIP3   OH263789   1.115   4.227   1.021 -0.3321  0.5393 -0.4223
14125TIP3    H163790   1.154   4.294   1.077  0.2063  2.9983 -3.4432
14125TIP3    H263791   1.183   4.161   1.011  0.8214  1.7650 -0.8437
14126TIP3   OH263792   1.580   2.578  16.156 -0.7754  0.3538 -0.1297
14126TIP3    H163793   1.620   2.494  16.133 -0.5091  0.9124 -1.8604
14126TIP3    H263794   1.593   2.633  16.079 -2.4052  1.4751  0.3314
14127TIP3   OH263795   0.581   0.943  11.785  0.2127  0.1297  0.1959
14127TIP3    H163796   0.497   0.924  11.743 -0.1360  0.2796  0.8167
14127TIP3    H263797   0.646   0.906  11.725 -0.1567  1.9638 -1.4232
14128TIP3   OH263798   6.290   4.107   1.682 -0.3261  0.4313  0.1214
14128TIP3    H163799   6.219   4.053   1.717 -1.5015  1.1237 -1.1124
14128TIP3    H263800   6.304   4.174   1.749  0.0107 -0.3995  0.9118
14129TIP3   OH263801   1.465   2.578   4.767 -0.5666  0.2418  0.3209
14129TIP3    H163802   1.458   2.669   4.795 -0.3521 -0.4690  2.9869
14129TIP3    H263803   1.382   2.561   4.721 -0.5109  1.7975 -0.4241
14130TIP3   OH263804   3.272   3.602  15.284  0.3902 -0.1224  0.4978
14130TIP3    H163805   3.346   3.619  15.226  0.5898 -3.0683 -0.2525
14130TIP3    H263806   3.197   3.595  15.226  0.1858 -0.8182  0.8433
14131TIP3   OH263807   0.685   5.017  12.644  0.0127  0.6216  0.0476
14131TIP3    H163808   0.663   5.034  12.553 -1.0331  2.2850  0.5647
14131TIP3    H263809   0.604   4.985  12.683  0.2760  0.5372  0.5420
14132TIP3   OH263810   6.537   2.244   0.578  0.3804 -0.8470 -0.5735
14132TIP3    H163811   6.509   2.152   0.582  0.9598 -1.0353 -0.6929
14132TIP3    H263812   6.459   2.294   0.602 -0.5182 -1.2651 -2.3955
14133TIP3   OH263813   5.198   2.796  14.850 -0.3906 -0.0903 -0.8416
14133TIP3    H163814   5.246   2.857  14.793  0.1187 -0.4799 -0.8410
14133TIP3    H263815   5.259   2.724  14.863 -0.3823  0.1409  0.4699
14134TIP3   OH263816   4.196   1.960   1.952  0.0605  0.6836  0.0225
14134TIP3    H163817   4.276   1.953   1.900 -0.3802  2.4624 -0.9647
14134TIP3    H263818   4.126   1.943   1.890 -0.3889 -0.9202  0.8937
14135TIP3   OH263819   5.684   2.513  12.480  0.1207 -0.6163 -0.0781
14135TIP3    H163820   5.718   2.594  12.519 -2.1542  0.3952 -0.0620
14135TIP3    H263821   5.669   2.534  12.388 -0.7150 -0.9215 -0.0235
14136TIP3   OH263822   1.022   4.964   0.792 -0.4038 -0.1036  0.7338
14136TIP3    H163823   0.973   4.883   0.779  0.8787 -0.6842 -0.6984
14136TIP3    H263824   1.099   4.938   0.843 -0.2410  0.3238  0.7125
14137TIP3   OH263825   2.285   1.167  13.834 -0.1004 -0.5142  0.0141
14137TIP3    H163826   2.354   1.151  13.770  1.4669  2.9566  0.5784
14137TIP3    H263827   2.322   1.140  13.917 -0.3309 -0.7460  0.0433
14138TIP3   OH263828   3.820   2.243  12.343  0.6755 -0.0579  0.4674
14138TIP3    H163829   3.728   2.262  12.324  1.2063  1.6300 -0.7050
14138TIP3    H263830   3.818   2.171  12.406 -1.4579  0.3104  0.8861
14139TIP3   OH263831   1.398   4.125  14.161 -0.0885 -0.3101 -0.1207
14139TIP3    H163832   1.328   4.060  14.166 -0.9069  0.4477 -1.1955
14139TIP3    H263833   1.372   4.194  14.222 -0.1039 -0.2044 -0.2445
14140TIP3   OH263834   0.973   1.876   3.124 -0.9582  0.4147  0.1171
14140TIP3    H163835   0.988   1.854   3.216  1.5599 -0.9956 -0.5358
14140TIP3    H263836   0.990   1.970   3.119 -2.2324  0.7365  1.2571
14141TIP3   OH263837   2.642   6.618   1.265 -0.3523 -0.1509 -0.6355
14141TIP3    H163838   2.651   6.536   1.314  1.7026  0.2533 -0.2514
14141TIP3    H263839   2.731   6.652   1.258 -1.1136  1.9146 -1.0512
14142TIP3   OH263840   2.805   5.363   0.676  0.1479  0.1306  0.2976
14142TIP3    H163841   2.833   5.454   0.663 -0.0526  0.2284  0.5249
14142TIP3    H263842   2.820   5.347   0.770 -1.5003  0.5351  0.6690
14143TIP3   OH263843   1.761   3.775  14.424 -0.0225 -0.4766  0.0346
14143TIP3    H163844   1.786   3.699  14.370 -0.3310 -2.4784  2.4905
14143TIP3    H263845   1.675   3.801  14.390  0.8598 -0.0447 -1.9896
14144TIP3   OH263846   4.729   2.695   5.749  0.3567 -0.4627  0.4444
14144TIP3    H163847   4.722   2.605   5.781 -2.1876 -0.6769 -0.4336
14144TIP3    H263848   4.731   2.687   5.654  0.0662  0.3856  0.3533
14145TIP3   OH263849   4.194   6.762   4.049  0.1852  0.4699 -0.2069
14145TIP3    H163850   4.215   6.702   3.977 -1.8350 -1.9854  1.0900
14145TIP3    H263851   4.250   6.735   4.121  0.3053  1.1450 -0.0389
14146TIP3   OH263852   0.935   2.905  16.680  0.2069  0.4946 -0.9841
14146TIP3    H163853   0.862   2.916  16.620 -0.5225 -0.1201 -0.2278
14146TIP3    H263854   0.931   2.983  16.736 -0.3483  0.0865 -0.4488
14147TIP3   OH263855   0.267   4.952   0.213  0.7357  0.3113 -0.2962
14147TIP3    H163856   0.220   4.868   0.210  1.2469 -0.1985 -6.7089
14147TIP3    H263857   0.360   4.927   0.211  0.8992  0.9557 -1.6493
14148TIP3   OH263858   5.074   0.654  15.171  0.1983  0.1817 -0.3179
14148TIP3    H163859   5.167   0.632  15.183  0.3515  1.1259  0.4337
14148TIP3    H263860   5.074   0.750  15.163 -0.8489  0.3754  1.3921
14149TIP3   OH263861   4.947   3.737   5.873  0.1275 -0.2675  0.1864
14149TIP3    H163862   4.994   3.741   5.790  0.2926 -1.4525  0.2096
14149TIP3    H263863   5.015   3.716   5.937 -0.0320  0.4490  0.6067
14150TIP3   OH263864   3.814   3.094   5.729  0.0305  0.4493 -0.1062
14150TIP3    H163865   3.812   3.190   5.721 -4.7199  0.5991  0.2252
14150TIP3    H263866   3.800   3.062   5.640 -1.5812  0.2260  0.2084
14151TIP3   OH263867   2.346   2.082   1.116  0.0992 -0.0681  0.0583
14151TIP3    H163868   2.263   2.125   1.133 -0.4548 -1.1077  0.1028
14151TIP3    H263869   2.396   2.144   1.063 -0.8247  0.4485 -0.2279
14152TIP3   OH263870   1.602   2.718  12.242 -0.0604  0.1084 -0.1242
14152TIP3    H163871   1.602   2.807  12.208  0.2287 -0.1912 -0.9192
14152TIP3    H263872   1.557   2.666  12.175  2.4477 -0.8767 -1.1331
14153TIP3   OH263873   1.648   1.582   6.052 -0.3101 -0.0880  0.0455
14153TIP3    H163874   1.596   1.661   6.060 -2.1009 -1.0657 -1.3399
14153TIP3    H263875   1.588   1.516   6.018  1.8612 -1.2264 -1.9174
14154TIP3   OH263876   3.329   4.887   3.801 -0.0814  0.1893  0.4271
14154TIP3    H163877   3.359   4.978   3.800  5.1914 -1.1765  1.3426
14154TIP3    H263878   3.341   4.856   3.711 -0.3873 -0.0123  0.4525
14155TIP3   OH263879   2.036   0.617  16.049  0.4251 -0.5736  0.2707
14155TIP3    H163880   2.039   0.549  15.981 -2.2398  1.6164 -2.2864
14155TIP3    H263881   1.959   0.594  16.102  0.6106 -0.5214  0.5652
14156TIP3   OH263882   6.124   4.386   1.928  0.5772  0.2085  0.3830
14156TIP3    H163883   6.152   4.333   2.002  0.3983 -0.9027 -0.3223
14156TIP3    H263884   6.160   4.473   1.946  0.9452 -0.1618  1.5249
14157TIP3   OH263885   1.394   3.048   2.659  0.2209  0.2565 -0.2123
14157TIP3    H163886   1.349   2.964   2.668  1.4856 -0.5325 -0.9843
14157TIP3    H263887   1.481   3.026   2.627  0.7256  1.8426 -0.0386
14158TIP3   OH263888   0.179   2.546   0.343  0.4970 -0.3790  0.2628
14158TIP3    H163889   0.108   2.589   0.295 -0.3869  0.7994  2.4705
14158TIP3    H263890   0.251   2.609   0.343  0.3454 -0.2003  0.8117
14159TIP3   OH263891   6.619   6.780  15.228 -0.4175 -0.2886  0.1745
14159TIP3    H163892   6.544   6.838  15.242 -0.0725  0.9265 -2.4444
14159TIP3    H263893   6.672   6.789  15.307 -0.4358  2.9175 -0.0706
14160TIP3   OH263894   2.473   3.311  11.013  0.4003 -0.3940 -0.1542
14160TIP3    H163895   2.434   3.293  10.928  1.0282  0.9229 -0.7383
14160TIP3    H263896   2.414   3.375  11.053  0.0142 -1.1286  0.5011
14161TIP3   OH263897   2.837   0.731   0.271  0.3537 -0.3877  1.0670
14161TIP3    H163898   2.863   0.730   0.179  0.3865  1.5380  1.0249
14161TIP3    H263899   2.839   0.639   0.297  1.0161 -0.9003 -0.6604
14162TIP3   OH263900   2.274   3.525  12.684 -0.0686 -0.0698  0.2887
14162TIP3    H163901   2.205   3.460  12.696  0.0473 -0.3146 -0.3508
14162TIP3    H263902   2.249   3.598  12.740 -0.9245 -0.0938 -0.0581
14163TIP3   OH263903   4.694   6.519  12.097 -0.2194  0.5560 -0.1245
14163TIP3    H163904   4.789   6.531  12.100 -0.2960  1.4722 -1.2328
14163TIP3    H263905   4.677   6.455  12.167  1.0221  1.5220  1.1196
14164TIP3   OH263906   1.002   0.470  15.273 -0.6148  0.1048 -0.7416
14164TIP3    H163907   0.982   0.377  15.261 -1.2325  0.3067 -1.3324
14164TIP3    H263908   0.992   0.508  15.185 -1.7022  0.9802 -0.2667
14165TIP3   OH263909   3.885   0.946  16.075  0.6977  0.1330 -0.0148
14165TIP3    H163910   3.860   0.897  16.153 -2.5123  0.3097 -0.7910
14165TIP3    H263911   3.930   0.882  16.020  2.0013 -0.2825  1.4795
14166TIP3   OH263912   1.639   3.221  12.022 -0.3813 -0.4550 -0.1864
14166TIP3    H163913   1.689   3.145  12.053 -1.5960 -0.7654  1.0795
14166TIP3    H263914   1.685   3.296  12.059 -0.2780 -0.6831  0.1515
14167TIP3   OH263915   1.673   5.629  15.382  0.2159 -0.2577 -0.0165
14167TIP3    H163916   1.654   5.697  15.318  2.6888  0.7034  0.1593
14167TIP3    H263917   1.702   5.554  15.329 -1.3198 -0.7998 -0.1441
14168TIP3   OH263918   3.646   5.550  14.803  0.0514  0.0211  0.3329
14168TIP3    H163919   3.680   5.633  14.769 -0.2327  0.1292  0.3149
14168TIP3    H263920   3.681   5.483  14.744 -1.4415  0.3046 -0.9270
14169TIP3   OH263921   5.527   1.812   0.280  0.3366  0.1368  0.1595
14169TIP3    H163922   5.581   1.864   0.220  0.1306 -0.8911 -0.9563
14169TIP3    H263923   5.555   1.839   0.367  0.5941  1.7239 -0.3881
14170TIP3   OH263924   0.164   5.281   0.214  0.2682 -0.2051  0.7357
14170TIP3    H163925   0.156   5.326   0.298  1.2511  1.2829  0.0771
14170TIP3    H263926   0.218   5.340   0.160 -0.9556 -0.7553 -1.1954
14171TIP3   OH263927   1.793   1.802   2.627 -0.0931 -0.3983  0.5582
14171TIP3    H163928   1.825   1.717   2.595  1.3610 -0.4281  1.9749
14171TIP3    H263929   1.814   1.863   2.557  1.2944 -0.7816  0.6121
14172TIP3   OH263930   2.148   1.088   0.437  0.1870  0.2246 -0.1406
14172TIP3    H163931   2.129   1.108   0.345 -1.5665 -0.9369 -0.0872
14172TIP3    H263932   2.198   1.007   0.434 -2.2011 -1.3540 -0.0651
14173TIP3   OH263933   1.540   5.669   1.876 -0.4003 -0.3508  0.1165
14173TIP3    H163934   1.559   5.743   1.819  0.6878 -0.8790 -0.2525
14173TIP3    H263935   1.582   5.594   1.832 -0.6755 -1.0052  0.9424
14174TIP3   OH263936   5.536   5.598  16.564  0.1645 -0.6450  0.1079
14174TIP3    H163937   5.481   5.652  16.507  0.9673 -0.8036 -0.8606
14174TIP3    H263938   5.606   5.656  16.593 -1.1551 -0.0827  2.3958
14175TIP3   OH263939   2.272   3.980  11.618 -0.6276 -0.0073  0.0353
14175TIP3    H163940   2.235   3.895  11.595 -0.3026 -0.6277  1.6759
14175TIP3    H263941   2.259   4.034  11.539  0.1064 -1.8599 -1.4334
14176TIP3   OH263942   4.633   5.728   1.549  0.2598 -0.3177  0.1707
14176TIP3    H163943   4.574   5.653   1.547 -0.9279  0.5615 -2.8395
14176TIP3    H263944   4.576   5.804   1.542  1.6040  0.7191  0.0948
14177TIP3   OH263945   1.508   5.609   3.630 -0.3025 -0.0409  0.2490
14177TIP3    H163946   1.564   5.684   3.649  0.3157 -0.4509  0.0680
14177TIP3    H263947   1.419   5.645   3.628  0.1668  1.1887 -2.2863
14178TIP3   OH263948   1.664   2.480  11.938  0.2081 -0.1807  0.1979
14178TIP3    H163949   1.732   2.547  11.929 -0.6083  0.4386 -2.3209
14178TIP3    H263950   1.710   2.404  11.973  1.8715  0.7011  0.0568
14179TIP3   OH263951   0.862   2.961  14.672  0.1894 -0.4802 -0.0790
14179TIP3    H163952   0.917   2.883  14.666  0.8542 -0.1449  1.2020
14179TIP3    H263953   0.773   2.930  14.659  0.3616 -1.6054  1.2606
14180TIP3   OH263954   5.797   2.993  17.147  0.5484 -0.2792  0.1401
14180TIP3    H163955   5.798   3.009  17.053  0.4175 -1.4149 -0.0711
14180TIP3    H263956   5.720   2.937  17.161  0.7036 -0.3172  0.8884
14181TIP3   OH263957   5.348   2.135   1.339  0.4111 -0.3083 -0.1577
14181TIP3    H163958   5.367   2.165   1.428 -0.2344 -0.4223  0.0252
14181TIP3    H263959   5.324   2.043   1.350  1.0452 -0.5280 -0.5483
14182TIP3   OH263960   3.393   1.972   1.678 -0.8047  0.2099  0.3582
14182TIP3    H163961   3.403   2.057   1.635  0.4761  0.5560  1.2542
14182TIP3    H263962   3.322   1.986   1.741  2.2350  2.1519  3.7594
14183TIP3   OH263963   3.903   4.431   0.207  0.1493 -0.4405  0.4812
14183TIP3    H163964   3.993   4.402   0.195  0.3206  0.1313  0.3421
14183TIP3    H263965   3.853   4.351   0.218  0.5603 -0.8010 -0.2414
14184TIP3   OH263966   5.363   0.353   5.018 -0.0064 -0.0638  0.1191
14184TIP3    H163967   5.351   0.314   4.931 -0.2201  1.8114 -0.7482
14184TIP3    H263968   5.298   0.311   5.073 -1.9886  0.8716 -1.3988
14185TIP3   OH263969   4.342   4.168  13.866 -0.2918  0.2373  0.4999
14185TIP3    H163970   4.419   4.123  13.830 -0.5604 -0.3727  0.6723
14185TIP3    H263971   4.367   4.189  13.956 -0.2336  0.2646  0.4772
14186TIP3   OH263972   3.977   0.579   0.295 -0.3175  0.1215 -0.7068
14186TIP3    H163973   4.024   0.537   0.223  0.3898  1.5583 -1.1366
14186TIP3    H263974   4.045   0.625   0.344 -0.9717  0.2360  0.1063
14187TIP3   OH263975   0.104   6.124  14.871  0.0687 -0.2683 -0.2940
14187TIP3    H163976   0.110   6.148  14.779  1.1218  0.0704 -0.1470
14187TIP3    H263977   0.182   6.162  14.911 -1.8373  2.2973  1.3551
14188TIP3   OH263978   5.577   3.293   3.098 -0.0218  0.6327 -0.6622
14188TIP3    H163979   5.553   3.350   3.025 -1.7771  0.5555 -0.1983
14188TIP3    H263980   5.667   3.317   3.119 -0.1153  1.9519 -1.6372
14189TIP3   OH263981   5.905   3.350  11.711 -0.2597  0.1165  0.3664
14189TIP3    H163982   5.868   3.342  11.623  0.0512  1.2576  0.1139
14189TIP3    H263983   5.842   3.307  11.768 -0.0659 -1.3687 -0.5003
14190TIP3   OH263984   5.154   5.278  12.583 -0.8973  0.0427  0.4037
14190TIP3    H163985   5.213   5.202  12.583 -0.6420  0.2261  1.8849
14190TIP3    H263986   5.154   5.307  12.491 -0.5420 -1.3755 -0.0793
14191TIP3   OH263987   3.715   0.152  11.700 -0.1461 -0.3192  0.8027
14191TIP3    H163988   3.638   0.096  11.689 -1.7851  1.6213  1.6314
14191TIP3    H263989   3.729   0.191  11.614  1.1431 -2.0714  0.1634
14192TIP3   OH263990   3.068   4.298  11.480  0.0770 -0.2644 -0.1457
14192TIP3    H163991   3.156   4.334  11.495 -0.7310  1.2210  1.3974
14192TIP3    H263992   3.045   4.328  11.392  1.1943 -0.8928 -0.6776
14193TIP3   OH263993   4.179   5.185   1.141  0.3824 -0.1117 -0.1156
14193TIP3    H163994   4.236   5.260   1.156 -0.5598  0.6602 -0.2797
14193TIP3    H263995   4.202   5.123   1.209  0.0630  1.0067  1.0460
14194TIP3   OH263996   0.727   4.196  13.667 -0.4228 -0.2786 -0.1320
14194TIP3    H163997   0.787   4.138  13.713 -1.2671 -0.0732  1.2695
14194TIP3    H263998   0.645   4.191  13.716 -0.7334  1.5251 -0.3877
14195TIP3   OH263999   5.129   2.034  14.629  0.0060 -0.2829  0.8096
14195TIP3    H164000   5.049   2.083  14.613  0.3214 -0.1229 -0.3762
14195TIP3    H264001   5.124   1.959  14.569  1.7601  0.9345 -0.9757
14196TIP3   OH264002   1.608   0.887   4.770 -0.3843  0.3945 -0.5120
14196TIP3    H164003   1.684   0.945   4.762 -0.3421  0.4756  0.3721
14196TIP3    H264004   1.642   0.810   4.816 -1.1091  0.9828  1.0470
14197TIP3   OH264005   0.994   1.784  15.075 -0.1652 -0.3852 -0.3271
14197TIP3    H164006   1.049   1.842  15.022  1.4055 -2.3977 -1.0075
14197TIP3    H264007   0.956   1.723  15.012  0.3188 -1.7122  0.6265
14198TIP3   OH264008   1.193   5.864  12.027  0.4444  0.0211  0.1334
14198TIP3    H164009   1.243   5.945  12.039  2.1465 -0.9032 -0.4164
14198TIP3    H264010   1.148   5.852  12.111 -0.2833  1.7942  0.0442
14199TIP3   OH264011   4.165   0.066   5.129  0.1811 -0.2412 -0.4412
14199TIP3    H164012   4.197  -0.005   5.185 -0.2524 -0.2125 -0.1502
14199TIP3    H264013   4.105   0.116   5.185 -1.0212 -0.7727 -1.2067
14200TIP3   OH264014   4.556   3.831  16.764  0.3268  0.1431  0.1130
14200TIP3    H164015   4.498   3.830  16.839  0.4271  0.5186  0.1940
14200TIP3    H264016   4.544   3.917  16.724  1.1960  0.4156  0.4251
14201TIP3   OH264017   3.226   5.814   5.557 -0.4887 -0.2560 -0.3842
14201TIP3    H164018   3.296   5.754   5.582  0.1547 -0.9049 -3.3864
14201TIP3    H264019   3.164   5.810   5.631  1.3453 -1.6612  1.1889
14202TIP3   OH264020   5.864   3.339  11.419 -0.8410 -0.1147  0.4187
14202TIP3    H164021   5.775   3.372  11.405 -1.0549 -1.1849 -1.0363
14202TIP3    H264022   5.905   3.348  11.333  0.3534  0.0360  0.9944
14203TIP3   OH264023   1.821   3.583  15.789  0.1331 -0.1324 -0.1165
14203TIP3    H164024   1.905   3.552  15.755 -0.6349 -0.1113 -2.1543
14203TIP3    H264025   1.828   3.679  15.789 -0.3541 -0.0802 -1.6202
14204TIP3   OH264026   5.026   1.205   1.062  0.1793  0.3102 -0.6194
14204TIP3    H164027   5.053   1.146   1.133  0.3727  0.3817 -0.6323
14204TIP3    H264028   5.012   1.289   1.105 -0.9427  0.0525 -0.4563
14205TIP3   OH264029   3.633   5.423  13.405 -0.3438  0.6853 -0.2259
14205TIP3    H164030   3.591   5.354  13.353 -1.0541  1.0047 -0.0896
14205TIP3    H264031   3.678   5.478  13.340 -0.3192  0.4663 -0.3964
14206TIP3   OH264032   0.873   5.431  15.473 -0.0588  0.0681  0.7505
14206TIP3    H164033   0.945   5.493  15.486  1.0158 -0.4613 -2.0251
14206TIP3    H264034   0.910   5.346  15.494 -0.6173  0.0219  1.5896
14207TIP3   OH264035   4.321   0.752   1.826 -0.0828 -0.0214 -0.0013
14207TIP3    H164036   4.339   0.843   1.804 -0.0240  0.0390  0.2970
14207TIP3    H264037   4.374   0.701   1.765 -0.9546  0.1241 -0.9124
14208TIP3   OH264038   1.389   4.112   0.166  0.0173  0.3403  0.2383
14208TIP3    H164039   1.376   4.168   0.089 -0.8805  0.7447  0.6615
14208TIP3    H264040   1.470   4.066   0.149  0.6632  1.6006 -0.2475
14209TIP3   OH264041   0.948   5.979   4.211  0.3834  0.4533  0.3622
14209TIP3    H164042   0.972   6.039   4.281 -1.4057 -0.2508  1.6463
14209TIP3    H264043   0.867   6.014   4.175  0.5828  0.0812 -0.4745
14210TIP3   OH264044   2.454   6.389  12.101  0.3171 -0.2795  0.2850
14210TIP3    H164045   2.440   6.303  12.140  1.4055 -0.8194 -0.4478
14210TIP3    H264046   2.416   6.382  12.013  1.3997 -0.4080 -0.1943
14211TIP3   OH264047   1.181   1.839   0.868  0.2474 -0.4268  0.7817
14211TIP3    H164048   1.103   1.794   0.899  0.4129 -0.6332  0.9029
14211TIP3    H264049   1.173   1.839   0.773  0.0900 -0.4274  0.7950
14212TIP3   OH264050   2.020   0.995  13.320  0.0952 -0.5980 -0.1332
14212TIP3    H164051   1.951   0.941  13.281 -1.8518  1.2791  0.4728
14212TIP3    H264052   1.989   1.085  13.308  1.7444  0.2551  1.4633
14213TIP3   OH264053   4.415   2.865   2.691 -0.2242 -0.3190  0.4000
14213TIP3    H164054   4.450   2.928   2.754 -1.9530  0.9882  0.1177
14213TIP3    H264055   4.476   2.791   2.695  1.5210  1.0947  1.1956
14214TIP3   OH264056   3.032   2.232   5.289  0.4167 -0.1913 -0.1511
14214TIP3    H164057   2.947   2.189   5.289  0.5869 -0.6191  1.7158
14214TIP3    H264058   3.081   2.191   5.218 -1.1464  0.5640 -1.7208
14215TIP3   OH264059   2.412   5.693   2.068 -0.7440  0.0356 -0.2712
14215TIP3    H164060   2.451   5.606   2.056  0.1811  0.4063 -0.0084
14215TIP3    H264061   2.481   5.744   2.110 -1.3390  0.8570 -0.2861
14216TIP3   OH264062   6.583   3.013  15.034  0.1990  0.0989  0.2687
14216TIP3    H164063   6.531   3.092  15.020  0.4470  0.0694 -0.9725
14216TIP3    H264064   6.581   2.968  14.949  0.1800 -1.1643  0.9127
14217TIP3   OH264065   3.366   2.197  12.009 -0.3202  0.0706 -0.0002
14217TIP3    H164066   3.277   2.208  12.044 -0.3820  0.3036 -0.2273
14217TIP3    H264067   3.359   2.225  11.917  0.0955  0.5573  0.1097
14218TIP3   OH264068   2.136   0.869  10.521 -0.0244 -0.8769  0.4027
14218TIP3    H164069   2.143   0.964  10.522 -1.4218 -0.7595  1.3200
14218TIP3    H264070   2.048   0.851  10.488  0.1972 -1.8504  0.3027
14219TIP3   OH264071   4.078   0.668   3.043  0.4832 -0.2733  0.4740
14219TIP3    H164072   4.032   0.585   3.053  0.0563 -0.2791 -1.2332
14219TIP3    H264073   4.171   0.644   3.043  0.4769 -0.4505  2.2562
14220TIP3   OH264074   5.028   5.614   0.184 -0.1168 -0.4799  0.1159
14220TIP3    H164075   4.991   5.603   0.271 -1.4280  0.9544 -0.2191
14220TIP3    H264076   4.971   5.562   0.127  0.9206 -1.6677  0.1287
14221TIP3   OH264077   4.939   5.092   5.150 -0.0585 -0.1306 -0.2102
14221TIP3    H164078   5.029   5.096   5.117  0.1247  1.9068  0.4040
14221TIP3    H264079   4.942   5.141   5.232 -1.6907 -0.2650 -0.0474
14222TIP3   OH264080   4.026   6.045  10.619  0.1204 -0.0835  0.6342
14222TIP3    H164081   4.035   5.950  10.626  0.1688 -0.1218  0.1295
14222TIP3    H264082   4.085   6.069  10.547 -0.2356  0.2661  0.4519
14223TIP3   OH264083   2.682   5.967   0.161  0.2634  0.0777 -0.1276
14223TIP3    H164084   2.658   6.055   0.135  0.5857  0.1432 -0.2049
14223TIP3    H264085   2.617   5.943   0.228  1.0856  0.9659  1.0310
14224TIP3   OH264086   1.273   2.472   2.344  0.0032 -0.2314  0.2055
14224TIP3    H164087   1.335   2.439   2.278  0.1975 -1.0154  0.7663
14224TIP3    H264088   1.302   2.561   2.363  0.7767 -0.4844  0.2380
14225TIP3   OH264089   1.922   0.401  12.674 -0.3591 -0.1424 -0.6409
14225TIP3    H164090   1.921   0.370  12.584  0.6732  1.1169 -1.1258
14225TIP3    H264091   1.999   0.458  12.679 -0.4385 -0.1217  1.0202
14226TIP3   OH264092   4.371   5.987  15.366  0.0225  0.5641  0.1376
14226TIP3    H164093   4.305   6.032  15.419  0.7661  0.4325  1.1990
14226TIP3    H264094   4.442   6.050  15.358  1.3381 -0.5370  2.1385
14227TIP3   OH264095   1.640   0.040  14.974  0.0524  0.0407  0.1783
14227TIP3    H164096   1.578  -0.024  15.007 -0.4985  0.1579 -0.5965
14227TIP3    H264097   1.724   0.017  15.015  0.0071 -1.5378 -0.5316
14228TIP3   OH264098   2.832   4.663   6.293  0.2233  0.1989 -0.0873
14228TIP3    H164099   2.854   4.738   6.349  0.8468 -0.1496  0.1471
14228TIP3    H264100   2.741   4.644   6.314  0.9571 -1.1437  2.2758
14229TIP3   OH264101   6.042   1.574   5.272  0.0411  0.1214 -0.8452
14229TIP3    H164102   6.114   1.623   5.311 -0.6312 -0.2307  0.9087
14229TIP3    H264103   5.994   1.638   5.220  0.4839  0.7836 -0.4418
14230TIP3   OH264104   3.841   4.127   4.277 -0.3744  0.3269  0.1844
14230TIP3    H164105   3.871   4.213   4.306 -0.1561  0.2022  0.3233
14230TIP3    H264106   3.914   4.068   4.294 -1.1833 -0.2654  1.8864
14231TIP3   OH264107   0.199   2.180   3.863 -0.1178 -0.2096 -0.0632
14231TIP3    H164108   0.259   2.255   3.862  1.0292 -1.0929 -1.2933
14231TIP3    H264109   0.201   2.149   3.953  1.3712 -0.2541 -0.0791
14232TIP3   OH264110   0.715   3.585  13.185  0.0515 -0.0408  0.1714
14232TIP3    H164111   0.684   3.540  13.106 -0.6815  2.5414 -1.1037
14232TIP3    H264112   0.635   3.611  13.230  0.4594 -1.3879  1.8131
14233TIP3   OH264113   0.853   2.177  10.451 -0.0637  0.0502 -0.0049
14233TIP3    H164114   0.772   2.143  10.489 -0.2706  0.4937 -0.0465
14233TIP3    H264115   0.826   2.255  10.403  0.2271 -0.3773 -0.8808
14234TIP3   OH264116   2.228   1.105  16.464  0.4754 -0.0082 -0.2734
14234TIP3    H164117   2.310   1.076  16.423 -0.2984 -1.8561 -0.6025
14234TIP3    H264118   2.202   1.182  16.413  1.4470 -0.0369 -0.8420
14235TIP3   OH264119   6.592   0.408   2.364  0.0555 -0.1570 -0.0957
14235TIP3    H164120   6.644   0.468   2.312 -0.7911  0.5949 -0.1030
14235TIP3    H264121   6.638   0.403   2.448  0.7185 -0.3585 -0.4658
14236TIP3   OH264122   2.415   5.206   5.883  0.1001 -0.0748  0.0513
14236TIP3    H164123   2.352   5.272   5.853  1.2310  0.2183 -1.8487
14236TIP3    H264124   2.413   5.212   5.978 -0.1569  2.4390 -0.0485
14237TIP3   OH264125   0.451   3.067   4.011 -0.3607  0.3322 -0.5820
14237TIP3    H164126   0.538   3.033   3.991 -0.7321 -1.0946  0.0789
14237TIP3    H264127   0.443   3.147   3.959  0.6059 -0.5385 -2.1284
14238TIP3   OH264128   0.707   3.739   2.192  0.2006  0.1255  0.1287
14238TIP3    H164129   0.635   3.675   2.198 -0.5049  0.7867 -0.9293
14238TIP3    H264130   0.680   3.810   2.250  0.1651  0.2162  0.0012
14239TIP3   OH264131   6.263   1.944   2.439 -0.2002 -0.6731  0.3617
14239TIP3    H164132   6.306   2.016   2.392 -0.7643 -1.2749 -1.1293
14239TIP3    H264133   6.297   1.865   2.397 -0.7236 -1.2285  0.9721
14240TIP3   OH264134   2.111   4.417  14.636  0.5667 -0.0925 -0.3838
14240TIP3    H164135   2.172   4.390  14.704 -1.8927 -1.1655  1.5321
14240TIP3    H264136   2.125   4.355  14.565  0.8024 -1.1225  0.5422
14241TIP3   OH264137   6.022   2.480   5.944  0.2644  0.6228  0.1029
14241TIP3    H164138   6.022   2.404   5.887 -0.2026  0.3892  0.4132
14241TIP3    H264139   6.079   2.543   5.900  0.3535  0.2359 -0.3373
14242TIP3   OH264140   5.502   5.265  16.804 -0.3976 -0.4219  0.4988
14242TIP3    H164141   5.477   5.174  16.789  1.6289 -0.9296 -0.2124
14242TIP3    H264142   5.583   5.260  16.855 -1.3988  1.0718  2.3472
14243TIP3   OH264143   4.828   0.033   0.281 -0.3551 -0.2425  0.4787
14243TIP3    H164144   4.790  -0.055   0.291 -0.4128 -0.1917  0.7061
14243TIP3    H264145   4.874   0.029   0.198 -1.0704 -0.2255  0.0733
14244TIP3   OH264146   3.403   3.412  16.067  0.4331  0.7620  0.3229
14244TIP3    H164147   3.488   3.456  16.079  0.6312  0.2475  0.8470
14244TIP3    H264148   3.403   3.385  15.976  0.6705  1.1116  0.2163
14245TIP3   OH264149   3.170   2.274   0.604 -0.2233 -0.0152 -0.5581
14245TIP3    H164150   3.265   2.284   0.595 -0.0021 -2.2220 -1.2387
14245TIP3    H264151   3.135   2.360   0.580  1.5521  0.6134 -1.0867
14246TIP3   OH264152   4.683   3.271   5.281 -0.1085 -0.0785 -0.1988
14246TIP3    H164153   4.687   3.362   5.251  2.7470 -0.0556 -0.0053
14246TIP3    H264154   4.711   3.275   5.373  2.1468 -1.2876 -0.7554
14247TIP3   OH264155   4.732   3.378  12.947 -1.1620  0.6414 -0.6162
14247TIP3    H164156   4.762   3.302  12.897  0.0796  0.6120  0.1408
14247TIP3    H264157   4.643   3.354  12.976 -0.8069 -0.5146 -0.4233
14248TIP3   OH264158   4.964   1.739   3.941  0.1317 -0.2084  0.3493
14248TIP3    H164159   4.890   1.681   3.922  0.1644 -0.5150  1.1193
14248TIP3    H264160   4.937   1.788   4.019 -0.0105  1.0334 -0.4466
14249TIP3   OH264161   6.578   4.470  15.894  0.0479  0.6633  0.0136
14249TIP3    H164162   6.530   4.388  15.895  0.8871  0.0786 -2.0414
14249TIP3    H264163   6.605   4.481  15.803  3.7036  0.9670  0.9729
14250TIP3   OH264164   6.009   6.569  17.195  0.1857  0.0279  0.1477
14250TIP3    H164165   6.055   6.494  17.232 -0.3527 -0.3937 -0.0090
14250TIP3    H264166   6.073   6.639  17.194  1.4392 -1.0529 -1.8967
14251TIP3   OH264167   0.937   1.575  14.354 -0.0787  0.1168  0.2742
14251TIP3    H164168   0.883   1.614  14.285 -1.3269  1.0885  1.7241
14251TIP3    H264169   0.899   1.488  14.368 -1.2212  0.7236  1.1546
14252TIP3   OH264170   4.387   5.694  15.000 -0.1352 -0.1207 -0.0919
14252TIP3    H164171   4.326   5.734  15.062 -0.1409 -0.0449 -0.1463
14252TIP3    H264172   4.464   5.751  15.001  0.4181 -0.8549  0.8571
14253TIP3   OH264173   4.074   5.663  14.022  0.1802  0.3316  0.5501
14253TIP3    H164174   4.026   5.583  14.042 -0.6762  0.2775 -1.5739
14253TIP3    H264175   4.009   5.723  13.986  1.0790  1.4792  0.7588
14254TIP3   OH264176   1.345   0.200   0.595  0.3275 -0.1271  0.1249
14254TIP3    H164177   1.272   0.252   0.562 -0.1189 -0.3478  0.7458
14254TIP3    H264178   1.304   0.135   0.652  0.8611 -1.2417 -0.7293
14255TIP3   OH264179   6.656   4.819  16.211 -0.5775  0.7000 -0.6254
14255TIP3    H164180   6.590   4.876  16.250 -0.1850  0.7981 -0.0841
14255TIP3    H264181   6.739   4.851  16.248 -0.4650 -1.1999  0.9344
14256TIP3   OH264182   5.620   2.474   2.558  0.0751  0.4850  0.2584
14256TIP3    H164183   5.608   2.568   2.564  0.8307  0.5881  0.2927
14256TIP3    H264184   5.692   2.462   2.496  0.9057  0.0140  1.2622
14257TIP3   OH264185   3.229   3.435   0.877  0.5341 -0.1294 -0.8742
14257TIP3    H164186   3.262   3.351   0.844 -0.9684 -1.3795  0.6220
14257TIP3    H264187   3.133   3.425   0.876  0.3613  1.1213  0.4674
14258TIP3   OH264188   1.225   1.132   4.882  0.2345 -0.0770 -0.4256
14258TIP3    H164189   1.231   1.222   4.850  1.5866  0.1927  0.4937
14258TIP3    H264190   1.131   1.113   4.885 -0.1061  1.5668  0.0824
14259TIP3   OH264191   2.442   1.005   4.453  0.0230 -0.5082  0.4349
14259TIP3    H164192   2.435   1.070   4.383  2.1082  0.2974  0.9213
14259TIP3    H264193   2.353   1.000   4.489 -0.1424  2.3867  0.6493
14260TIP3   OH264194   5.544   1.004  13.840  0.3050  0.0211 -0.1702
14260TIP3    H164195   5.510   1.035  13.756 -0.5273  0.6643  0.3888
14260TIP3    H264196   5.619   1.062  13.858  0.9160 -0.5613 -0.7839
14261TIP3   OH264197   2.796   1.520  12.891  0.1648  0.5875 -0.3294
14261TIP3    H164198   2.839   1.606  12.896  0.4039  0.4914 -0.6630
14261TIP3    H264199   2.755   1.519  12.804  0.6800  0.1338 -0.5779
14262TIP3   OH264200   3.929   6.319   1.564  0.0632  0.7382  0.4469
14262TIP3    H164201   4.000   6.362   1.612  1.6530 -2.4173  1.2524
14262TIP3    H264202   3.854   6.322   1.623  0.8373  0.3605  1.4785
14263TIP3   OH264203   1.829   6.120   5.971  0.0498  0.4775 -0.0731
14263TIP3    H164204   1.920   6.090   5.979  0.2732  0.5758 -1.7754
14263TIP3    H264205   1.794   6.114   6.060  1.3597 -0.7147  0.4115
14264TIP3   OH264206   4.915   5.597   0.813 -0.6776 -0.2313  0.2408
14264TIP3    H164207   4.843   5.575   0.753  0.0987  0.8908 -1.1798
14264TIP3    H264208   4.994   5.571   0.766  0.0661  2.4348 -0.1231
14265TIP3   OH264209   4.475   1.120  16.384  0.0265 -0.5761  0.4006
14265TIP3    H164210   4.391   1.108  16.340  1.4675 -1.5995 -2.3433
14265TIP3    H264211   4.539   1.078  16.325  2.6291  1.3061  1.6826
14266TIP3   OH264212   5.323   0.979   2.987 -0.7799  0.3336 -0.6796
14266TIP3    H164213   5.403   0.937   2.955  0.1582  0.4270  1.3911
14266TIP3    H264214   5.345   1.072   2.990 -0.4878  0.2450  1.0244
14267TIP3   OH264215   0.734   6.027   4.824 -0.0465 -0.1715 -0.0122
14267TIP3    H164216   0.661   5.967   4.840  0.1895 -0.3533  0.4115
14267TIP3    H264217   0.704   6.084   4.754 -0.0875 -1.1194 -0.7907
14268TIP3   OH264218   4.988   4.371   3.880  0.2502  0.0841  0.4046
14268TIP3    H164219   4.924   4.412   3.937 -1.5601  0.4228 -1.7282
14268TIP3    H264220   5.053   4.440   3.863  0.6861  0.0460  1.7689
14269TIP3   OH264221   6.623   4.749  13.726 -0.0829  0.2480  0.2267
14269TIP3    H164222   6.541   4.789  13.753 -0.8890  1.5733 -3.5961
14269TIP3    H264223   6.689   4.817  13.743 -0.4609  0.7932 -0.4267
14270TIP3   OH264224   6.243   0.967  13.899  0.3139 -0.2958 -0.0941
14270TIP3    H164225   6.159   0.991  13.939  0.6755 -0.4850  0.8175
14270TIP3    H264226   6.306   0.971  13.972  1.7808  3.0903 -1.3584
14271TIP3   OH264227   1.432   4.997   3.959  0.6063  0.4001 -0.5643
14271TIP3    H164228   1.487   4.959   3.890 -0.9222 -0.6774 -1.2606
14271TIP3    H264229   1.493   5.040   4.018  2.3144 -1.5463 -0.7856
14272TIP3   OH264230   1.664   1.885  14.162 -0.0343 -0.0347  0.1186
14272TIP3    H164231   1.625   1.809  14.203 -2.7411  1.1893  0.0098
14272TIP3    H264232   1.677   1.948  14.234 -0.6220  0.4849 -0.2224
14273TIP3   OH264233   6.613   5.324  14.082 -0.1715 -0.1923 -0.1933
14273TIP3    H164234   6.670   5.305  14.156 -0.4340  1.0859  0.3615
14273TIP3    H264235   6.554   5.249  14.077  1.8050 -1.7808 -1.0881
14274TIP3   OH264236   0.759   2.535   3.206  0.3961 -0.4692 -0.2312
14274TIP3    H164237   0.761   2.493   3.292  1.1644 -0.8724 -0.4319
14274TIP3    H264238   0.692   2.603   3.214  1.5581  0.5906  1.2002
14275TIP3   OH264239   3.210   3.384  15.535 -0.6287  0.7372 -0.5492
14275TIP3    H164240   3.238   3.293  15.538 -1.5637  0.4064 -1.5273
14275TIP3    H264241   3.162   3.393  15.453 -1.9535  1.6819  0.2630
14276TIP3   OH264242   0.582   4.840   3.151 -0.2269  0.1367 -0.1865
14276TIP3    H164243   0.549   4.928   3.132  1.8581  0.6176 -1.8723
14276TIP3    H264244   0.618   4.809   3.068  0.7774 -1.5511  0.8220
14277TIP3   OH264245   0.162   5.618   4.308  0.2206 -0.2751  0.4217
14277TIP3    H164246   0.197   5.680   4.244 -1.5969  0.4082  0.0229
14277TIP3    H264247   0.171   5.532   4.266  2.6388 -0.3209  0.9259
14278TIP3   OH264248   1.534   2.341  12.215  0.2970 -0.0423 -0.2634
14278TIP3    H164249   1.537   2.261  12.268  0.5395 -1.0948 -1.8016
14278TIP3    H264250   1.564   2.313  12.128  0.6799  1.7951 -0.7631
14279TIP3   OH264251   3.610   5.413   0.605  0.3957  0.5400 -0.0768
14279TIP3    H164252   3.571   5.339   0.651 -0.7039  1.5325  0.6337
14279TIP3    H264253   3.704   5.403   0.619  0.1422  0.2924  1.6116
14280TIP3   OH264254   5.156   4.096   1.954 -0.4780 -0.7657 -0.3999
14280TIP3    H164255   5.133   4.007   1.981 -3.2868 -0.3549 -1.1130
14280TIP3    H264256   5.108   4.110   1.872  1.9213  0.5684 -1.6915
14281TIP3   OH264257   1.947   4.296  12.625  0.0931  0.0200 -0.3909
14281TIP3    H164258   1.983   4.207  12.629 -1.2453 -0.5527 -0.5072
14281TIP3    H264259   1.901   4.299  12.541  1.2774  1.2993 -1.0285
14282TIP3   OH264260   2.646   5.605  12.662 -0.6033 -0.3921 -0.2141
14282TIP3    H164261   2.579   5.602  12.730  0.7980 -1.0217  1.1977
14282TIP3    H264262   2.645   5.696  12.631 -1.4377 -0.1602  0.4600
14283TIP3   OH264263   0.761   4.576  14.659  0.0699  0.1569 -0.1929
14283TIP3    H164264   0.779   4.580  14.753 -1.0041  1.8999 -0.0169
14283TIP3    H264265   0.686   4.634  14.647 -0.4543 -0.8333 -1.9942
14284TIP3   OH264266   2.142   2.554  16.984  0.0304 -0.0101  0.2094
14284TIP3    H164267   2.156   2.643  17.016 -1.3270  0.4578 -0.4333
14284TIP3    H264268   2.212   2.539  16.921  1.2579 -0.0351  1.5296
14285TIP3   OH264269   0.663   6.472   2.316  0.1777 -0.5244 -0.0679
14285TIP3    H164270   0.732   6.407   2.324 -0.4667 -1.0599  1.5822
14285TIP3    H264271   0.598   6.432   2.259  0.8839 -0.3030 -1.0515
14286TIP3   OH264272   1.881   4.103  14.843 -0.0287  0.2408 -0.0782
14286TIP3    H164273   1.826   4.076  14.770  1.7472 -1.6053 -0.8226
14286TIP3    H264274   1.932   4.025  14.865  0.3980  1.1235  2.3028
14287TIP3   OH264275   5.847   2.458   2.388  0.7887  0.0862 -0.0798
14287TIP3    H164276   5.869   2.393   2.321  0.2644 -0.0779 -0.0978
14287TIP3    H264277   5.848   2.542   2.341 -0.4237 -0.1164 -0.5068
14288TIP3   OH264278   4.854   2.689  14.985 -0.3505 -0.1985  0.3659
14288TIP3    H164279   4.806   2.770  15.002 -0.3252 -0.3476  1.1482
14288TIP3    H264280   4.946   2.713  14.998 -0.0263  0.4510 -2.4669
14289TIP3   OH264281   4.361   5.379   3.480  0.2716  0.2054 -0.2624
14289TIP3    H164282   4.428   5.435   3.518  0.5419  0.0511 -0.5051
14289TIP3    H264283   4.278   5.414   3.513  0.3886  1.1640 -0.9349
14290TIP3   OH264284   1.094   0.885   3.328  0.4199  0.4269  0.0704
14290TIP3    H164285   1.083   0.792   3.306 -2.1099  0.2210  1.7506
14290TIP3    H264286   1.184   0.892   3.358  0.6731 -1.5070 -0.0985
14291TIP3   OH264287   5.092   0.156   0.794 -0.1488 -0.2119  0.4386
14291TIP3    H164288   5.097   0.063   0.773 -0.9398  0.2588 -2.0412
14291TIP3    H264289   5.036   0.160   0.872  1.2603 -1.8901  1.6219
14292TIP3   OH264290   1.255   1.417   4.890  0.2105  0.3894 -0.2546
14292TIP3    H164291   1.327   1.478   4.910  1.4111 -1.1630  0.3747
14292TIP3    H264292   1.220   1.393   4.975 -0.9407  0.9442 -0.5495
14293TIP3   OH264293   1.126   6.215  14.276 -0.1532  0.6666 -0.3695
14293TIP3    H164294   1.139   6.306  14.250  2.6296  0.6321  0.5614
14293TIP3    H264295   1.112   6.169  14.193  0.4578  1.6713 -1.0541
14294TIP3   OH264296   2.220   0.966  15.059 -0.6538  0.5627 -0.5048
14294TIP3    H164297   2.304   1.010  15.058 -0.7242  0.8597  1.4380
14294TIP3    H264298   2.234   0.884  15.012  1.0210  0.1499  0.6325
14295TIP3   OH264299   2.630   4.611  12.143 -0.1434  0.3657 -0.2608
14295TIP3    H164300   2.551   4.603  12.196 -0.4432 -0.7474 -0.8321
14295TIP3    H264301   2.701   4.590  12.203 -0.5145 -1.3605 -0.3720
14296TIP3   OH264302   3.851   4.632   2.015  0.1912  0.3827 -0.7681
14296TIP3    H164303   3.784   4.700   2.011 -1.9037 -1.5241 -0.2387
14296TIP3    H264304   3.918   4.668   2.073 -1.3125  1.6395  0.2988
14297TIP3   OH264305   1.952   2.775  14.004 -0.6030 -0.1275 -0.0991
14297TIP3    H164306   1.903   2.752  14.083  0.9453 -0.7072  0.7304
14297TIP3    H264307   1.919   2.862  13.980 -1.2564 -0.0355  1.0615
14298TIP3   OH264308   0.013   0.987   4.536  0.2488 -0.3376  0.1264
14298TIP3    H164309   0.083   0.984   4.601 -0.1641 -0.5530  0.5686
14298TIP3    H264310  -0.063   1.017   4.585 -0.1603 -0.8639 -0.1740
14299TIP3   OH264311   1.773   6.346   3.226  0.1480 -0.2404 -0.3533
14299TIP3    H164312   1.835   6.282   3.261  0.0823  0.2107  0.6034
14299TIP3    H264313   1.720   6.296   3.164  1.0685 -0.7683 -0.7326
14300TIP3   OH264314   2.820   6.264   1.493  0.4864 -0.5604 -0.0385
14300TIP3    H164315   2.843   6.272   1.400  0.3947 -0.4799 -0.0544
14300TIP3    H264316   2.884   6.319   1.538  0.2896 -0.2888 -0.0884
14301TIP3   OH264317   3.266   4.465   1.654  0.5177 -0.1881 -0.6564
14301TIP3    H164318   3.241   4.455   1.562 -1.0023 -1.9080 -0.1258
14301TIP3    H264319   3.214   4.539   1.685  0.2110 -0.2804 -0.9423
14302TIP3   OH264320   6.306   5.014   0.481 -0.3481  0.0557  0.0424
14302TIP3    H164321   6.257   5.086   0.441  1.0514  0.8389 -0.3126
14302TIP3    H264322   6.303   5.032   0.575 -0.0232  0.5680 -0.0444
14303TIP3   OH264323   1.538   3.924   1.096  0.0664  0.1905  0.3306
14303TIP3    H164324   1.502   3.867   1.164 -0.6642  0.6979  0.3766
14303TIP3    H264325   1.615   3.964   1.137 -0.2958  0.3971  0.8258
14304TIP3   OH264326   4.510   5.267  16.340 -0.3832 -0.0272 -0.0593
14304TIP3    H164327   4.415   5.282  16.342 -0.8155 -2.2735 -0.9985
14304TIP3    H264328   4.532   5.268  16.247  0.2019 -1.1924  0.0535
14305TIP3   OH264329   1.507   3.787   0.857 -0.1530  0.2506  0.1330
14305TIP3    H164330   1.541   3.860   0.806  4.1966 -1.7538 -0.2175
14305TIP3    H264331   1.527   3.810   0.948  1.1235 -0.3821  0.0307
14306TIP3   OH264332   3.356   0.820   1.292 -0.1913 -0.4982 -0.4770
14306TIP3    H164333   3.312   0.905   1.294  2.4708  0.9644  0.2075
14306TIP3    H264334   3.448   0.841   1.278  0.7258 -3.2178  0.8466
14307TIP3   OH264335   4.893   2.220   5.780  0.5050 -0.0909  1.0034
14307TIP3    H164336   4.864   2.205   5.870  0.4664 -0.9438  0.8623
14307TIP3    H264337   4.851   2.150   5.729 -2.2530  2.3339 -0.3186
14308TIP3   OH264338   2.366   0.980  11.908 -0.1228 -0.1926  0.1913
14308TIP3    H164339   2.439   1.035  11.881 -2.4659  2.7438 -0.6324
14308TIP3    H264340   2.376   0.973  12.003 -0.9721  3.8715  0.7448
14309TIP3   OH264341   3.504   5.136   0.317  0.0140 -0.5785  1.1687
14309TIP3    H164342   3.495   5.041   0.310  1.7846 -0.8877  2.3806
14309TIP3    H264343   3.595   5.149   0.343 -0.5109  1.3917  2.1600
14310TIP3   OH264344   2.982   4.187  16.185 -0.0085  0.4372 -0.5344
14310TIP3    H164345   2.952   4.096  16.195 -0.9373  0.9156  1.4208
14310TIP3    H264346   2.915   4.227  16.130  1.0142 -0.3009 -2.4042
14311TIP3   OH264347   2.238   0.907   3.564  0.7628 -0.3728 -0.4568
14311TIP3    H164348   2.157   0.947   3.532  1.0420  0.8743  0.3456
14311TIP3    H264349   2.286   0.883   3.485  1.4107  2.5653 -1.0360
14312TIP3   OH264350   3.998   4.857  16.131  0.5001 -0.3628  0.2463
14312TIP3    H164351   4.060   4.798  16.086  0.5874 -0.0791 -0.0048
14312TIP3    H264352   3.986   4.930  16.070 -1.2650 -1.1242 -0.3780
14313TIP3   OH264353   0.137   6.489   0.576 -0.0194 -0.7219  0.3153
14313TIP3    H164354   0.147   6.574   0.620 -1.3969 -0.5405  0.3068
14313TIP3    H264355   0.154   6.425   0.644 -2.1667 -0.4431  1.1778
14314TIP3   OH264356   3.047   5.227  17.052 -0.0126  0.0918 -0.2130
14314TIP3    H164357   3.056   5.291  17.122  0.2179 -1.4368  1.2099
14314TIP3    H264358   3.127   5.175  17.056 -0.8829 -1.2992 -0.2658
14315TIP3   OH264359   0.393   3.287   2.020  0.2167 -0.5736 -0.1773
14315TIP3    H164360   0.484   3.293   2.051  0.0079  1.1354  0.1902
14315TIP3    H264361   0.340   3.291   2.099 -0.1969 -1.6639 -0.3835
14316TIP3   OH264362   1.880   1.445   1.527 -0.3803 -0.4054 -0.1673
14316TIP3    H164363   1.931   1.500   1.468 -1.7604  0.8568 -0.2471
14316TIP3    H264364   1.934   1.435   1.605  0.2422  0.3645 -0.4984
14317TIP3   OH264365   4.833   0.728  13.221  0.5787 -0.3120  0.1721
14317TIP3    H164366   4.886   0.679  13.158 -0.0326 -0.6180 -0.1089
14317TIP3    H264367   4.824   0.815  13.181  0.3632 -0.4438 -0.0702
14318TIP3   OH264368   1.735   3.405  15.984 -0.1092  0.2156  0.0218
14318TIP3    H164369   1.764   3.469  15.919  1.0746  1.9803  2.1533
14318TIP3    H264370   1.662   3.449  16.029  0.5202 -0.0103  1.3112
14319TIP3   OH264371   4.441   0.363   3.201 -0.2492 -0.3605 -0.0402
14319TIP3    H164372   4.361   0.394   3.243  1.1998 -0.8215  3.3691
14319TIP3    H264373   4.500   0.439   3.202  0.6198 -1.0146  1.0645
14320TIP3   OH264374   2.630   5.424  11.540 -0.3194 -0.0191 -0.8702
14320TIP3    H164375   2.615   5.453  11.451 -0.2044 -0.7694 -1.1463
14320TIP3    H264376   2.617   5.329  11.537 -0.1945 -0.0715 -0.1180
14321TIP3   OH264377   6.109   1.503  12.990  0.0220  0.2274 -0.2425
14321TIP3    H164378   6.094   1.447  13.066  1.2352  0.0297 -0.1219
14321TIP3    H264379   6.024   1.507  12.946 -1.0944  1.5068  1.8531
14322TIP3   OH264380   6.626   2.838   3.197  0.2752 -0.0371 -0.0156
14322TIP3    H164381   6.583   2.903   3.141  2.8411  2.0350  0.2491
14322TIP3    H264382   6.671   2.780   3.136  0.8801  0.6015 -0.1858
14323TIP3   OH264383   4.392   4.657  13.869  0.4402 -0.0740  0.0309
14323TIP3    H164384   4.414   4.565  13.859  2.5980  0.2204  1.5977
14323TIP3    H264385   4.398   4.674  13.963 -0.1076  1.6360 -0.2021
14324TIP3   OH264386   0.309   1.652  16.526  0.4026 -0.1098  0.2524
14324TIP3    H164387   0.216   1.630  16.528  0.1201  0.7060 -1.7588
14324TIP3    H264388   0.325   1.692  16.611 -0.3715 -2.7346  1.7648
14325TIP3   OH264389   0.723   6.161   2.097  0.1888 -0.0680 -0.1589
14325TIP3    H164390   0.800   6.158   2.154 -0.1691  0.5173  0.3749
14325TIP3    H264391   0.755   6.134   2.011  0.7265 -1.0108  0.3239
14326TIP3   OH264392   6.337   1.352  16.371 -0.2949 -0.2893 -0.4029
14326TIP3    H164393   6.293   1.344  16.286 -0.9343 -2.2873  0.0435
14326TIP3    H264394   6.379   1.266  16.383 -0.2845 -0.0595  1.3312
14327TIP3   OH264395   6.248   1.015   3.566  0.2354 -0.6141  0.4038
14327TIP3    H164396   6.170   1.014   3.510 -0.9834  0.3517  2.0122
14327TIP3    H264397   6.217   0.985   3.651  2.1849 -2.6836  0.4995
14328TIP3   OH264398   3.095   4.628  16.126 -0.0059 -0.0098 -0.1113
14328TIP3    H164399   3.011   4.582  16.126 -0.2604  0.4206 -1.2801
14328TIP3    H264400   3.093   4.681  16.046  0.5537  1.5273  0.8545
14329TIP3   OH264401   3.462   4.426  14.925  0.0091 -0.1217  0.0171
14329TIP3    H164402   3.451   4.520  14.930  1.6643  0.2695 -2.2197
14329TIP3    H264403   3.551   4.413  14.893  0.0700 -2.4862  0.8744
14330TIP3   OH264404   1.759   3.397   5.421 -0.2279  0.5599  0.3235
14330TIP3    H164405   1.854   3.407   5.414 -0.3462  1.6782  0.1718
14330TIP3    H264406   1.735   3.345   5.345  0.1644  0.9969 -0.1059
14331TIP3   OH264407   6.436   1.501   4.598 -0.1322  0.5927  0.3634
14331TIP3    H164408   6.394   1.572   4.549 -0.6349  0.5820  0.7748
14331TIP3    H264409   6.510   1.543   4.643 -1.3865  1.2231  1.9332
14332TIP3   OH264410   6.464   0.484   5.587  0.0976  0.4620 -0.2467
14332TIP3    H164411   6.481   0.577   5.602 -1.8045  0.7400  0.4835
14332TIP3    H264412   6.484   0.470   5.495 -0.5386  1.8455 -0.6145
14333TIP3   OH264413   2.854   0.700  16.139  0.3532  0.1718  0.2465
14333TIP3    H164414   2.786   0.764  16.118 -0.7886 -1.2745 -0.6570
14333TIP3    H264415   2.891   0.674  16.055 -1.0395 -2.2379  0.2763
14334TIP3   OH264416   6.008   5.672   2.058  1.0584  0.2230 -0.0318
14334TIP3    H164417   6.038   5.695   2.146  2.3321 -1.6496  0.0814
14334TIP3    H264418   5.923   5.631   2.071  0.4319  1.5039  0.1086
14335TIP3   OH264419   4.495   4.746   5.606  0.1819  0.2087 -0.4030
14335TIP3    H164420   4.527   4.808   5.540  1.2994  3.0175  2.5278
14335TIP3    H264421   4.418   4.788   5.644 -0.0064 -0.9878  0.6023
14336TIP3   OH264422   0.530   3.771   3.048 -0.1566 -0.4152  0.2667
14336TIP3    H164423   0.487   3.704   2.994  1.7248 -0.2859 -1.5224
14336TIP3    H264424   0.573   3.721   3.118 -0.7106 -0.8178  0.3273
14337TIP3   OH264425   0.316   1.260  15.774  0.6278  0.3225  0.0461
14337TIP3    H164426   0.265   1.249  15.855  0.3883  0.2527 -0.1116
14337TIP3    H264427   0.403   1.284  15.803  0.3760  0.9310  0.3122
14338TIP3   OH264428   3.419   5.800  12.196 -0.4091  0.6737  0.1070
14338TIP3    H164429   3.456   5.854  12.265  2.6559 -1.2537  0.1309
14338TIP3    H264430   3.407   5.860  12.122  1.3143  1.7322  0.6444
14339TIP3   OH264431   3.975   4.239   2.500 -0.3064 -0.3204 -0.5595
14339TIP3    H164432   4.060   4.246   2.456  0.6017  0.1853  1.1533
14339TIP3    H264433   3.963   4.325   2.541 -1.0182 -0.8152  0.3013
14340TIP3   OH264434   3.515   0.183   2.783 -0.3939 -0.2651 -0.2512
14340TIP3    H164435   3.472   0.138   2.710  0.0941  1.4421 -1.6739
14340TIP3    H264436   3.443   0.222   2.833 -0.6982 -0.8656 -0.2146
14341TIP3   OH264437   2.745   1.181   4.623 -0.1016  0.1162  0.3484
14341TIP3    H164438   2.689   1.166   4.699 -0.0504  0.7412  0.5148
14341TIP3    H264439   2.691   1.231   4.562 -0.3958 -1.0292 -0.3591
14342TIP3   OH264440   5.403   4.452   3.538 -0.6483 -0.5459 -0.6828
14342TIP3    H164441   5.343   4.516   3.579 -0.5046 -0.4513 -0.6185
14342TIP3    H264442   5.345   4.383   3.505 -1.0665  0.8708 -3.1203
14343TIP3   OH264443   2.454   5.135   0.612 -0.7089 -0.3137  0.8618
14343TIP3    H164444   2.509   5.188   0.555  1.2868 -0.9624  2.0555
14343TIP3    H264445   2.481   5.160   0.701 -2.0862 -0.9579  1.4921
14344TIP3   OH264446   4.752   2.147   4.494 -0.5434 -0.0209 -0.1763
14344TIP3    H164447   4.788   2.204   4.562 -1.1111  1.6506 -1.2392
14344TIP3    H264448   4.827   2.096   4.464 -0.0406  0.0902  0.8537
14345TIP3   OH264449   5.158   4.847  14.698 -0.2441  0.1670 -0.1696
14345TIP3    H164450   5.172   4.934  14.661 -0.5753  0.3808  0.2141
14345TIP3    H264451   5.171   4.788  14.623  1.2616  0.4439 -0.1669
14346TIP3   OH264452   3.605   5.997  15.650  0.4831  0.2627  0.2496
14346TIP3    H164453   3.700   6.004  15.655  0.5424  0.3540 -0.9033
14346TIP3    H264454   3.584   5.920  15.704  1.2687 -0.1822 -0.0696
14347TIP3   OH264455   6.710   0.353  14.129  0.4426  0.0441 -0.5087
14347TIP3    H164456   6.758   0.423  14.173 -0.3559 -0.1155  0.6551
14347TIP3    H264457   6.722   0.370  14.036  1.9952  0.5155 -0.2413
14348TIP3   OH264458   5.862   5.720  14.932  0.7052  0.3395 -0.2825
14348TIP3    H164459   5.799   5.756  14.995  1.3665  3.4520 -1.2223
14348TIP3    H264460   5.821   5.732  14.847  1.2124 -0.7477 -0.7028
14349TIP3   OH264461   0.940   4.718   4.902 -0.5984 -0.0391  0.6830
14349TIP3    H164462   1.014   4.751   4.954  1.9246 -2.7921 -0.9054
14349TIP3    H264463   0.969   4.726   4.811 -2.3608 -1.0026 -0.0031
14350TIP3   OH264464   1.361   1.820   2.966  0.3750 -0.7084 -0.0962
14350TIP3    H164465   1.387   1.735   3.000 -0.0545 -0.4074  1.0176
14350TIP3    H264466   1.266   1.819   2.966  0.3338  0.2726  1.3014
14351TIP3   OH264467   2.329   1.440   5.923  0.6234  0.1284 -0.2048
14351TIP3    H164468   2.234   1.428   5.914  0.7727 -0.2369 -1.6134
14351TIP3    H264469   2.356   1.375   5.988  0.1242 -0.9146 -1.0123
14352TIP3   OH264470   5.829   2.136  15.809 -0.1381 -0.1210  0.0704
14352TIP3    H164471   5.756   2.101  15.859 -0.6039  1.5509  0.6005
14352TIP3    H264472   5.851   2.218  15.851  1.4668 -0.1389 -0.6358
14353TIP3   OH264473   5.590   5.582   5.840  0.5487  0.5721  0.7838
14353TIP3    H164474   5.551   5.626   5.916 -2.6763 -1.6366  0.5758
14353TIP3    H264475   5.612   5.495   5.871  2.0595  0.5986 -0.1091
14354TIP3   OH264476   0.966   1.152  12.460  0.0586 -0.2371 -0.0110
14354TIP3    H164477   0.924   1.142  12.545 -0.9710 -1.0136 -0.5909
14354TIP3    H264478   1.039   1.091  12.461  0.1431 -0.1287  0.3732
14355TIP3   OH264479   6.339   6.708   4.451 -1.2854 -0.0369  0.1670
14355TIP3    H164480   6.299   6.636   4.403 -1.7605 -1.1346  2.0916
14355TIP3    H264481   6.426   6.717   4.412 -1.5356 -1.0957 -0.6881
14356TIP3   OH264482   1.018   6.468  14.191  0.0924 -0.0789  0.2832
14356TIP3    H164483   1.017   6.540  14.254  1.3579  0.3525 -0.1617
14356TIP3    H264484   0.932   6.427  14.200 -0.0028  0.3830  1.8210
14357TIP3   OH264485   4.101   4.771   0.480  0.4783  0.0249  0.0168
14357TIP3    H164486   4.051   4.697   0.516 -0.1794  0.3600 -0.1875
14357TIP3    H264487   4.112   4.749   0.388  0.6408 -0.0112  0.0450
14358TIP3   OH264488   3.853   1.729  14.713  0.4291 -0.2113 -0.2474
14358TIP3    H164489   3.830   1.723  14.621 -0.2634 -0.8957 -0.0459
14358TIP3    H264490   3.948   1.715  14.715  0.4806  0.0092 -0.8646
14359TIP3   OH264491   4.182   6.207   5.111  0.2799  0.2685  0.3044
14359TIP3    H164492   4.196   6.213   5.205 -0.3372  1.6819  0.3362
14359TIP3    H264493   4.270   6.198   5.074  0.4619 -1.2758  1.0480
14360TIP3   OH264494   0.721   6.552   4.675 -0.5629  0.4677 -0.4514
14360TIP3    H164495   0.800   6.504   4.649 -1.2350 -2.5582  2.3317
14360TIP3    H264496   0.747   6.595   4.757 -1.6251 -0.1242  0.2071
14361TIP3   OH264497   1.377   6.773   3.606  0.4152 -0.4073  0.0541
14361TIP3    H164498   1.453   6.831   3.607  0.8393 -0.9447 -0.3775
14361TIP3    H264499   1.362   6.754   3.514 -0.3720 -0.1480  0.1220
14362TIP3   OH264500   0.824   2.045  16.661 -0.1329 -0.6776 -0.2311
14362TIP3    H164501   0.777   1.977  16.710  0.3706 -0.7587  0.1447
14362TIP3    H264502   0.916   2.027  16.677  0.0023  0.5871  0.5460
14363TIP3   OH264503   0.975   6.570  13.042  0.2989  0.5493  0.0987
14363TIP3    H164504   0.879   6.570  13.039  0.2982 -0.8923 -0.5072
14363TIP3    H264505   0.998   6.483  13.076  1.4134  0.4839 -0.7940
14364TIP3   OH264506   0.374   6.574  15.672  0.0917  0.0603 -0.1095
14364TIP3    H164507   0.403   6.661  15.646 -0.2559  0.3122  0.3467
14364TIP3    H264508   0.294   6.560  15.622 -0.5823  0.5485  0.8203
14365TIP3   OH264509   5.965   2.997  15.314  0.7208  0.1329  0.1913
14365TIP3    H164510   5.917   2.934  15.261  0.1625  0.2946  0.5001
14365TIP3    H264511   5.902   3.068  15.330  1.2836  0.6899 -0.0061
14366TIP3   OH264512   2.519   5.056  14.245  0.7352  0.3181  0.2047
14366TIP3    H164513   2.585   5.000  14.204 -0.5100 -0.1189 -1.2998
14366TIP3    H264514   2.441   5.045  14.191  0.4680  3.6820 -0.2924
14367TIP3   OH264515   4.084   0.072  15.836 -0.4068 -0.2231  0.2980
14367TIP3    H164516   4.057  -0.009  15.794 -2.0708  0.4256  0.0272
14367TIP3    H264517   4.125   0.123  15.766 -0.5937 -0.3002  0.1287
14368TIP3   OH264518   3.868   4.438  13.764  0.0137 -0.0300  0.2005
14368TIP3    H164519   3.830   4.506  13.707  1.3586 -0.7400 -1.6422
14368TIP3    H264520   3.824   4.450  13.848 -1.2001  1.8521 -0.6339
14369TIP3   OH264521   3.739   4.886   2.088  0.3553  0.1651  0.0687
14369TIP3    H164522   3.672   4.915   2.149  0.9948  0.6383  0.5482
14369TIP3    H264523   3.815   4.941   2.106  0.5681  0.3056 -1.1362
14370TIP3   OH264524   1.539   6.053  13.627  0.2491 -0.4002  0.2162
14370TIP3    H164525   1.585   6.103  13.560  0.3779 -3.3056 -2.0849
14370TIP3    H264526   1.460   6.103  13.645  0.1691  0.4809 -2.2155
14371TIP3   OH264527   1.981   2.540  10.558 -0.0803  0.2190 -0.5945
14371TIP3    H164528   1.917   2.567  10.493 -1.7159 -0.5786  0.6245
14371TIP3    H264529   2.006   2.452  10.532 -0.1534  0.1928 -0.5764
14372TIP3   OH264530   4.948   2.109  14.898 -0.5421 -0.0883 -0.5189
14372TIP3    H164531   4.907   2.195  14.911 -1.2528 -0.1963 -1.9192
14372TIP3    H264532   4.876   2.054  14.867 -0.3052 -1.4467  1.1695
14373TIP3   OH264533   4.660   5.559   4.235  0.2102  0.2963  0.1757
14373TIP3    H164534   4.710   5.497   4.182  2.6588  0.3349  2.2662
14373TIP3    H264535   4.677   5.533   4.325 -1.1750  2.1926  1.0488
14374TIP3   OH264536   2.230   5.150  13.920 -0.2562  0.5670  0.4994
14374TIP3    H164537   2.147   5.174  13.878 -0.4060 -1.1139 -0.2317
14374TIP3    H264538   2.294   5.211  13.883 -0.4201 -0.6824 -2.1315
14375TIP3   OH264539   2.818   4.387   4.695  0.0777  0.4096 -0.3695
14375TIP3    H164540   2.850   4.334   4.768 -0.7085  1.4489  0.7710
14375TIP3    H264541   2.897   4.417   4.650  0.6573  1.1134  1.0574
14376TIP3   OH264542   6.181   1.151  14.853  0.0983 -0.0237 -0.1640
14376TIP3    H164543   6.249   1.115  14.795  1.7318 -0.5070  1.9436
14376TIP3    H264544   6.107   1.091  14.843  1.0868 -1.2764 -0.2367
14377TIP3   OH264545   0.569   0.257  14.513 -1.0589  0.0392  0.0603
14377TIP3    H164546   0.560   0.339  14.464  0.6787  0.1053 -0.1882
14377TIP3    H264547   0.639   0.274  14.575 -0.8260 -1.1943  0.1468
14378TIP3   OH264548   1.594   5.901   1.725 -0.3148  0.1997  0.2131
14378TIP3    H164549   1.682   5.895   1.764  0.1485  0.1761 -0.7895
14378TIP3    H264550   1.610   5.928   1.634 -1.3089 -0.3588 -0.1459
14379TIP3   OH264551   4.731   5.597   1.867  0.4858 -0.4665 -0.1047
14379TIP3    H164552   4.799   5.532   1.847  3.0611  1.3187  2.0515
14379TIP3    H264553   4.746   5.667   1.803  2.8158  1.2361  2.0923
14380TIP3   OH264554   3.960   2.137   4.685  0.2831 -0.5582  0.3897
14380TIP3    H164555   3.896   2.136   4.614  1.7825  0.6724 -1.0904
14380TIP3    H264556   4.042   2.108   4.644  1.3303  0.7463  1.4411
14381TIP3   OH264557   1.703   5.888  17.187  0.2270  0.4154  0.6577
14381TIP3    H164558   1.632   5.952  17.177 -1.8097 -1.5773  1.5008
14381TIP3    H264559   1.754   5.896  17.106 -2.1754  0.5396 -0.9396
14382TIP3   OH264560   4.765   5.134   6.791  0.2091  0.0831 -0.0714
14382TIP3    H164561   4.840   5.117   6.848  1.1093  0.7615 -1.0221
14382TIP3    H264562   4.802   5.133   6.703 -1.0355 -0.2562 -0.6044
14383TIP3   OH264563   1.058   2.195  16.208 -0.3001 -0.1992 -0.0927
14383TIP3    H164564   1.011   2.134  16.264 -0.8706 -0.2244 -0.5827
14383TIP3    H264565   1.127   2.143  16.167 -2.0381 -1.0780 -2.0946
14384TIP3   OH264566   1.189   3.229  15.400 -0.3038  0.3772  0.5143
14384TIP3    H164567   1.097   3.244  15.381 -0.8590 -1.3438  1.6552
14384TIP3    H264568   1.191   3.205  15.493  0.9934 -1.7069  0.0165
14385TIP3   OH264569   2.875   0.421  11.564  0.0864 -0.1410 -0.2200
14385TIP3    H164570   2.839   0.509  11.553 -1.4068 -0.7913 -0.9170
14385TIP3    H264571   2.811   0.377  11.620  0.4035 -1.0090 -0.5355
14386TIP3   OH264572   0.264   5.719   3.978 -0.0263  0.9457  0.1396
14386TIP3    H164573   0.257   5.807   4.014 -1.8818  1.3466 -1.0665
14386TIP3    H264574   0.201   5.717   3.906  0.8055 -1.0120 -0.6109
14387TIP3   OH264575   1.811   2.822   0.613 -0.3080  0.2779  0.8974
14387TIP3    H164576   1.721   2.835   0.584  0.0039  0.0191 -0.2474
14387TIP3    H264577   1.829   2.898   0.669 -0.7798  1.0978 -0.0237
14388TIP3   OH264578   0.646   3.135  11.422 -0.4560  0.2737  0.0197
14388TIP3    H164579   0.572   3.093  11.465  0.3353 -2.4096 -1.0815
14388TIP3    H264580   0.607   3.184  11.349 -1.4015  1.6571  1.3863
14389TIP3   OH264581   4.135   2.423  14.904 -0.0402 -0.1789  0.1969
14389TIP3    H164582   4.138   2.359  14.832  0.6929  0.0852 -0.0140
14389TIP3    H264583   4.124   2.507  14.861 -0.8063 -0.1360  0.4664
14390TIP3   OH264584   2.813   1.256  11.804  0.4118  0.0843 -0.1745
14390TIP3    H164585   2.903   1.258  11.837  0.5399 -1.0898 -0.4024
14390TIP3    H264586   2.820   1.214  11.719 -0.3162  0.2628 -0.3258
14391TIP3   OH264587   5.888   5.520  14.352 -0.0072 -0.1263 -0.0911
14391TIP3    H164588   5.888   5.460  14.277  1.4013  1.8708 -1.8324
14391TIP3    H264589   5.940   5.476  14.418 -0.3833 -1.5054 -0.6629
14392TIP3   OH264590   1.041   5.712  13.753  0.2917  0.5865  0.2550
14392TIP3    H164591   1.073   5.801  13.739 -0.0242  0.9324  1.5865
14392TIP3    H264592   0.946   5.719  13.742  0.0892  0.7645  1.9018
14393TIP3   OH264593   5.879   1.060   1.322  0.8788  1.4006  0.5592
14393TIP3    H164594   5.933   1.026   1.250  1.3942  1.1963  1.0357
14393TIP3    H264595   5.871   1.153   1.303 -0.9924  0.9828 -1.0488
14394TIP3   OH264596   3.807   5.872   1.144 -0.4222 -0.3212  0.1989
14394TIP3    H164597   3.780   5.962   1.123  0.4923 -0.1653 -0.3441
14394TIP3    H264598   3.820   5.873   1.239 -1.5737 -0.2058  0.3672
14395TIP3   OH264599   1.219   5.946   5.023 -0.6326 -0.6910 -0.2388
14395TIP3    H164600   1.185   5.926   4.936  0.6353 -0.4843 -0.8113
14395TIP3    H264601   1.179   6.029   5.046 -0.4995 -0.4250 -0.9205
14396TIP3   OH264602   2.532   0.390   1.592 -0.1208 -0.9870  0.2425
14396TIP3    H164603   2.503   0.393   1.501  0.7909 -0.8059 -0.0571
14396TIP3    H264604   2.461   0.429   1.642  0.3192  1.0536 -0.6405
14397TIP3   OH264605   3.619   5.760   1.626 -0.9167  0.0991  0.6357
14397TIP3    H164606   3.674   5.685   1.649  2.0730  1.6836 -0.7722
14397TIP3    H264607   3.600   5.750   1.533  1.6494  2.1583 -0.2447
14398TIP3   OH264608   2.515   3.364   4.079  0.3901  0.1801 -0.3801
14398TIP3    H164609   2.593   3.419   4.079 -0.0244  0.7730  0.0245
14398TIP3    H264610   2.442   3.426   4.077 -0.1941 -0.1671  3.2241
14399TIP3   OH264611   0.002   3.863   5.871 -0.5084  0.6148  0.1276
14399TIP3    H164612   0.002   3.818   5.956  1.8106  0.9310  0.3640
14399TIP3    H264613  -0.010   3.956   5.893 -0.1681  0.6672  0.0991
14400TIP3   OH264614   6.351   3.137   1.779 -0.4506  0.0136 -0.3467
14400TIP3    H164615   6.258   3.130   1.755 -1.2613  2.1395  1.8009
14400TIP3    H264616   6.371   3.230   1.770  1.2594 -0.2971 -0.0132
14401TIP3   OH264617   0.156   2.026  15.531 -0.0469  0.0443 -0.5656
14401TIP3    H164618   0.077   2.042  15.582  0.4655  1.2777 -0.1134
14401TIP3    H264619   0.214   1.979  15.591 -1.1039 -2.6958 -1.5164
14402TIP3   OH264620   2.396   0.568  13.489  0.1541 -0.5563 -0.0358
14402TIP3    H164621   2.423   0.660  13.486 -0.6160 -0.2482  1.5493
14402TIP3    H264622   2.437   0.533  13.567  1.4922 -1.9613 -1.3029
14403TIP3   OH264623   4.616   6.108   1.842  0.4505  0.7855  0.4669
14403TIP3    H164624   4.551   6.080   1.907  0.6977  0.0361  0.4037
14403TIP3    H264625   4.576   6.184   1.800 -1.3644 -0.8697 -1.0230
14404TIP3   OH264626   5.542   1.409  10.522  0.2477 -0.1363  0.1880
14404TIP3    H164627   5.544   1.355  10.443  1.0378  2.2561 -1.5362
14404TIP3    H264628   5.631   1.442  10.532 -0.1767  0.7708  1.2324
14405TIP3   OH264629   2.365   5.684  16.930 -0.5955  0.0284  0.4434
14405TIP3    H164630   2.373   5.764  16.877  0.0293  1.1145  2.0920
14405TIP3    H264631   2.447   5.638  16.916  0.6475  1.5302  2.2696
14406TIP3   OH264632   2.662   0.184  13.883  0.4642  0.0095 -0.1950
14406TIP3    H164633   2.618   0.224  13.809  0.1998 -2.0574 -1.2213
14406TIP3    H264634   2.704   0.106  13.847  0.5399 -0.9234  1.7763
14407TIP3   OH264635   0.070   6.636   5.424 -0.1172  0.3620 -0.2352
14407TIP3    H164636   0.110   6.679   5.349  0.0070  1.4883  0.4639
14407TIP3    H264637   0.006   6.576   5.385  0.9971 -0.1871 -1.2879
14408TIP3   OH264638   0.133   6.269  15.893  0.2846 -0.2564 -0.9591
14408TIP3    H164639   0.102   6.227  15.973  2.3008  0.7692  0.4445
14408TIP3    H264640   0.158   6.197  15.836  0.3351 -1.0112 -0.0180
14409TIP3   OH264641   0.826   3.621   3.455  0.2704  0.2720  0.0079
14409TIP3    H164642   0.792   3.614   3.544 -0.1250  1.1382 -0.0671
14409TIP3    H264643   0.832   3.715   3.439  1.3565  0.1343 -0.5001
14410TIP3   OH264644   2.612   5.008  12.934 -0.2130  0.2364  0.9345
14410TIP3    H164645   2.654   5.094  12.934 -2.8362  1.6277  0.0541
14410TIP3    H264646   2.518   5.027  12.942 -0.9025 -2.5370  0.4134
14411TIP3   OH264647   5.083   4.551  16.155 -0.6399 -0.7949  0.0271
14411TIP3    H164648   5.043   4.626  16.199  1.6170  0.2091  0.5632
14411TIP3    H264649   5.037   4.475  16.189 -0.7710  0.1453  2.0738
14412TIP3   OH264650   6.754   0.840   0.933  0.0514  0.2517  0.5170
14412TIP3    H164651   6.742   0.935   0.944 -2.0493  0.0042  0.7454
14412TIP3    H264652   6.752   0.827   0.838  3.1801  0.6949  0.2986
14413TIP3   OH264653   2.323   1.595   4.013 -0.2238 -0.5422  0.7760
14413TIP3    H164654   2.320   1.543   3.933  1.5148 -1.5660  1.3425
14413TIP3    H264655   2.413   1.588   4.044  0.0163  2.4492  1.1364
14414TIP3   OH264656   2.743   6.043  16.744 -0.2123 -0.5165  0.3037
14414TIP3    H164657   2.819   6.082  16.788 -0.0011 -1.5519  0.8848
14414TIP3    H264658   2.668   6.071  16.796 -0.2994  0.8724 -0.5200
14415TIP3   OH264659   3.534   0.869   4.355  0.4064 -0.0250  0.2496
14415TIP3    H164660   3.538   0.820   4.437 -1.0236 -1.1530 -0.3102
14415TIP3    H264661   3.568   0.808   4.289 -0.2706  0.1628 -0.2818
14416TIP3   OH264662   2.257   2.056   4.575 -0.4742  0.1870  0.1575
14416TIP3    H164663   2.196   2.128   4.558 -0.3342  0.0838 -0.8408
14416TIP3    H264664   2.341   2.087   4.542  0.1570  0.5071  1.9434
14417TIP3   OH264665   1.892   2.223   5.709 -0.4819 -0.2874  0.6576
14417TIP3    H164666   1.847   2.199   5.628  0.1647 -3.0079  1.0169
14417TIP3    H264667   1.980   2.246   5.682 -0.3687 -0.8490  0.5452
14418TIP3   OH264668   3.400   6.323   3.937  0.0689 -1.0165  0.0224
14418TIP3    H164669   3.468   6.278   3.987  0.4545 -1.4503 -0.8601
14418TIP3    H264670   3.341   6.359   4.003  2.0794  0.8804  0.8996
14419TIP3   OH264671   4.128   3.853   0.445 -0.0905  0.1649 -0.2342
14419TIP3    H164672   4.071   3.811   0.381 -1.0259  0.3346  0.4564
14419TIP3    H264673   4.216   3.824   0.422 -0.7056 -2.7457  0.5950
14420TIP3   OH264674   3.913   5.136  13.813  0.2954  0.8550 -0.1611
14420TIP3    H164675   3.921   5.072  13.743 -0.6077  1.0262 -0.4275
14420TIP3    H264676   4.002   5.171  13.824  0.2536  1.6740 -2.0304
14421TIP3   OH264677   6.033   5.113  15.246  0.2179  0.2212  0.2357
14421TIP3    H164678   5.939   5.129  15.254  0.0139  0.1263 -1.6113
14421TIP3    H264679   6.060   5.088  15.334 -1.6584 -0.7029  0.6038
14422TIP3   OH264680   2.975   6.426  14.296  0.0626  0.0523  0.2241
14422TIP3    H164681   2.950   6.481  14.222 -1.4546 -0.1343  0.5566
14422TIP3    H264682   2.915   6.351  14.291  0.9351 -0.7072  0.7862
14423TIP3   OH264683   1.905   5.619   5.084 -0.5555  0.3982 -0.1064
14423TIP3    H164684   1.864   5.645   5.166  2.7666  2.0547  1.2184
14423TIP3    H264685   1.915   5.701   5.035 -0.0504 -0.1603 -0.9681
14424TIP3   OH264686   5.709   2.576   0.431 -0.0368 -0.2597 -0.0507
14424TIP3    H164687   5.699   2.525   0.350  1.0617 -2.3632  1.0345
14424TIP3    H264688   5.727   2.665   0.401 -0.2955 -0.8389 -2.1088
14425TIP3   OH264689   4.217   5.941  15.813 -0.1395 -0.5662  0.8911
14425TIP3    H164690   4.260   6.027  15.806  0.3992 -0.9089 -0.2431
14425TIP3    H264691   4.144   5.946  15.752  0.1028 -1.0291  0.5558
14426TIP3   OH264692   5.249   2.422   4.563  0.8545 -0.4195 -0.3201
14426TIP3    H164693   5.296   2.504   4.553  0.9173 -0.0461  2.2904
14426TIP3    H264694   5.267   2.395   4.653 -0.8653 -2.2202 -0.4438
14427TIP3   OH264695   5.357   3.309  13.621 -0.4421 -0.2581 -0.2810
14427TIP3    H164696   5.362   3.257  13.702 -2.3716 -0.6520 -0.3683
14427TIP3    H264697   5.397   3.393  13.644  1.3212 -1.2038  0.3151
14428TIP3   OH264698   3.849   0.232   5.494 -0.5194 -0.2818  0.2020
14428TIP3    H164699   3.856   0.285   5.415 -0.4162 -0.0409  0.3745
14428TIP3    H264700   3.932   0.185   5.499  0.0201  0.7122  0.8970
14429TIP3   OH264701   4.377   1.756   3.033 -0.4447 -0.0454  0.5093
14429TIP3    H164702   4.324   1.688   3.074  1.0751 -1.7174 -0.1738
14429TIP3    H264703   4.467   1.734   3.056  0.3737 -0.3104 -2.5877
14430TIP3   OH264704   5.444   4.308  13.609  0.2238 -0.0145 -0.1939
14430TIP3    H164705   5.364   4.259  13.631  0.4403 -0.1270  0.3572
14430TIP3    H264706   5.427   4.396  13.642  0.3120 -0.0328 -0.0976
14431TIP3   OH264707   1.754   6.680   2.132  0.0833 -1.1043 -0.1261
14431TIP3    H164708   1.664   6.650   2.118 -0.6058  1.3867 -1.5778
14431TIP3    H264709   1.806   6.628   2.070 -0.8669 -0.3608 -1.6117
14432TIP3   OH264710   0.900   4.158  10.378 -0.2510  0.0528  0.5240
14432TIP3    H164711   0.913   4.236  10.324 -0.6535  0.1195  0.5154
14432TIP3    H264712   0.972   4.100  10.355 -1.5028 -0.7602 -1.6056
14433TIP3   OH264713   3.374   0.216   6.380 -0.4096  0.1679 -0.7405
14433TIP3    H164714   3.453   0.193   6.430 -0.6291  0.6750 -0.1425
14433TIP3    H264715   3.382   0.166   6.299 -0.6697 -1.6895  0.3220
14434TIP3   OH264716   1.115   5.923   1.615  0.2142 -0.0584  0.2828
14434TIP3    H164717   1.075   5.961   1.694 -0.0241 -1.5362  0.8971
14434TIP3    H264718   1.200   5.966   1.608 -0.3494  1.1369  0.5175
14435TIP3   OH264719   3.242   5.123  14.249  0.5573 -0.0768 -0.0200
14435TIP3    H164720   3.186   5.079  14.313  0.4799  0.4929  0.3156
14435TIP3    H264721   3.223   5.079  14.166 -0.0201 -0.2263  0.1820
14436TIP3   OH264722   6.206   4.033  11.524  0.4060  0.3171  0.0628
14436TIP3    H164723   6.238   3.947  11.495  0.6940  0.1957  0.7108
14436TIP3    H264724   6.142   4.013  11.592 -2.0798  0.5095 -2.0774
14437TIP3   OH264725   1.882   4.116  14.286  0.2557 -0.0089 -0.2678
14437TIP3    H164726   1.922   4.041  14.242  1.2519  0.1425  0.3606
14437TIP3    H264727   1.796   4.124  14.244  1.2925  0.3741 -2.5097
14438TIP3   OH264728   0.631   4.898   5.267  0.1639 -0.2008  0.3831
14438TIP3    H164729   0.587   4.907   5.352  0.7849  0.4551  0.6437
14438TIP3    H264730   0.671   4.811   5.270  0.0197 -0.2602  0.6808
14439TIP3   OH264731   5.072   1.096  11.423 -0.3123 -0.2824  0.1294
14439TIP3    H164732   5.114   1.145  11.494  0.7596  0.5825 -1.0383
14439TIP3    H264733   5.041   1.164  11.363 -0.7559 -1.0061 -0.4813
14440TIP3   OH264734   0.038   6.145   3.520 -0.7072  0.1255 -0.6665
14440TIP3    H164735   0.105   6.191   3.569 -0.5769 -0.5726 -0.1734
14440TIP3    H264736   0.025   6.197   3.441  2.9611 -1.5152 -2.5730
14441TIP3   OH264737   1.386   3.035   0.237  0.2062  0.1212  0.5710
14441TIP3    H164738   1.434   3.101   0.287  0.3151  0.8992 -0.5339
14441TIP3    H264739   1.345   2.979   0.303 -0.6353  1.8229  1.5277
14442TIP3   OH264740   0.218   2.365  13.095  0.2239 -0.0737  0.2177
14442TIP3    H164741   0.162   2.393  13.167  0.1056  1.5671 -0.4553
14442TIP3    H264742   0.307   2.374  13.129  0.1455 -0.0831  0.4273
14443TIP3   OH264743   4.741   4.962   6.188 -0.0571  0.5779  0.5242
14443TIP3    H164744   4.801   5.007   6.247 -1.4629  2.3018  0.7162
14443TIP3    H264745   4.705   5.032   6.133  0.2063 -0.7978 -1.4911
14444TIP3   OH264746   3.899   5.942  16.430 -0.2856 -0.2703 -0.5053
14444TIP3    H164747   3.980   5.891  16.434  0.7045  1.3153  0.8480
14444TIP3    H264748   3.837   5.893  16.485 -0.5184 -1.8491 -2.0864
14445TIP3   OH264749   5.081   4.776  11.442  0.3149 -0.2873 -0.2196
14445TIP3    H164750   4.994   4.738  11.452  0.3787 -1.2045 -2.5537
14445TIP3    H264751   5.126   4.718  11.381  3.0022 -0.4786  1.7501
14446TIP3   OH264752   2.457   5.775   4.823 -0.3728 -0.1763 -0.2346
14446TIP3    H164753   2.363   5.793   4.821 -0.1228  1.2183 -0.5698
14446TIP3    H264754   2.479   5.773   4.916 -0.9548 -1.8510 -0.1124
14447TIP3   OH264755   0.920   4.822  16.464 -0.9676 -1.1814 -0.1014
14447TIP3    H164756   0.845   4.837  16.406 -2.0713 -0.2218  1.4869
14447TIP3    H264757   0.890   4.850  16.550  1.6676  0.5425  0.3732
14448TIP3   OH264758   4.347   3.078  17.068 -0.0436  0.4966 -0.1659
14448TIP3    H164759   4.297   3.012  17.116  0.3025  1.1421  1.1029
14448TIP3    H264760   4.406   3.028  17.013 -0.3409 -0.2539  0.1908
14449TIP3   OH264761   2.199   0.305   2.794  0.0163  0.1209  0.0368
14449TIP3    H164762   2.193   0.348   2.879  2.0790 -0.5168  0.5644
14449TIP3    H264763   2.282   0.335   2.758 -1.3650  1.3263 -2.3586
14450TIP3   OH264764   5.585   4.424   1.362 -0.0267 -0.5031 -0.1211
14450TIP3    H164765   5.648   4.433   1.291 -0.1130  1.4397  0.0069
14450TIP3    H264766   5.637   4.401   1.439  0.3527 -0.1886 -0.2875
14451TIP3   OH264767   4.385   6.076  11.505 -0.3881 -0.3677  0.0394
14451TIP3    H164768   4.371   5.981  11.504  1.2297 -0.6617  1.1449
14451TIP3    H264769   4.440   6.091  11.582 -0.5621  1.4793 -0.1492
14452TIP3   OH264770   5.750   2.469   5.915 -0.3504  0.3393  0.2325
14452TIP3    H164771   5.689   2.458   5.987 -1.0381 -3.3230 -0.6935
14452TIP3    H264772   5.836   2.457   5.954 -0.5923  0.3190  0.7692
14453TIP3   OH264773   2.575   3.133   4.999 -0.4027 -0.8974 -0.3947
14453TIP3    H164774   2.480   3.132   5.011 -0.4239 -2.6660 -0.3252
14453TIP3    H264775   2.608   3.073   5.067  0.6449 -1.2771 -1.2050
14454TIP3   OH264776   2.467   1.296  17.031  0.1976  0.0253  0.0354
14454TIP3    H164777   2.508   1.279  16.947  0.4245  1.7521 -0.2416
14454TIP3    H264778   2.430   1.212  17.058 -0.0381 -0.5084 -1.8580
14455TIP3   OH264779   1.482   1.703   0.162  0.1093  0.5449  0.5453
14455TIP3    H164780   1.473   1.796   0.182 -1.4169  0.6180 -0.2988
14455TIP3    H264781   1.561   1.698   0.108 -0.7262  1.6507 -0.8802
14456TIP3   OH264782   2.899   2.886  17.045 -0.0132  0.5388 -0.2898
14456TIP3    H164783   2.954   2.935  17.107  1.9787 -3.4102  1.4801
14456TIP3    H264784   2.813   2.884  17.086  0.8419 -0.5331  1.6321
14457TIP3   OH264785   4.834   4.036   4.927  0.4898 -0.6700  0.5406
14457TIP3    H164786   4.778   3.988   4.866  1.0822  0.2868 -0.8113
14457TIP3    H264787   4.922   3.999   4.914  0.7970  0.1772  0.0882
14458TIP3   OH264788   6.700   1.593  11.791  0.0067 -0.3961 -0.2713
14458TIP3    H164789   6.788   1.560  11.804  0.1852  0.5656  1.2700
14458TIP3    H264790   6.675   1.630  11.876 -0.9207  1.5458 -1.3012
14459TIP3   OH264791   6.481   4.158   5.230 -0.1755  0.0409 -0.5825
14459TIP3    H164792   6.465   4.073   5.188 -1.1924  1.1252 -2.5534
14459TIP3    H264793   6.447   4.222   5.167  1.0642  1.9488  0.6065
14460TIP3   OH264794   0.095   0.505   4.368  0.1568 -0.0337 -0.0196
14460TIP3    H164795   0.079   0.534   4.278 -0.9033 -1.0928 -0.2016
14460TIP3    H264796   0.169   0.558   4.398 -0.4406  1.4152 -0.9882
14461TIP3   OH264797   3.511   0.602   5.635 -0.3678 -0.5385  0.1433
14461TIP3    H164798   3.454   0.567   5.567 -1.4196 -1.0698  1.2536
14461TIP3    H264799   3.596   0.560   5.619 -0.1725  0.4536 -1.6840
14462TIP3   OH264800   4.063   2.737  16.571  0.4178 -0.1702  0.0008
14462TIP3    H164801   3.989   2.681  16.593  0.0598  0.9689  2.0004
14462TIP3    H264802   4.029   2.797  16.505  0.4010 -1.3755 -1.1123
14463TIP3   OH264803   3.242   2.900  13.551  0.0085 -0.8976  0.5934
14463TIP3    H164804   3.304   2.827  13.542  0.3883 -0.3274 -2.4362
14463TIP3    H264805   3.297   2.979  13.549 -0.6633 -0.3894 -1.9782
14464TIP3   OH264806   6.077   2.021  15.741  0.0176 -0.5928  0.5754
14464TIP3    H164807   6.040   1.954  15.684  0.8934 -1.7211  1.3102
14464TIP3    H264808   6.001   2.064  15.780 -0.7489  1.4420 -2.6877
14465TIP3   OH264809   2.061   3.675  15.111  0.2099 -0.1855  0.6041
14465TIP3    H164810   1.984   3.714  15.153 -0.1879  1.4306 -1.4362
14465TIP3    H264811   2.025   3.613  15.047  0.7033 -0.9816  1.0856
14466TIP3   OH264812   3.369   5.896   0.379  0.2733  0.5018  0.0629
14466TIP3    H164813   3.431   5.888   0.451  0.5592  0.6606 -0.1605
14466TIP3    H264814   3.290   5.852   0.410 -0.0832  1.7571  1.0181
14467TIP3   OH264815   1.204   6.367   1.129  0.4667 -0.2832 -0.3477
14467TIP3    H164816   1.239   6.294   1.180  0.4922  0.3645  0.5887
14467TIP3    H264817   1.160   6.326   1.055 -1.4219 -1.4216  1.2993
14468TIP3   OH264818   1.095   6.761  15.722 -0.5507 -0.0953  0.4123
14468TIP3    H164819   1.059   6.697  15.660 -0.5017 -0.5209  0.8124
14468TIP3    H264820   1.187   6.736  15.731 -0.1309  0.9987 -0.6249
14469TIP3   OH264821   6.135   0.987  12.692 -0.3206 -0.1464 -0.0324
14469TIP3    H164822   6.164   1.015  12.779 -0.6348  0.5691 -0.1488
14469TIP3    H264823   6.186   0.908  12.674 -1.7474 -1.5437  1.6876
14470TIP3   OH264824   1.306   4.254   5.376  0.2009 -0.0113  0.1958
14470TIP3    H164825   1.399   4.275   5.374  0.1244  0.3153 -0.0145
14470TIP3    H264826   1.301   4.171   5.422  0.8063 -1.0587 -1.5257
14471TIP3   OH264827   5.878   4.789  15.922 -0.0134 -0.1496  0.0971
14471TIP3    H164828   5.845   4.770  15.833  0.9494 -0.6429 -0.1700
14471TIP3    H264829   5.960   4.837  15.907 -1.2175  2.2660  0.7606
14472TIP3   OH264830   6.723   4.598   1.201  0.2576  0.0070  0.3344
14472TIP3    H164831   6.763   4.617   1.116  0.6613 -0.6085  0.3864
14472TIP3    H264832   6.763   4.661   1.260  0.4508  0.0149  0.1969
14473TIP3   OH264833   2.099   4.977   1.884  0.0338  0.1214 -0.6359
14473TIP3    H164834   2.007   4.957   1.905  0.2636  1.0459  1.4580
14473TIP3    H264835   2.104   5.073   1.888  1.7860  0.0115  2.7913
14474TIP3   OH264836   5.757   5.365  10.955  0.4173 -0.0774 -0.3145
14474TIP3    H164837   5.843   5.328  10.933  0.0891 -0.1445 -1.5878
14474TIP3    H264838   5.708   5.360  10.873 -0.6662  0.3534  0.2912
14475TIP3   OH264839   4.476   0.615  12.541  0.1433 -0.4618 -0.2377
14475TIP3    H164840   4.513   0.544  12.594 -0.3025 -2.6851 -2.6417
14475TIP3    H264841   4.382   0.610  12.555 -0.0195 -1.3475 -1.4351
14476TIP3   OH264842   1.132   4.115  11.417 -0.6540 -0.9277  0.0687
14476TIP3    H164843   1.158   4.050  11.352 -0.3140 -2.6145  1.7851
14476TIP3    H264844   1.071   4.068  11.475 -2.1140  0.9472  0.1393
14477TIP3   OH264845   3.189   6.661   2.146  0.0352  0.0896  0.5964
14477TIP3    H164846   3.109   6.648   2.096 -1.2909  0.6784  2.4442
14477TIP3    H264847   3.254   6.603   2.105 -1.2863 -0.2953 -1.0235
14478TIP3   OH264848   5.217   2.108   4.380 -0.3485  0.3342  0.2406
14478TIP3    H164849   5.268   2.120   4.300 -0.9710  1.3652 -0.0261
14478TIP3    H264850   5.281   2.080   4.446  0.3332  0.3890 -0.3863
14479TIP3   OH264851   3.753   0.542   0.440 -0.0035  0.0590 -0.3222
14479TIP3    H164852   3.840   0.552   0.401  0.8112  1.9539  1.7954
14479TIP3    H264853   3.760   0.465   0.495  0.1085 -0.1858 -0.6729
14480TIP3   OH264854   4.135   6.230  13.640 -0.0596  0.5135 -0.4359
14480TIP3    H164855   4.144   6.240  13.735  0.4935  2.8998 -0.6828
14480TIP3    H264856   4.185   6.151  13.620 -0.0445  0.0639  1.2237
14481TIP3   OH264857   6.477   4.238   2.788  0.4064 -0.2889 -0.3273
14481TIP3    H164858   6.558   4.240   2.837  1.2189 -0.7384 -1.6000
14481TIP3    H264859   6.409   4.219   2.853  1.3392 -0.1144  0.7092
14482TIP3   OH264860   0.737   5.545   1.997  0.2832 -0.1926  0.6239
14482TIP3    H164861   0.799   5.552   1.925 -0.1638 -0.2882  0.2288
14482TIP3    H264862   0.756   5.622   2.051  0.0828  0.3227 -0.0211
14483TIP3   OH264863   2.645   6.080   2.362 -0.5689 -0.3542 -0.9120
14483TIP3    H164864   2.644   6.139   2.286  0.1387 -1.2088 -1.6045
14483TIP3    H264865   2.693   6.129   2.429  2.0074 -0.9316 -2.2032
14484TIP3   OH264866   1.497   3.330   4.061 -0.1941 -0.3125 -0.6990
14484TIP3    H164867   1.579   3.317   4.108  0.5231  0.6355 -1.6375
14484TIP3    H264868   1.431   3.341   4.130  0.5840 -0.3477  0.0628
14485TIP3   OH264869   5.743   4.335   1.878 -0.2750  0.3832  0.0764
14485TIP3    H164870   5.799   4.258   1.890 -0.6553  0.3619  2.1190
14485TIP3    H264871   5.685   4.313   1.805  0.8490 -0.4981 -0.5806
14486TIP3   OH264872   0.909   6.325   0.687 -0.1569 -0.2281 -0.0061
14486TIP3    H164873   0.845   6.273   0.736 -0.8746  1.1353  0.5547
14486TIP3    H264874   0.982   6.265   0.672 -0.8285 -1.3050  0.8812
14487TIP3   OH264875   5.470   0.711  13.068 -0.0487 -0.1897 -0.0049
14487TIP3    H164876   5.435   0.711  13.157 -2.2887  0.1051 -0.8358
14487TIP3    H264877   5.495   0.620  13.052  0.8840 -0.1436  1.0865
14488TIP3   OH264878   1.832   3.120  14.741  0.2013 -0.1318  0.6124
14488TIP3    H164879   1.787   3.098  14.659 -1.3983 -0.1241  1.4453
14488TIP3    H264880   1.905   3.176  14.714  0.0102 -0.5408 -0.8436
14489TIP3   OH264881   5.475   1.930  15.154  0.2664  0.4940  0.1002
14489TIP3    H164882   5.561   1.893  15.138 -0.8072 -1.1073 -2.7945
14489TIP3    H264883   5.488   2.024  15.152  2.2319  0.3310  2.0593
14490TIP3   OH264884   5.345   2.136   3.740 -0.5565  0.2316 -0.2347
14490TIP3    H164885   5.426   2.086   3.743 -0.5599  0.2557  1.5675
14490TIP3    H264886   5.276   2.073   3.761 -0.5860  0.8653  1.8202
14491TIP3   OH264887   6.284   2.376  12.430 -0.1389  0.0396  0.4007
14491TIP3    H164888   6.199   2.358  12.468 -0.1157  0.2435  0.5492
14491TIP3    H264889   6.346   2.362  12.502  0.0372 -1.0032  0.0568
14492TIP3   OH264890   3.141   0.862   2.167  0.4070  0.2475  0.7922
14492TIP3    H164891   3.079   0.917   2.213 -1.6603 -1.7295  0.5334
14492TIP3    H264892   3.223   0.871   2.216  0.0532  3.0505  1.0390
14493TIP3   OH264893   6.315   4.647  11.212  0.3581  0.1786 -0.1531
14493TIP3    H164894   6.308   4.728  11.262  0.9904  0.0609  0.1319
14493TIP3    H264895   6.375   4.592  11.263 -1.0503 -0.9825  0.3439
14494TIP3   OH264896   2.961   6.646  15.940  0.4049 -0.0042 -0.8717
14494TIP3    H164897   2.881   6.697  15.954  0.0579 -0.7868  0.0871
14494TIP3    H264898   2.945   6.597  15.860  0.2767  0.4887 -1.1545
14495TIP3   OH264899   2.358   3.126  14.580  0.3853 -0.3057 -0.2855
14495TIP3    H164900   2.320   3.041  14.601 -2.5609  0.8747 -0.3082
14495TIP3    H264901   2.306   3.188  14.631  1.1062  1.6448 -1.8220
14496TIP3   OH264902   6.523   5.906  16.737 -0.0182 -0.3200 -0.4901
14496TIP3    H164903   6.593   5.969  16.755 -1.5717  1.0481  1.1092
14496TIP3    H264904   6.542   5.832  16.796  0.5413 -0.3578 -0.7061
14497TIP3   OH264905   1.316   5.850  13.930 -0.8704  0.0258  0.1374
14497TIP3    H164906   1.310   5.836  13.836  1.3922 -0.5598  0.0146
14497TIP3    H264907   1.410   5.860  13.947 -0.7454 -3.7043  2.8019
14498TIP3   OH264908   4.979   3.189   5.321  0.0207 -0.2651 -0.1197
14498TIP3    H164909   4.993   3.097   5.298  0.0273 -0.2498 -0.1787
14498TIP3    H264910   4.893   3.190   5.364  0.2421 -0.3746  0.3309
14499TIP3   OH264911   5.429   5.833  12.098  0.2433  0.5721 -0.1541
14499TIP3    H164912   5.457   5.759  12.151  0.9325  0.6012 -0.4591
14499TIP3    H264913   5.491   5.835  12.025 -1.7960 -0.6243 -2.0283
14500TIP3   OH264914   3.555   3.044   3.067 -0.7984 -0.2013  0.2033
14500TIP3    H164915   3.571   3.116   3.128 -0.1327  1.7061 -2.0530
14500TIP3    H264916   3.460   3.036   3.062 -0.9814  1.9759 -0.9833
14501TIP3   OH264917   5.641   2.149   5.997  0.2988 -0.3309  0.3385
14501TIP3    H164918   5.577   2.220   5.987  1.3883  0.4319 -2.1564
14501TIP3    H264919   5.717   2.191   6.037  0.7445 -0.1922 -0.6297
14502TIP3   OH264920   2.062   1.285  11.626  0.0454  0.5158  0.0205
14502TIP3    H164921   2.096   1.200  11.652 -0.0332  0.7879  1.0422
14502TIP3    H264922   2.128   1.348  11.655 -0.0962  0.8432 -0.3484
14503TIP3   OH264923   5.531   4.666  12.323  0.3523 -0.6698 -0.1261
14503TIP3    H164924   5.498   4.598  12.265 -0.5886 -0.0584 -0.3348
14503TIP3    H264925   5.544   4.621  12.407 -0.4605 -1.0730 -0.2014
14504TIP3   OH264926   3.664   0.699   0.638 -0.1011  0.0243 -0.0702
14504TIP3    H164927   3.577   0.691   0.600  0.9300  1.5590 -3.1506
14504TIP3    H264928   3.722   0.659   0.573  1.6512  0.7400  0.9744
14505TIP3   OH264929   0.070   5.597  15.955 -0.0040  0.4289  0.0605
14505TIP3    H164930   0.165   5.584  15.952 -0.1621 -1.2207  1.2467
14505TIP3    H264931   0.051   5.623  16.045 -0.8520 -0.8676  0.2747
14506TIP3   OH264932   5.554   5.862   3.293 -0.3684 -0.0918  0.0811
14506TIP3    H164933   5.553   5.951   3.258  0.9581 -0.1820 -0.2511
14506TIP3    H264934   5.627   5.862   3.356 -0.0169 -1.0737 -0.3094
14507TIP3   OH264935   1.500   6.786   3.051 -0.4141 -0.5221 -0.0210
14507TIP3    H164936   1.505   6.735   2.970  0.6895 -0.3591 -0.0689
14507TIP3    H264937   1.444   6.860   3.029  1.0232  0.3162 -1.1043
14508TIP3   OH264938   3.472   2.115  10.850 -0.5715 -0.7128  0.1391
14508TIP3    H164939   3.490   2.107  10.756  1.1618  0.5971  0.3152
14508TIP3    H264940   3.558   2.114  10.891 -1.2965 -1.0016  1.7171
14509TIP3   OH264941   5.952   3.521   4.674  0.5749 -0.6151 -0.3567
14509TIP3    H164942   5.998   3.452   4.625  1.7476 -1.2131  1.4598
14509TIP3    H264943   5.907   3.572   4.607 -2.1766 -4.3523 -1.7581
14510TIP3   OH264944   2.938   0.713   0.745  0.4140 -0.3018  0.0454
14510TIP3    H164945   2.961   0.626   0.712 -2.0213 -0.7715 -0.6866
14510TIP3    H264946   2.909   0.761   0.667  0.7108  0.8177  0.6016
14511TIP3   OH264947   2.218   2.903   2.156  0.0426  0.1385  0.0393
14511TIP3    H164948   2.204   2.947   2.240 -0.0122 -0.1796  0.1989
14511TIP3    H264949   2.285   2.836   2.175  0.1842  0.2060 -0.2181
14512TIP3   OH264950   1.222   3.733   4.353 -0.0295  0.2215  0.3122
14512TIP3    H164951   1.138   3.703   4.386  0.0389  0.2029  0.4713
14512TIP3    H264952   1.252   3.797   4.417 -1.1741  2.2692 -1.1009
14513TIP3   OH264953   3.380   0.050  10.994  0.1889  0.1935  0.2886
14513TIP3    H164954   3.444   0.002  10.941  0.0537  1.6810 -1.3264
14513TIP3    H264955   3.424   0.066  11.077  1.2735 -0.3083 -0.1651
14514TIP3   OH264956   6.776   4.508   5.200 -0.2149 -0.2964 -0.5408
14514TIP3    H164957   6.867   4.538   5.194  0.1491 -1.1216  0.5296
14514TIP3    H264958   6.782   4.422   5.242 -1.7034  1.0517  2.7516
14515TIP3   OH264959   5.850   0.817  15.974  0.2600  0.3980 -0.9034
14515TIP3    H164960   5.764   0.817  16.014 -0.3537 -3.1649 -1.8601
14515TIP3    H264961   5.911   0.822  16.047 -0.8222 -0.9997  0.1662
14516TIP3   OH264962   1.098   2.517   4.274  0.2734  0.2555 -0.0418
14516TIP3    H164963   1.149   2.575   4.331 -0.5881  0.6473  0.3597
14516TIP3    H264964   1.153   2.504   4.197  1.0033  0.6006  0.4118
14517TIP3   OH264965   2.885   6.180  16.904  0.5654 -0.9256 -0.1212
14517TIP3    H164966   2.826   6.252  16.924 -0.6686 -1.5945 -1.2003
14517TIP3    H264967   2.901   6.137  16.988 -0.5756 -0.7904  0.1709
14518TIP3   OH264968   2.717   0.535  10.324 -0.3927 -0.2197  0.3768
14518TIP3    H164969   2.726   0.601  10.256  1.2125 -1.5602 -0.8029
14518TIP3    H264970   2.808   0.511  10.345 -0.9336 -1.7232  1.0974
14519TIP3   OH264971   2.869   0.174   5.651  0.3501 -0.1631  0.7025
14519TIP3    H164972   2.792   0.219   5.687 -0.0354 -0.1889 -0.0714
14519TIP3    H264973   2.933   0.175   5.722 -0.2122  0.2430  1.2098
14520TIP3   OH264974   4.371   0.984  11.543  0.4761 -0.2019 -0.1733
14520TIP3    H164975   4.282   1.019  11.554  0.3333  0.1168 -1.9795
14520TIP3    H264976   4.366   0.896  11.581 -0.3104  0.1979  0.6993
14521TIP3   OH264977   3.606   6.536  13.373  0.1244 -0.6959 -0.0290
14521TIP3    H164978   3.563   6.600  13.430 -2.4542 -2.0034 -0.3610
14521TIP3    H264979   3.601   6.454  13.422  1.8331 -1.0202 -0.3331
14522TIP3   OH264980   4.974   2.281   0.445  0.0996 -0.1389 -0.5436
14522TIP3    H164981   5.049   2.304   0.390 -0.2401  1.1139 -0.5247
14522TIP3    H264982   4.908   2.347   0.423 -1.5909 -2.1082 -1.7169
14523TIP3   OH264983   0.542   0.830  16.839 -0.0890  0.2492 -0.1682
14523TIP3    H164984   0.519   0.765  16.905 -0.6842  1.0507  0.4422
14523TIP3    H264985   0.604   0.889  16.884 -1.8863  1.8681  0.3214
14524TIP3   OH264986   6.066   3.405  17.253  0.5052 -0.0580  0.2307
14524TIP3    H164987   6.088   3.319  17.216  1.5969  0.1398  0.3906
14524TIP3    H264988   6.137   3.462  17.223  0.0515  0.6731  0.5514
14525TIP3   OH264989   1.460   2.365   2.154  0.1633 -0.1713  0.9344
14525TIP3    H164990   1.419   2.297   2.100  0.5406  0.3744 -0.0840
14525TIP3    H264991   1.553   2.357   2.134  0.1730  0.8989  0.4664
14526TIP3   OH264992   6.042   3.785  13.448  0.6817  0.3442 -0.2785
14526TIP3    H164993   5.979   3.766  13.518  1.5306 -0.2238  0.3677
14526TIP3    H264994   5.989   3.805  13.372 -0.2776 -0.4578  0.1587
14527TIP3   OH264995   4.927   1.127   5.219 -0.3894  0.0608  0.4782
14527TIP3    H164996   4.957   1.201   5.271  0.0289 -0.3991  0.9096
14527TIP3    H264997   4.993   1.059   5.234  0.0278  0.0753 -1.0418
14528TIP3   OH264998   1.289   4.672  13.790  0.5151  0.2998 -0.8456
14528TIP3    H164999   1.319   4.747  13.841 -2.3814  1.5661 -0.8685
14528TIP3    H265000   1.243   4.709  13.715 -0.1883 -1.4939 -1.3621
14529TIP3   OH265001   2.631   4.136   5.089  0.4203  0.0422 -0.2593
14529TIP3    H165002   2.618   4.155   5.182  0.5537 -1.8447  0.1854
14529TIP3    H265003   2.594   4.049   5.077  0.2795  0.3069 -2.0275
14530TIP3   OH265004   2.433   0.788   2.575  0.2128 -0.3460  0.0597
14530TIP3    H165005   2.342   0.777   2.601  0.3083 -1.2463  0.0419
14530TIP3    H265006   2.462   0.867   2.620 -0.5152 -0.1725  0.2251
14531TIP3   OH265007   5.714   0.376   2.086  0.0463 -0.5942 -0.6399
14531TIP3    H165008   5.765   0.361   2.166  2.5908 -0.7376 -2.1818
14531TIP3    H265009   5.671   0.460   2.100  2.3732  0.5671 -0.0019
14532TIP3   OH265010   4.496   2.982   2.951  1.1948  0.0368 -0.1180
14532TIP3    H165011   4.447   3.056   2.989 -0.0997 -1.2468  0.8019
14532TIP3    H265012   4.479   2.909   3.010  3.1778 -0.8246 -0.5157
14533TIP3   OH265013   2.778   3.203  15.038  0.1637 -0.3652 -0.0568
14533TIP3    H165014   2.852   3.152  15.007 -0.5149 -0.4968 -1.5972
14533TIP3    H265015   2.701   3.149  15.017 -0.5490  1.0816 -1.4469
14534TIP3   OH265016   5.031   2.957  14.267  0.0710 -0.5585  0.0766
14534TIP3    H165017   5.019   2.924  14.356 -0.7273 -2.0773 -0.5582
14534TIP3    H265018   5.123   2.937  14.247  1.3978  3.0370  1.7648
14535TIP3   OH265019   1.841   4.994   4.286  0.1735  0.2773 -0.0944
14535TIP3    H165020   1.858   5.089   4.289  1.5705  0.0604  2.5967
14535TIP3    H265021   1.888   4.960   4.362 -1.1529 -2.4720 -0.4006
14536TIP3   OH265022   2.470   3.408  14.870  0.2012 -0.0348  0.1882
14536TIP3    H165023   2.385   3.421  14.829  0.6169  0.6899 -0.4736
14536TIP3    H265024   2.532   3.448  14.809  1.0211 -0.5816  0.6394
14537TIP3   OH265025   5.929   1.742   1.805  0.0670 -0.2194  0.4140
14537TIP3    H165026   5.950   1.651   1.823  0.6220 -0.2903 -0.4954
14537TIP3    H265027   6.005   1.775   1.756 -1.3007 -0.0931 -1.7682
14538TIP3   OH265028   1.298   5.320  11.098 -0.2771  0.1532 -0.3274
14538TIP3    H165029   1.229   5.380  11.123  0.0230 -0.2287  1.5557
14538TIP3    H265030   1.288   5.245  11.156  2.5114  0.6700  0.9997
14539TIP3   OH265031   5.229   0.205   5.198 -0.1931  0.4473 -0.2487
14539TIP3    H165032   5.134   0.214   5.206 -0.5143 -0.3475 -2.4153
14539TIP3    H265033   5.245   0.112   5.210  0.2238  0.4771 -0.5523
14540TIP3   OH265034   6.230   4.082   2.557 -0.3648  0.5273  0.3866
14540TIP3    H165035   6.222   4.057   2.465  1.3070 -0.3672  0.4561
14540TIP3    H265036   6.269   4.169   2.555  0.3642  0.1994  0.2571
14541TIP3   OH265037   4.936   2.514   2.455  0.1573 -0.4214 -0.4016
14541TIP3    H165038   4.999   2.569   2.501  0.4975 -0.1417 -1.1783
14541TIP3    H265039   4.854   2.525   2.503  0.5766 -0.3869  0.3169
14542TIP3   OH265040   5.859   4.037  17.134  0.2645  0.0367 -0.1599
14542TIP3    H165041   5.771   4.054  17.168  0.4459  0.6108  0.0320
14542TIP3    H265042   5.845   4.011  17.043 -0.0637  0.6633 -0.2904
14543TIP3   OH265043   6.785   1.286  16.643  0.2457 -0.2149 -0.6372
14543TIP3    H165044   6.725   1.272  16.716 -0.4264  1.5582 -0.8004
14543TIP3    H265045   6.808   1.379  16.648  1.7845 -0.5125 -1.4925
14544TIP3   OH265046   5.331   1.986  11.814 -0.4066 -0.5101  0.0239
14544TIP3    H165047   5.296   1.985  11.903 -2.5497 -1.6714 -0.7537
14544TIP3    H265048   5.297   2.067  11.776 -0.4035 -0.5480 -0.0606
14545TIP3   OH265049   1.511   1.352   4.284 -0.0763  0.5115 -0.1378
14545TIP3    H165050   1.449   1.410   4.328 -0.1359  0.2268  0.1503
14545TIP3    H265051   1.594   1.401   4.286  0.2998 -0.1093  1.6346
14546TIP3   OH265052   5.924   5.568   2.872 -0.4480 -0.3813 -0.1606
14546TIP3    H165053   5.964   5.595   2.954 -1.5099  0.0282  0.2473
14546TIP3    H265054   5.830   5.575   2.888 -0.6778  0.7492 -1.7485
14547TIP3   OH265055   4.412   3.530  13.563 -0.0552 -0.2662 -0.1274
14547TIP3    H165056   4.381   3.593  13.627 -0.1880 -0.7799  0.3251
14547TIP3    H265057   4.389   3.445  13.600 -0.4421 -0.5655 -1.0131
14548TIP3   OH265058   5.480   5.662   3.530  0.2572  0.2216  0.3728
14548TIP3    H165059   5.402   5.607   3.528  1.4681 -1.7717  2.4195
14548TIP3    H265060   5.540   5.621   3.467  0.5598  0.2007  0.6694
14549TIP3   OH265061   0.613   0.566   3.285 -0.1158 -0.3767 -0.0413
14549TIP3    H165062   0.661   0.635   3.330  1.2526 -1.1699 -0.1997
14549TIP3    H265063   0.522   0.576   3.313  0.5481 -0.3754  2.3150
14550TIP3   OH265064   5.099   1.667   3.311 -0.0848  0.4054 -0.4506
14550TIP3    H165065   5.190   1.677   3.337  0.2183  1.1216 -1.6788
14550TIP3    H265066   5.055   1.745   3.345 -0.0392  0.5102 -0.6283
14551TIP3   OH265067   2.485   5.395   1.650  0.3442  0.0200 -0.2166
14551TIP3    H165068   2.461   5.449   1.726  0.3169 -0.3700  0.0541
14551TIP3    H265069   2.491   5.306   1.685  0.0444 -0.2078 -0.7309
14552TIP3   OH265070   5.309   1.848   1.317 -0.2240  0.0644 -0.1377
14552TIP3    H165071   5.247   1.837   1.388  0.6058 -0.3299  0.5402
14552TIP3    H265072   5.274   1.796   1.245  0.2440 -1.6572  0.8365
14553TIP3   OH265073   4.489   4.653  12.547 -0.2527 -0.5859  0.1160
14553TIP3    H165074   4.524   4.731  12.590 -0.1926 -0.4608 -0.1613
14553TIP3    H265075   4.567   4.602  12.525 -0.2609 -0.4384 -0.2505
14554TIP3   OH265076   1.981   6.156  11.265 -0.3116  0.7469  0.0192
14554TIP3    H165077   1.992   6.079  11.209 -2.2059  0.3990  0.0459
14554TIP3    H265078   1.996   6.230  11.207  0.5275  0.3755 -0.2516
14555TIP3   OH265079   2.716   2.057   4.610 -0.9776 -0.0563 -0.2103
14555TIP3    H165080   2.639   2.041   4.557  0.7759 -3.2985 -2.0947
14555TIP3    H265081   2.711   1.993   4.681  0.7836 -1.6019 -1.4086
14556TIP3   OH265082   3.369   6.450   1.378  0.4876  0.1138 -0.7217
14556TIP3    H165083   3.445   6.502   1.352 -0.0968 -0.1973 -3.2095
14556TIP3    H265084   3.318   6.439   1.298 -2.2674  0.3903  0.8625
14557TIP3   OH265085   3.691   5.631   3.192  0.3675 -0.5962 -0.1985
14557TIP3    H165086   3.640   5.657   3.116  0.5358 -1.3984 -0.5911
14557TIP3    H265087   3.770   5.683   3.187  0.1704 -0.3059 -0.3089
14558TIP3   OH265088   2.436   2.874   4.282 -0.4697 -0.1957  0.2122
14558TIP3    H165089   2.434   2.899   4.374  1.0317 -2.2680  0.8815
14558TIP3    H265090   2.504   2.930   4.243 -0.5114  0.0851  0.5386
14559TIP3   OH265091   3.646   5.391  14.157 -0.0932  0.8180 -0.7502
14559TIP3    H165092   3.699   5.470  14.150  0.1391  0.6152 -1.4074
14559TIP3    H265093   3.682   5.333  14.089  0.2791 -0.1654  0.2605
14560TIP3   OH265094   5.708   5.716   6.269  0.1144 -0.2714 -0.1709
14560TIP3    H165095   5.740   5.641   6.219 -1.2464 -0.7110 -0.4505
14560TIP3    H265096   5.736   5.699   6.359 -0.6836 -1.4506 -0.1225
14561TIP3   OH265097   0.922   2.242  16.853  0.1323 -0.6232 -0.3655
14561TIP3    H165098   0.865   2.175  16.815  0.7335 -1.5564  0.3273
14561TIP3    H265099   0.906   2.238  16.947  0.5601 -0.1602 -0.2650
14562TIP3   OH265100   6.110   0.413  16.086  0.3783 -0.3519 -0.5374
14562TIP3    H165101   6.051   0.464  16.141 -0.9006 -1.1060 -1.1627
14562TIP3    H265102   6.180   0.384  16.145  0.5500  1.1803  0.0526
14563TIP3   OH265103   0.923   1.410  13.454  0.5057 -0.0050  0.4553
14563TIP3    H165104   0.948   1.407  13.547  0.7883  1.6226  0.4726
14563TIP3    H265105   0.914   1.504  13.435  2.3930 -0.1643 -1.6728
14564TIP3   OH265106   3.572   2.475  15.609  0.1504  0.2690  0.2816
14564TIP3    H165107   3.526   2.395  15.636  2.2687 -1.4567 -0.8701
14564TIP3    H265108   3.638   2.489  15.677  3.2272 -2.1211 -1.8899
14565TIP3   OH265109   5.504   3.414  16.203  0.0682  0.0588  0.2939
14565TIP3    H165110   5.518   3.448  16.291 -0.0451 -1.9944  1.1719
14565TIP3    H265111   5.409   3.419  16.191  0.2297  2.2138 -0.5829
14566TIP3   OH265112   5.748   2.898  10.790 -0.3070 -0.0343  0.5823
14566TIP3    H165113   5.718   2.814  10.756  0.3816  0.2189 -0.7060
14566TIP3    H265114   5.667   2.944  10.812 -0.6955 -0.9577  1.1497
14567TIP3   OH265115   0.257   1.020  13.939 -0.2411  0.2185 -0.8099
14567TIP3    H165116   0.163   1.033  13.951  0.0480  1.2468  0.6104
14567TIP3    H265117   0.270   1.025  13.844 -1.2069  3.2666 -0.8708
14568TIP3   OH265118   4.670   5.055   1.337 -0.6848  0.1776 -0.2476
14568TIP3    H165119   4.597   5.094   1.386 -1.0091  1.3382 -1.5844
14568TIP3    H265120   4.748   5.102   1.369 -0.4715 -1.1003  1.2200
14569TIP3   OH265121   6.303   3.297  13.257  0.0257  0.1654 -0.0139
14569TIP3    H165122   6.305   3.223  13.196 -1.5556 -1.1052  1.4019
14569TIP3    H265123   6.359   3.362  13.215 -0.5877 -0.8103 -2.5918
14570TIP3   OH265124   3.824   2.684   1.151  1.0603  0.0433 -0.4606
14570TIP3    H165125   3.850   2.630   1.225 -0.9278  0.8330  0.9038
14570TIP3    H265126   3.846   2.774   1.177  0.9919  0.2544 -1.1139
14571TIP3   OH265127   3.927   2.742  14.671 -0.3101  0.1908  0.2903
14571TIP3    H165128   3.880   2.747  14.588 -1.8039 -0.8087  1.0143
14571TIP3    H265129   3.903   2.656  14.707  1.2799  0.0845  1.2020
14572TIP3   OH265130   0.328   2.249   1.766  0.3743  0.4521  0.4771
14572TIP3    H165131   0.359   2.240   1.676 -0.9450 -0.6739  0.0936
14572TIP3    H265132   0.376   2.182   1.815  2.2023  2.0301  0.9896
14573TIP3   OH265133   4.083   2.600  15.181 -0.3744 -1.1521  0.1423
14573TIP3    H165134   4.066   2.629  15.091  0.5693 -1.4718 -0.1533
14573TIP3    H265135   4.168   2.555  15.176  0.1715 -0.3175  1.3806
14574TIP3   OH265136   2.867   4.065   2.656  0.3475 -0.5315 -0.2595
14574TIP3    H165137   2.834   4.001   2.720  0.0913 -0.8034 -0.6557
14574TIP3    H265138   2.872   4.015   2.574  2.8327 -0.8276  0.0188
14575TIP3   OH265139   3.077   5.677   1.363 -0.3240  0.0025 -0.2658
14575TIP3    H165140   3.091   5.651   1.455 -0.9534 -0.4643 -0.2944
14575TIP3    H265141   3.029   5.604   1.325  0.9862 -0.3553 -1.3005
14576TIP3   OH265142   5.726   1.175   0.409 -0.2836  0.1690 -0.3170
14576TIP3    H165143   5.721   1.237   0.482  0.9670 -0.4556  0.3250
14576TIP3    H265144   5.720   1.229   0.331 -1.8602  0.8361  0.2164
14577TIP3   OH265145   1.733   2.405   3.148  0.0076  0.3978  0.4738
14577TIP3    H165146   1.667   2.434   3.211 -0.6413 -1.5979  0.7944
14577TIP3    H265147   1.716   2.457   3.070 -1.7578  0.2009  0.6716
14578TIP3   OH265148   4.251   3.708   4.357 -0.1416 -0.2208  0.1900
14578TIP3    H165149   4.263   3.613   4.345 -0.3093 -0.2842  0.5222
14578TIP3    H265150   4.156   3.721   4.353 -0.1256 -0.0821  0.2762
14579TIP3   OH265151   3.016   3.845  15.220 -0.1277 -0.0095  0.1850
14579TIP3    H165152   3.036   3.824  15.311  0.1768 -0.0244  0.1158
14579TIP3    H265153   3.024   3.761  15.173 -1.1945 -0.1873  0.2965
14580TIP3   OH265154   4.377   4.917   4.317 -0.2920  0.1008 -0.2699
14580TIP3    H165155   4.352   4.835   4.274  2.0881  0.1786 -2.0357
14580TIP3    H265156   4.367   4.984   4.249 -0.5534  0.9990  0.6242
14581TIP3   OH265157   6.006   4.680  11.998  0.3461  0.0245 -1.0042
14581TIP3    H165158   6.034   4.763  12.036  0.2784 -0.3216 -0.1830
14581TIP3    H265159   6.060   4.671  11.919  0.6539  0.6446 -0.8750
14582TIP3   OH265160   1.475   3.313  16.314  0.1981 -0.6734 -0.8846
14582TIP3    H165161   1.393   3.345  16.277 -0.0956  0.2235  0.4666
14582TIP3    H265162   1.538   3.382  16.295 -0.2598  0.4448  1.3653
14583TIP3   OH265163   5.221   3.755  12.816 -0.0254  0.1154 -0.0977
14583TIP3    H165164   5.194   3.720  12.732  1.3705  1.4461 -1.1679
14583TIP3    H265165   5.177   3.840  12.823  0.1325  0.1655  0.3399
14584TIP3   OH265166   6.195   0.375   3.800  0.0738 -1.1001  0.0782
14584TIP3    H165167   6.216   0.465   3.824  0.7925 -0.8798 -1.3054
14584TIP3    H265168   6.099   0.372   3.799  0.0481 -0.4923  0.6110
14585TIP3   OH265169   4.729   0.963  11.590 -0.4834 -0.2807  0.3097
14585TIP3    H165170   4.819   0.952  11.620 -0.9558 -0.2378  1.8139
14585TIP3    H265171   4.738   1.006  11.505  0.9036  0.0152  0.5709
14586TIP3   OH265172   4.555   3.823  14.180  0.2284  0.5938  0.2014
14586TIP3    H165173   4.643   3.843  14.213  1.2903 -2.3416 -0.5407
14586TIP3    H265174   4.568   3.803  14.088 -0.7639 -2.1241  0.5761
14587TIP3   OH265175   4.495   2.072   1.962  0.0231  0.0123  0.2178
14587TIP3    H165176   4.531   2.137   1.902  0.7705 -0.6992 -0.1194
14587TIP3    H265177   4.490   2.118   2.046 -0.8004  0.9381 -0.3185
14588TIP3   OH265178   3.922   2.718   4.495  0.4097  0.3786 -0.6458
14588TIP3    H165179   3.989   2.682   4.554 -0.0980  0.8745  0.2594
14588TIP3    H265180   3.903   2.805   4.530 -1.3972 -0.1168 -0.2804
14589TIP3   OH265181   3.008   5.515  13.137  0.5546  0.6371  0.1322
14589TIP3    H165182   3.067   5.474  13.199 -0.3578  0.9454  1.2450
14589TIP3    H265183   2.991   5.447  13.071 -0.6818 -0.7187  1.7606
14590TIP3   OH265184   6.462   0.797  13.848 -0.4548  1.1634 -0.6653
14590TIP3    H165185   6.501   0.881  13.873  0.3561 -0.0830  2.7479
14590TIP3    H265186   6.368   0.815  13.840 -0.3826  2.2879  0.7082
14591TIP3   OH265187   4.677   3.250  11.111  0.6612  0.4983 -0.2958
14591TIP3    H165188   4.712   3.337  11.095 -1.5795  1.5375  0.1157
14591TIP3    H265189   4.668   3.211  11.024  0.4796  1.1691 -0.5777
14592TIP3   OH265190   4.021   0.958   6.169 -0.2708  0.2750  0.3942
14592TIP3    H165191   4.021   0.878   6.116  0.0995 -0.4681  1.4573
14592TIP3    H265192   3.934   0.995   6.156 -1.7262 -2.0793  2.3233
14593TIP3   OH265193   6.131   6.383  11.521 -0.1242  0.4729 -0.2119
14593TIP3    H165194   6.118   6.395  11.427  1.6335 -0.6370 -0.6634
14593TIP3    H265195   6.170   6.295  11.528 -0.8712  0.2569  1.6266
14594TIP3   OH265196   1.374   4.036  15.340  0.4145 -0.4125  0.4318
14594TIP3    H165197   1.447   4.035  15.402  1.0832 -1.9622 -0.3313
14594TIP3    H265198   1.312   3.972  15.375  0.7973 -1.2968 -0.4560
14595TIP3   OH265199   0.698   4.483  13.955 -0.0309 -0.5891 -0.0141
14595TIP3    H165200   0.645   4.413  13.917 -0.1095 -0.8767  0.6030
14595TIP3    H265201   0.635   4.538  14.002 -0.0255  0.1435 -0.8434
14596TIP3   OH265202   0.669   0.250  13.847 -0.3949 -0.2973  0.0216
14596TIP3    H165203   0.639   0.337  13.874 -1.4357 -0.2086 -1.3714
14596TIP3    H265204   0.759   0.264  13.817 -1.1206  0.6652 -1.8439
14597TIP3   OH265205   4.748   2.001   3.738  0.1387  0.0718  0.2594
14597TIP3    H165206   4.811   1.940   3.700  3.1304  0.9126  3.3776
14597TIP3    H265207   4.760   2.082   3.688  2.5924  0.5792  1.4858
14598TIP3   OH265208   2.070   3.143   5.377  0.1310  0.1169  0.3203
14598TIP3    H165209   2.103   3.233   5.376 -1.6565  0.8647 -2.3267
14598TIP3    H265210   2.125   3.097   5.313 -1.4468  0.4460 -1.3625
14599TIP3   OH265211   0.627   1.356  15.261  0.6055  0.1600  0.5516
14599TIP3    H165212   0.585   1.388  15.181 -0.9693  0.8696  1.6256
14599TIP3    H265213   0.677   1.430  15.294  2.2513 -0.4904 -0.3728
14600TIP3   OH265214   5.232   4.880   6.514 -0.3571 -0.0020  0.8534
14600TIP3    H165215   5.155   4.935   6.502 -1.8041 -1.7977  1.5292
14600TIP3    H265216   5.230   4.854   6.606  0.8649 -0.3646  0.8015
14601TIP3   OH265217   6.518   1.698  13.501  0.4440 -0.2905 -0.1562
14601TIP3    H165218   6.477   1.707  13.415  0.1317 -0.0170  0.0196
14601TIP3    H265219   6.588   1.634  13.488  1.8299  1.3165 -1.1392
14602TIP3   OH265220   3.373   5.693   4.541 -0.2897 -0.3082  0.2106
14602TIP3    H165221   3.316   5.744   4.483  2.2263  0.7924 -1.4922
14602TIP3    H265222   3.377   5.606   4.500  0.3801  0.0543 -0.5224
14603TIP3   OH265223   3.375   3.528   2.861  0.3679  0.6055 -0.0771
14603TIP3    H165224   3.297   3.501   2.813  0.7914  0.1148 -0.5107
14603TIP3    H265225   3.351   3.611   2.903 -0.8754 -0.3239  1.0846
14604TIP3   OH265226   3.455   4.368   0.032 -0.1891 -0.2991 -0.2199
14604TIP3    H165227   3.502   4.290   0.061 -1.1945 -1.5703 -1.8526
14604TIP3    H265228   3.501   4.396  -0.047 -0.0597  0.5791  0.1454
14605TIP3   OH265229   2.551   3.978   2.497  0.1067 -0.0505  0.2933
14605TIP3    H165230   2.597   3.935   2.424 -0.0224 -2.4581  1.5357
14605TIP3    H265231   2.460   3.983   2.468  0.3137  0.4739 -0.3091
14606TIP3   OH265232   6.334   3.005  13.535 -0.2626  0.1579  0.3351
14606TIP3    H165233   6.388   3.063  13.589  0.1585  0.3355 -0.2712
14606TIP3    H265234   6.393   2.972  13.468 -0.6219 -0.5813  0.3640
14607TIP3   OH265235   3.402   3.118  14.466  0.1496  0.2099  0.2309
14607TIP3    H165236   3.426   3.142  14.377 -1.2436 -0.3105 -0.3241
14607TIP3    H265237   3.460   3.045  14.488  1.4919  1.2632  0.3331
14608TIP3   OH265238   2.845   2.269  11.469 -0.6166  0.2059 -0.4036
14608TIP3    H165239   2.847   2.318  11.387 -0.8825  0.0792 -0.4864
14608TIP3    H265240   2.778   2.312  11.521  0.5031  1.1592  0.3044
14609TIP3   OH265241   4.243   1.366  16.163  0.2155 -0.2675  0.2733
14609TIP3    H165242   4.252   1.281  16.121  1.2978 -1.7159  3.2254
14609TIP3    H265243   4.168   1.356  16.222  1.5094  0.1329  2.0636
14610TIP3   OH265244   2.632   0.480  12.473 -0.3360  0.1311  0.2238
14610TIP3    H165245   2.559   0.511  12.420 -1.0355  0.2901  1.2511
14610TIP3    H265246   2.605   0.393  12.502  0.6548 -0.5578 -0.8141
14611TIP3   OH265247   6.413   1.938   5.962 -0.5038 -0.0250  0.5832
14611TIP3    H165248   6.407   2.015   6.017 -0.7105 -0.8894  1.8105
14611TIP3    H265249   6.323   1.908   5.952 -0.5153  0.3497 -0.5895
14612TIP3   OH265250   1.236   3.783   0.531  0.6255  0.9975  0.2857
14612TIP3    H165251   1.212   3.861   0.581 -2.1989  0.1832  0.3517
14612TIP3    H265252   1.181   3.714   0.566  2.5677 -0.9260 -0.2380
14613TIP3   OH265253   2.306   6.517  10.850  0.4531  0.5668  0.6107
14613TIP3    H165254   2.213   6.491  10.850  0.3586  0.8551 -0.7712
14613TIP3    H265255   2.338   6.489  10.764  1.7944  0.0075  1.2737
14614TIP3   OH265256   5.847   5.950   5.308  0.1146  0.4509  0.3199
14614TIP3    H165257   5.875   5.917   5.393 -0.9616  0.5759  0.7404
14614TIP3    H265258   5.886   5.890   5.245  1.5857  0.8131  0.8428
14615TIP3   OH265259   3.155   2.270  12.151 -0.2882  0.2529  0.0923
14615TIP3    H165260   3.137   2.221  12.231  0.6270 -0.6775 -0.2433
14615TIP3    H265261   3.149   2.361  12.177  1.1030 -0.0117  1.5252
14616TIP3   OH265262   0.523   2.390  11.600  0.1220 -0.0873 -0.2154
14616TIP3    H165263   0.576   2.361  11.674  1.5055 -1.1769 -1.5655
14616TIP3    H265264   0.494   2.309  11.558  0.9662  0.4427 -1.9303
14617TIP3   OH265265   6.554   6.769   5.148 -0.0400  0.3597 -0.0314
14617TIP3    H165266   6.517   6.856   5.160 -0.2961  0.1021  1.1920
14617TIP3    H265267   6.565   6.735   5.237 -0.1252 -0.9294 -0.4891
14618TIP3   OH265268   4.638   5.160  15.874 -0.4847 -0.0259 -0.2523
14618TIP3    H165269   4.648   5.127  15.784 -1.9461 -1.9731  0.2273
14618TIP3    H265270   4.715   5.127  15.920  1.2397  2.5240 -1.1234
14619TIP3   OH265271   1.605   0.848   3.073  0.1596  0.2278  0.1808
14619TIP3    H165272   1.622   0.794   3.150 -1.7367  0.9122  1.1450
14619TIP3    H265273   1.620   0.938   3.103 -0.2267  0.4719 -0.3389
14620TIP3   OH265274   5.875   1.160   2.135  0.1248 -0.3177 -0.1669
14620TIP3    H165275   5.845   1.069   2.135 -0.5939 -0.0935 -1.3414
14620TIP3    H265276   5.848   1.194   2.221  0.4739 -1.2206  0.3132
14621TIP3   OH265277   1.395   6.600   3.804 -0.4922  0.3833 -0.1231
14621TIP3    H165278   1.335   6.525   3.797 -0.6172  0.5355 -0.7464
14621TIP3    H265279   1.387   6.645   3.720  1.2483 -0.1628 -0.6348
14622TIP3   OH265280   3.018   4.477   0.867  0.0469 -0.1521 -0.2021
14622TIP3    H165281   2.925   4.467   0.887 -0.3545  1.4944 -1.0722
14622TIP3    H265282   3.059   4.496   0.952 -0.5223 -0.2015  0.0880
14623TIP3   OH265283   6.495   2.603   3.273 -0.1181  0.5935 -0.7283
14623TIP3    H165284   6.465   2.562   3.192  0.5426  1.1277 -1.2438
14623TIP3    H265285   6.530   2.688   3.247 -2.6722  2.1402  0.4679
14624TIP3   OH265286   3.626   2.632  13.721 -0.5883  0.0140 -0.4649
14624TIP3    H165287   3.707   2.647  13.673 -0.8745 -0.4361 -1.1050
14624TIP3    H265288   3.653   2.590  13.803 -0.0893  0.8725 -0.1817
14625TIP3   OH265289   2.279   5.224  13.574 -0.1581  0.0729 -0.9799
14625TIP3    H165290   2.337   5.249  13.647 -0.1562  1.4607 -1.4274
14625TIP3    H265291   2.335   5.230  13.496 -0.0869 -1.6539 -1.1054
14626TIP3   OH265292   4.821   6.351  14.617  0.2567  0.4915  0.3125
14626TIP3    H165293   4.835   6.259  14.594  1.8295  0.5102  1.0909
14626TIP3    H265294   4.765   6.385  14.547 -0.0344 -0.9479 -0.1938
14627TIP3   OH265295   4.986   0.656  11.336  0.2538  0.3198 -0.0921
14627TIP3    H165296   4.926   0.596  11.380  1.1190  0.3314  1.1536
14627TIP3    H265297   4.935   0.693  11.264 -0.8020 -0.6636  0.1279
14628TIP3   OH265298   6.610   4.206   5.970  0.0425 -0.2488 -0.1138
14628TIP3    H165299   6.650   4.293   5.980  0.4468 -0.4525  0.0571
14628TIP3    H265300   6.627   4.162   6.053 -0.9328 -0.1841  0.1251
14629TIP3   OH265301   6.290   4.186  14.627  0.4775  0.6618 -0.4755
14629TIP3    H165302   6.350   4.212  14.557 -1.5904  2.0168 -1.8405
14629TIP3    H265303   6.203   4.190  14.587 -0.6663  0.0346  1.7879
14630TIP3   OH265304   2.141   1.172   2.939 -0.8094  0.4238  0.1292
14630TIP3    H165305   2.189   1.189   2.858  0.1400 -1.1649  0.3181
14630TIP3    H265306   2.207   1.179   3.008 -0.8710 -1.4876  0.4266
14631TIP3   OH265307   0.665   3.424   2.901 -0.5080 -0.0323  0.5101
14631TIP3    H165308   0.720   3.366   2.954  0.1213  1.1764  1.2219
14631TIP3    H265309   0.726   3.470   2.845 -1.0623 -0.4466 -0.4641
14632TIP3   OH265310   4.318   0.737   2.883 -0.3464  0.6288 -0.1817
14632TIP3    H165311   4.345   0.753   2.793 -0.4929 -0.6186 -0.4581
14632TIP3    H265312   4.390   0.771   2.936  0.7788 -0.6412 -0.8456
14633TIP3   OH265313   3.716   0.969   0.704 -0.4920  0.2839 -0.2622
14633TIP3    H165314   3.669   0.887   0.720  0.3834 -0.0193  0.8475
14633TIP3    H265315   3.808   0.945   0.702 -0.2631  1.1468 -0.5640
14634TIP3   OH265316   2.474   0.109   3.248  0.6649 -0.1743 -0.6319
14634TIP3    H165317   2.395   0.056   3.260 -0.6892  1.6336 -1.0476
14634TIP3    H265318   2.538   0.069   3.307 -1.2927 -0.3081  1.5890
14635TIP3   OH265319   0.648   4.434   0.748  0.8463 -0.0870  0.2921
14635TIP3    H165320   0.572   4.377   0.762  0.9056 -0.2268  0.0533
14635TIP3    H265321   0.641   4.500   0.817  0.3387  0.0782  0.0849
14636TIP3   OH265322   1.833   1.753  11.486  0.5430 -0.0048  0.3812
14636TIP3    H165323   1.867   1.679  11.536 -1.3607 -0.8102  0.5569
14636TIP3    H265324   1.908   1.813  11.478  1.5108 -0.8933  2.2004
14637TIP3   OH265325   5.624   6.448  13.704  0.4953  0.8549 -0.0158
14637TIP3    H165326   5.547   6.495  13.672 -0.1266  0.3178  0.6535
14637TIP3    H265327   5.621   6.363  13.661 -0.7163 -0.1247  1.8896
14638TIP3   OH265328   4.815   2.318   4.240 -0.2039 -0.2424  0.6327
14638TIP3    H165329   4.757   2.318   4.164 -0.6750 -0.6239  0.9828
14638TIP3    H265330   4.797   2.235   4.284  0.7673 -0.4582  0.6366
14639TIP3   OH265331   0.672   3.771  10.361  0.0769  0.3203 -0.5240
14639TIP3    H165332   0.721   3.748  10.282  1.5536  0.8097  0.2045
14639TIP3    H265333   0.667   3.689  10.411  0.8964  0.4365 -0.2343
14640TIP3   OH265334   3.560   4.536  11.876  0.0796  0.3464 -0.1044
14640TIP3    H165335   3.644   4.500  11.901  0.0699  1.5561  1.8169
14640TIP3    H265336   3.507   4.459  11.852  1.4868 -0.4713 -0.6887
14641TIP3   OH265337   2.216   1.695   2.912 -0.5013 -0.3420 -0.7396
14641TIP3    H165338   2.145   1.754   2.885 -0.5998  0.2236  0.6761
14641TIP3    H265339   2.259   1.741   2.984  0.8517 -1.0139 -1.0803
14642TIP3   OH265340   5.806   4.475  12.013  0.1125 -0.2148  0.2726
14642TIP3    H165341   5.865   4.399  12.013  0.7270  0.2191 -1.8437
14642TIP3    H265342   5.864   4.549  12.031  0.1885  0.1599 -1.3706
14643TIP3   OH265343   3.909   6.206   0.918  0.0575  0.4155  0.1165
14643TIP3    H165344   3.942   6.181   1.004  1.8012  0.2283 -0.5592
14643TIP3    H265345   3.939   6.136   0.860  0.7513  1.5652 -0.9739
14644TIP3   OH265346   0.947   1.559  11.760 -0.4314  1.1173  0.0436
14644TIP3    H165347   0.976   1.585  11.672  2.2119 -0.2992  0.3941
14644TIP3    H265348   1.014   1.593  11.819 -0.3637 -0.7867  1.1413
14645TIP3   OH265349   1.257   5.502  16.620 -0.4437 -0.2314 -0.0057
14645TIP3    H165350   1.238   5.547  16.702  1.4834  1.5919 -0.4686
14645TIP3    H265351   1.267   5.572  16.556  4.0656 -1.0061 -0.4893
14646TIP3   OH265352   5.247   4.864   4.145 -0.0876 -0.1316 -0.3965
14646TIP3    H165353   5.163   4.828   4.174 -0.4615  1.8997  1.2617
14646TIP3    H265354   5.226   4.915   4.067 -0.6471  1.2587  0.6258
14647TIP3   OH265355   5.112   2.279   1.826 -0.1001  0.1388 -1.2067
14647TIP3    H165356   5.083   2.189   1.808  0.2803  0.2006 -2.2078
14647TIP3    H265357   5.082   2.329   1.750 -1.6486  1.1852  0.0590
14648TIP3   OH265358   1.973   5.130  11.658  0.1729  0.4526 -0.1552
14648TIP3    H165359   2.027   5.052  11.648  0.4257  0.4621  1.0526
14648TIP3    H265360   2.001   5.169  11.741  0.0015  1.7869 -0.6970
14649TIP3   OH265361   1.367   2.330  11.477 -0.3385  1.0420 -0.2925
14649TIP3    H165362   1.426   2.390  11.522 -0.0010  0.1416  0.4796
14649TIP3    H265363   1.319   2.386  11.415  0.5899  1.9527 -0.2156
14650TIP3   OH265364   6.773   0.874   3.423 -0.2149  0.0180  0.2382
14650TIP3    H165365   6.787   0.788   3.383 -0.3985 -0.0745  0.3684
14650TIP3    H265366   6.678   0.881   3.431 -0.2293  0.4930 -0.3250
14651TIP3   OH265367   3.684   3.765  13.761  0.4383 -0.0271  0.5192
14651TIP3    H165368   3.749   3.821  13.804 -0.3449  0.1723  1.4733
14651TIP3    H265369   3.658   3.814  13.683  2.3626 -0.6851 -0.6319
14652TIP3   OH265370   0.419   0.854  12.719 -0.9376 -0.5741  0.5910
14652TIP3    H165371   0.389   0.792  12.652 -2.7587 -1.3036  1.9919
14652TIP3    H265372   0.439   0.800  12.795 -0.6081  0.3926  1.2095
14653TIP3   OH265373   1.299   1.725   6.364  0.0084  0.2232 -0.2697
14653TIP3    H165374   1.282   1.753   6.454 -0.0486  1.6494 -0.7114
14653TIP3    H265375   1.213   1.710   6.327  0.0216 -0.0319 -0.2034
14654TIP3   OH265376   1.168   3.819  16.186  0.2861 -0.2364 -0.2309
14654TIP3    H165377   1.144   3.904  16.223  0.4645  1.0221 -2.7791
14654TIP3    H265378   1.085   3.772  16.177  0.1688 -0.3090  1.0529
14655TIP3   OH265379   4.788   3.447  14.561 -0.1338  0.0826 -0.2697
14655TIP3    H165380   4.781   3.381  14.492  0.5585 -0.3070  0.0151
14655TIP3    H265381   4.698   3.467  14.585 -0.3462 -1.0391 -0.1023
14656TIP3   OH265382   5.631   1.581   0.594 -0.1978  0.1378  0.2306
14656TIP3    H165383   5.557   1.570   0.653  0.0919 -0.2756  0.5268
14656TIP3    H265384   5.686   1.504   0.610 -0.1811 -0.0541 -0.6784
14657TIP3   OH265385   5.105   4.886   0.504  0.0551 -0.1165 -0.1942
14657TIP3    H165386   5.021   4.891   0.551 -0.4456 -0.3963 -1.0566
14657TIP3    H265387   5.121   4.793   0.491  0.2261 -0.0412 -0.5335
14658TIP3   OH265388   4.666   1.059   5.565  0.1260  0.2915 -0.9900
14658TIP3    H165389   4.725   0.985   5.549  2.2093  1.7413 -0.4922
14658TIP3    H265390   4.579   1.020   5.568  0.5111 -1.5371 -5.3555
14659TIP3   OH265391   0.867   5.864   0.159 -0.1714 -0.4156  0.3801
14659TIP3    H165392   0.859   5.812   0.239 -1.4138  0.5036  0.8856
14659TIP3    H265393   0.777   5.877   0.130  0.2428 -0.3334 -0.9182
14660TIP3   OH265394   6.152   1.616  11.290 -0.3560  0.2357  0.1919
14660TIP3    H165395   6.198   1.570  11.359  1.3404  1.1386 -0.2842
14660TIP3    H265396   6.104   1.685  11.335  1.2527  1.2298  0.4561
14661TIP3   OH265397   6.524   1.086  13.825  0.9331  0.3511 -0.7061
14661TIP3    H165398   6.565   1.116  13.743 -0.3601  0.8167 -1.2069
14661TIP3    H265399   6.468   1.159  13.852  1.9624  0.5457  1.0700
14662TIP3   OH265400   1.545   5.833   3.323 -0.1871 -0.0941 -0.2197
14662TIP3    H165401   1.561   5.740   3.308  0.0686 -0.2564  0.9518
14662TIP3    H265402   1.628   5.867   3.359 -0.7247  0.2393  0.7637
14663TIP3   OH265403   3.332   4.325  15.345  0.4076  0.2167  0.2453
14663TIP3    H165404   3.388   4.248  15.340  1.6497  1.0394  0.8922
14663TIP3    H265405   3.250   4.298  15.303  0.3456 -1.8418  1.5466
14664TIP3   OH265406   1.039   3.253  13.549  0.1016 -0.1083 -0.5509
14664TIP3    H165407   1.061   3.285  13.462  0.7779 -0.5413 -0.5542
14664TIP3    H265408   1.069   3.322  13.608 -0.8670  0.4349 -0.6805
14665TIP3   OH265409   2.035   3.607   1.380 -1.1092  0.1445 -0.5191
14665TIP3    H165410   1.939   3.613   1.372 -1.2430  0.0287  0.6894
14665TIP3    H265411   2.067   3.692   1.351 -1.7528  0.9237  0.9444
14666TIP3   OH265412   1.665   3.401  11.750 -0.2378 -0.2552 -0.0871
14666TIP3    H165413   1.626   3.481  11.786  1.6424  0.1523  1.1985
14666TIP3    H265414   1.703   3.357  11.826  1.0161 -1.0416 -1.1363
14667TIP3   OH265415   3.202   3.471  13.357  0.0569 -0.4544  0.5344
14667TIP3    H165416   3.270   3.413  13.392 -0.7287  0.2467  3.5121
14667TIP3    H265417   3.236   3.559  13.374 -2.3603 -0.0189  4.2460
14668TIP3   OH265418   6.218   3.116   4.750 -0.3654  0.0018 -0.0614
14668TIP3    H165419   6.173   3.166   4.818  0.4676  0.8384 -0.1036
14668TIP3    H265420   6.241   3.034   4.793 -1.6128 -0.3131  0.0569
14669TIP3   OH265421   2.415   0.873  12.198  0.4784  0.2261 -0.0692
14669TIP3    H165422   2.485   0.853  12.260  0.3070 -1.1748 -0.2755
14669TIP3    H265423   2.383   0.959  12.224  0.6233 -0.1746  1.6034
14670TIP3   OH265424   6.288   1.293  12.838 -0.1506 -0.2094 -0.4292
14670TIP3    H165425   6.241   1.225  12.886 -2.1621 -0.7179 -2.8655
14670TIP3    H265426   6.240   1.374  12.858  0.2700 -0.0659 -0.0007
14671TIP3   OH265427   2.037   5.193  11.909  0.1976  0.1962  0.2913
14671TIP3    H165428   1.991   5.226  11.986 -0.3380 -1.6615  0.8056
14671TIP3    H265429   2.128   5.185  11.937  0.9439  3.6738 -0.6649
14672TIP3   OH265430   2.312   0.476  15.686 -0.3084  0.3158  0.1445
14672TIP3    H165431   2.307   0.491  15.780 -1.0895 -1.5430  0.4405
14672TIP3    H265432   2.273   0.390  15.673  1.0861 -0.1098 -1.7116
14673TIP3   OH265433   0.827   3.024   2.261 -0.1356  0.2617  0.0047
14673TIP3    H165434   0.774   3.026   2.341 -0.1549 -0.2202  0.0040
14673TIP3    H265435   0.874   2.941   2.265  0.5274  0.6256 -0.0573
14674TIP3   OH265436   5.832   3.878   4.265  0.6296 -0.5410 -0.3756
14674TIP3    H165437   5.805   3.794   4.301  0.6596 -0.2379  0.3718
14674TIP3    H265438   5.757   3.936   4.279  1.1653 -0.0417  0.5370
14675TIP3   OH265439   3.769   1.767  17.018  0.2346  0.5561 -0.1146
14675TIP3    H165440   3.692   1.722  16.982 -0.0672  1.0134 -0.0423
14675TIP3    H265441   3.744   1.789  17.107  0.3898  0.8624 -0.1467
14676TIP3   OH265442   2.474   2.814   2.344  0.3281  0.2305  0.3122
14676TIP3    H165443   2.467   2.909   2.337 -2.1581  0.1935  1.3121
14676TIP3    H265444   2.528   2.800   2.421 -0.2234  0.8641  0.8273
14677TIP3   OH265445   1.548   4.322   2.274 -0.3806 -0.3165 -0.1625
14677TIP3    H165446   1.559   4.330   2.179 -1.3874 -1.5598 -0.4003
14677TIP3    H265447   1.462   4.360   2.292  0.2001  0.7748  0.3998
14678TIP3   OH265448   6.377   5.366  14.994 -0.3577 -0.3046 -0.0306
14678TIP3    H165449   6.347   5.288  15.041  1.4110 -0.2438  1.3072
14678TIP3    H265450   6.339   5.439  15.043  1.4141 -0.2442  1.3727
14679TIP3   OH265451   5.723   1.464   4.789 -0.5397  0.7689  0.2497
14679TIP3    H165452   5.774   1.402   4.841 -0.3408  1.0383  0.3814
14679TIP3    H265453   5.657   1.411   4.745  1.0212  0.0931 -1.4246
14680TIP3   OH265454   2.207   0.355  16.905  0.0875  0.2108  0.0528
14680TIP3    H165455   2.162   0.284  16.858 -1.8695  0.7123  1.0575
14680TIP3    H265456   2.206   0.429  16.845  0.2653 -0.0075 -0.2205
14681TIP3   OH265457   4.171   3.864   5.497 -1.0245  0.2809  0.0366
14681TIP3    H165458   4.113   3.855   5.421  0.0517  0.9698 -0.8880
14681TIP3    H265459   4.176   3.958   5.512 -1.5416  0.1342  1.2344
14682TIP3   OH265460   6.017   0.618   3.006 -0.6475  0.0634  0.1139
14682TIP3    H165461   5.943   0.568   3.039  0.3346 -1.8675 -0.4232
14682TIP3    H265462   6.066   0.644   3.084 -0.5692 -0.8462  0.3816
14683TIP3   OH265463   2.993   4.530   5.314 -0.1082 -0.4714  0.1631
14683TIP3    H165464   3.058   4.600   5.319 -2.1235  1.4745  0.5410
14683TIP3    H265465   2.952   4.541   5.228  0.3000 -1.9387 -0.2489
14684TIP3   OH265466   2.985   5.294  15.855  0.6276 -0.3407 -0.3181
14684TIP3    H165467   2.956   5.385  15.856  1.3000 -0.1157 -0.6879
14684TIP3    H265468   2.937   5.253  15.927  1.2087  0.5855  0.6449
14685TIP3   OH265469   3.000   4.973  12.701 -0.0178  0.0881  0.1880
14685TIP3    H165470   3.077   4.917  12.696 -0.3663 -0.2855 -2.7752
14685TIP3    H265471   3.012   5.038  12.632 -2.7169 -0.6079 -1.1187
14686TIP3   OH265472   5.275   0.613   5.107  0.1825 -0.0754 -0.1581
14686TIP3    H165473   5.285   0.541   5.045  0.8252  0.8856 -1.1938
14686TIP3    H265474   5.360   0.657   5.106 -0.5381  1.3628 -0.3725
14687TIP3   OH265475   0.592   2.793   1.305  0.2093  0.0342  0.5550
14687TIP3    H165476   0.523   2.822   1.245 -0.0972  0.6164  1.1847
14687TIP3    H265477   0.673   2.798   1.253  0.1882  2.0661  0.6379
14688TIP3   OH265478   5.659   0.494  12.468 -0.1934 -0.1221 -0.6877
14688TIP3    H165479   5.572   0.454  12.470  0.1106 -0.7698 -0.2912
14688TIP3    H265480   5.695   0.469  12.383 -0.3764  0.1046 -0.8317
14689TIP3   OH265481   6.028   0.070  11.084 -0.1754 -0.5446 -0.0467
14689TIP3    H165482   5.960   0.079  11.151 -0.9475 -3.1582 -0.3655
14689TIP3    H265483   5.980   0.039  11.007  1.3215 -2.6387 -0.2290
14690TIP3   OH265484   0.937   2.831  12.848  0.1291  0.1276  0.1397
14690TIP3    H165485   1.015   2.807  12.897 -0.2721  0.9934  1.2604
14690TIP3    H265486   0.902   2.748  12.816  1.8405 -0.2180 -0.9513
14691TIP3   OH265487   3.983   1.504   0.791 -0.0448 -0.4517 -0.0482
14691TIP3    H165488   4.074   1.533   0.792 -0.3739  0.6234 -0.0286
14691TIP3    H265489   3.951   1.528   0.704  0.1962 -2.5546 -0.7754
14692TIP3   OH265490   2.394   3.917   3.944 -0.1523 -0.1001  0.1376
14692TIP3    H165491   2.452   3.844   3.964  2.9389  1.7547 -1.3309
14692TIP3    H265492   2.341   3.886   3.870  1.1325 -0.8367 -0.4990
14693TIP3   OH265493   6.361   3.680   2.521 -0.4839  0.0096 -0.5286
14693TIP3    H165494   6.267   3.671   2.501 -0.4159  1.7372 -1.8949
14693TIP3    H265495   6.383   3.768   2.490  1.3209  0.1358  0.9739
14694TIP3   OH265496   6.406   1.475   5.316  0.5889  0.4809 -0.1569
14694TIP3    H165497   6.494   1.496   5.349  0.4093  1.0886 -0.0430
14694TIP3    H265498   6.355   1.554   5.333  0.5751  0.9816 -2.2043
14695TIP3   OH265499   4.401   3.120   3.231 -0.3589 -0.4995  0.2854
14695TIP3    H165500   4.459   3.111   3.307  0.6086 -1.5039 -0.5481
14695TIP3    H265501   4.313   3.119   3.269  0.1127 -0.5303  1.4308
14696TIP3   OH265502   4.586   1.196  16.639  0.4390  0.2329 -0.1947
14696TIP3    H165503   4.575   1.157  16.553 -0.2167 -0.1038  0.0438
14696TIP3    H265504   4.500   1.190  16.680  0.2731  1.9919 -0.1788
14697TIP3   OH265505   1.330   3.529  16.621 -0.3800  0.3251 -0.8006
14697TIP3    H165506   1.357   3.613  16.658  1.9265 -0.4406 -0.5993
14697TIP3    H265507   1.247   3.549  16.577 -0.1888  2.5707 -0.3078
14698TIP3   OH265508   2.230   5.062  16.291  0.8151  0.8000 -0.4580
14698TIP3    H165509   2.135   5.075  16.286  0.7515  0.1299 -1.3276
14698TIP3    H265510   2.241   4.970  16.314  1.1903 -0.2386 -4.0779
14699TIP3   OH265511   3.591   5.146  15.260  0.0773  0.6346 -0.1980
14699TIP3    H165512   3.568   5.192  15.180  2.5358 -1.7659 -2.4833
14699TIP3    H265513   3.530   5.072  15.264 -1.8366  2.1576  1.8027
14700TIP3   OH265514   0.502   4.597  14.530 -0.1743  0.2969  0.1080
14700TIP3    H165515   0.521   4.671  14.472  0.5079  0.3076  0.3396
14700TIP3    H265516   0.412   4.611  14.557 -0.4951  0.3203 -0.9070
14701TIP3   OH265517   6.469   2.162  14.799  0.5207 -0.0040 -0.6607
14701TIP3    H165518   6.478   2.101  14.726 -0.3181 -1.7110  0.5903
14701TIP3    H265519   6.555   2.163  14.840  0.1906 -1.5696  0.1718
14702TIP3   OH265520   0.722   0.477  14.285 -0.0494 -0.6972  0.1256
14702TIP3    H165521   0.772   0.557  14.267  0.4524 -1.2676 -1.2068
14702TIP3    H265522   0.661   0.501  14.354  0.9325  0.4916  0.6156
14703TIP3   OH265523   6.471   5.027   3.863  0.4814 -0.2914  0.3147
14703TIP3    H165524   6.465   5.050   3.956  0.8144  1.4863 -0.0585
14703TIP3    H265525   6.556   4.983   3.855  1.5040  1.5340  0.5240
14704TIP3   OH265526   6.499   0.524  13.814 -0.4929  0.1394 -0.0981
14704TIP3    H165527   6.504   0.617  13.835 -1.7131  0.3811 -0.8273
14704TIP3    H265528   6.462   0.484  13.892  0.4025  0.1870  0.3695
14705TIP3   OH265529   3.774   2.394  13.682  1.1442  0.2164 -0.4237
14705TIP3    H165530   3.720   2.348  13.618 -1.4501  4.4029 -1.6930
14705TIP3    H265531   3.720   2.395  13.762  1.7344  0.0083 -0.0148
14706TIP3   OH265532   2.474   3.601   5.676 -0.2422 -0.3264 -0.7239
14706TIP3    H165533   2.494   3.608   5.769 -2.3765 -1.1552 -0.1463
14706TIP3    H265534   2.401   3.660   5.662 -0.4196 -0.7602 -1.7232
14707TIP3   OH265535   3.672   2.658  17.260  0.4327 -0.2503  0.4353
14707TIP3    H165536   3.734   2.587  17.247 -0.8936 -1.1883 -1.4109
14707TIP3    H265537   3.613   2.627  17.329 -0.1519 -0.9949 -0.3769
14708TIP3   OH265538   1.250   1.292   3.143  0.4860  0.4810 -0.2635
14708TIP3    H165539   1.254   1.388   3.146  3.1276  0.4964 -1.3392
14708TIP3    H265540   1.313   1.263   3.209  0.3380 -0.5122 -0.5353
14709TIP3   OH265541   3.748   0.936   5.193 -0.4564  0.3536  0.3397
14709TIP3    H165542   3.688   0.880   5.144 -0.6214  0.1037  0.8229
14709TIP3    H265543   3.692   0.985   5.253 -0.1704 -0.0094  0.9213
14710TIP3   OH265544   2.250   6.408   2.035  0.5250  0.4424  0.4408
14710TIP3    H165545   2.266   6.499   2.061  1.2389  0.0239  1.5490
14710TIP3    H265546   2.314   6.391   1.966  0.8964  0.5736  0.7465
14711TIP3   OH265547   2.052   5.190  14.171 -0.2355 -0.1349  0.1135
14711TIP3    H165548   2.050   5.177  14.265 -0.5022  2.2160  0.4734
14711TIP3    H265549   2.135   5.150  14.143 -1.0782 -2.6734  0.9667
14712TIP3   OH265550   5.890   3.220  12.074  0.1112  0.2391  0.2582
14712TIP3    H165551   5.856   3.214  12.163 -1.1440  0.8185 -0.1641
14712TIP3    H265552   5.828   3.170  12.021  1.0183 -0.3666 -0.2624
14713TIP3   OH265553   4.865   5.646  15.742 -0.1436  0.5981 -0.6099
14713TIP3    H165554   4.860   5.553  15.764 -0.6397  0.6388 -0.5271
14713TIP3    H265555   4.843   5.650  15.649 -0.4911  0.6651 -0.5269
14714TIP3   OH265556   1.918   6.414   2.321 -0.1757 -0.2241 -0.0563
14714TIP3    H165557   1.952   6.494   2.361  2.5593 -1.3991  0.2477
14714TIP3    H265558   1.900   6.356   2.394  0.9714 -0.9643 -0.3283
14715TIP3   OH265559   5.720   3.486  12.726  0.1278 -0.1121 -0.0861
14715TIP3    H165560   5.797   3.539  12.706 -0.6075  1.7101  1.6366
14715TIP3    H265561   5.650   3.525  12.674  0.4678 -2.4434 -2.5211
14716TIP3   OH265562   5.106   1.285   3.357  0.1319  0.7537  0.4600
14716TIP3    H165563   5.123   1.362   3.302  0.9379  1.0909  1.1512
14716TIP3    H265564   5.052   1.318   3.428 -0.1017  0.5313  0.3848
14717TIP3   OH265565   5.546   0.111  12.504 -0.3168 -0.4458 -0.2589
14717TIP3    H165566   5.580   0.074  12.585 -0.7184  0.0840  0.1590
14717TIP3    H265567   5.619   0.106  12.443 -0.1306 -1.2193  0.0110
14718TIP3   OH265568   6.689   2.216  14.975 -0.3491  0.3812 -0.2088
14718TIP3    H165569   6.742   2.249  15.047 -0.2080 -0.9519  0.3365
14718TIP3    H265570   6.695   2.121  14.983  0.6433  0.1623 -2.7129
14719TIP3   OH265571   1.147   0.778   5.007 -0.4012  0.1066  0.4187
14719TIP3    H165572   1.137   0.704   5.067  0.0776 -1.5022 -1.4110
14719TIP3    H265573   1.240   0.800   5.012 -0.7464  1.4708  1.8764
14720TIP3   OH265574   1.982   0.339  14.501 -0.8018 -0.0546  0.3912
14720TIP3    H165575   1.926   0.286  14.444  0.9981  0.4003 -1.9450
14720TIP3    H265576   1.976   0.427  14.464  0.9726  0.1023  0.4262
14721TIP3   OH265577   0.568   0.798  12.028 -0.0440  0.2722 -0.0387
14721TIP3    H165578   0.577   0.852  11.950  0.9031 -1.3022 -1.0907
14721TIP3    H265579   0.474   0.779  12.033 -0.1790  0.7896 -0.5238
14722TIP3   OH265580   2.261   2.407  10.818  0.0859  0.3924 -0.0159
14722TIP3    H165581   2.202   2.362  10.879  2.4774 -0.7677  1.6247
14722TIP3    H265582   2.279   2.342  10.750  0.8259  0.0867  0.4601
14723TIP3   OH265583   4.224   1.114  16.036 -0.3887 -0.4616  0.0911
14723TIP3    H165584   4.229   1.077  16.124  1.4326  0.8364  0.5999
14723TIP3    H265585   4.242   1.041  15.978 -2.3550 -1.5020  0.7005
14724TIP3   OH265586   5.371   3.913  15.745  0.3788 -0.3765 -0.4168
14724TIP3    H165587   5.372   4.006  15.768  0.1032 -0.4081 -0.2727
14724TIP3    H265588   5.367   3.868  15.830 -1.0752 -0.4874 -0.5271
14725TIP3   OH265589   0.724   4.960  15.370  0.2997 -0.1710 -0.0236
14725TIP3    H165590   0.812   4.942  15.338 -0.5621 -1.8275 -1.6238
14725TIP3    H265591   0.675   4.986  15.292 -1.1234 -1.2663  0.4675
14726TIP3   OH265592   2.992   0.385   3.258  0.5704  0.5039 -0.0346
14726TIP3    H165593   2.926   0.316   3.260 -0.8523  1.8076  1.8132
14726TIP3    H265594   3.053   0.362   3.328 -0.4606  1.5667  1.2579
14727TIP3   OH265595   3.568   2.298   2.152  0.1590  0.0381  0.2920
14727TIP3    H165596   3.585   2.322   2.243  1.2855  1.9973 -0.3629
14727TIP3    H265597   3.534   2.378   2.112 -0.4077 -0.8180 -1.0031
14728TIP3   OH265598   2.830   0.277  15.039  0.2417 -0.0428 -0.1779
14728TIP3    H165599   2.757   0.230  14.998  0.5597  0.2193 -1.0753
14728TIP3    H265600   2.904   0.260  14.981  0.9367 -0.4311  0.8097
14729TIP3   OH265601   5.412   1.844   0.980  0.0367  0.0460  0.2570
14729TIP3    H165602   5.333   1.790   0.986  0.0405 -0.5030 -2.9589
14729TIP3    H265603   5.380   1.934   0.989 -0.5082 -0.2525  1.7155
14730TIP3   OH265604   4.154   5.614  17.151  0.3845  0.1076 -0.6804
14730TIP3    H165605   4.083   5.664  17.190  1.1480  0.6603  0.0177
14730TIP3    H265606   4.178   5.664  17.072 -0.3945 -0.4086 -1.2647
14731TIP3   OH265607   4.134   5.964   3.555 -0.7552 -0.5255 -0.1717
14731TIP3    H165608   4.100   5.904   3.489  1.7322 -1.2263 -0.9159
14731TIP3    H265609   4.213   6.001   3.515  0.3376 -0.3113  2.0436
14732TIP3   OH265610   5.078   5.751  12.177 -0.4113  0.4212  0.1215
14732TIP3    H165611   5.082   5.667  12.222 -0.0880  0.1590 -0.3883
14732TIP3    H265612   4.995   5.790  12.206 -0.0758  0.3962  1.1619
14733TIP3   OH265613   3.568   0.205  11.163  0.7222  1.3008  0.3578
14733TIP3    H165614   3.664   0.210  11.157  0.6651  1.2483 -0.7685
14733TIP3    H265615   3.537   0.279  11.112  0.1385  0.3984 -0.6319
14734TIP3   OH265616   1.003   4.038  14.314  0.1721 -0.0126  0.0718
14734TIP3    H165617   0.910   4.034  14.335 -0.4117 -1.1433 -2.3527
14734TIP3    H265618   1.046   4.054  14.397 -2.1055 -0.6998  1.4645
14735TIP3   OH265619   2.365   4.874   0.568 -0.3318 -0.2730  0.0664
14735TIP3    H165620   2.406   4.959   0.585 -0.5237  0.0191 -0.9109
14735TIP3    H265621   2.271   4.892   0.565 -0.2669 -0.0013 -2.7754
14736TIP3   OH265622   1.895   1.654  13.062 -0.8695 -0.7655 -0.0723
14736TIP3    H165623   1.905   1.576  13.007  0.9769  0.0761 -0.9784
14736TIP3    H265624   1.881   1.725  13.001 -0.3970 -0.0485  0.6390
14737TIP3   OH265625   3.504   4.941  14.466 -0.5418 -0.1677 -0.7901
14737TIP3    H165626   3.584   4.917  14.513 -0.1801  0.3558 -1.1278
14737TIP3    H265627   3.474   4.859  14.426 -0.7826 -0.5898  0.2350
14738TIP3   OH265628   1.898   2.413   6.258  0.5118  0.1147  0.2580
14738TIP3    H165629   1.887   2.318   6.269  0.1650 -0.0189 -1.0798
14738TIP3    H265630   1.834   2.452   6.317 -1.1545 -0.5490 -1.0069
14739TIP3   OH265631   1.178   1.720  15.946  0.3296 -0.7132 -0.6844
14739TIP3    H165632   1.137   1.753  15.866  2.2732  1.4638 -0.9043
14739TIP3    H265633   1.269   1.702  15.920  0.7415 -0.9263  0.8081
14740TIP3   OH265634   1.354   1.646   0.647 -0.2120  0.2387 -0.0535
14740TIP3    H165635   1.405   1.568   0.666 -0.5823  0.2033  0.8336
14740TIP3    H265636   1.323   1.633   0.557  1.8757  0.5863 -0.8760
14741TIP3   OH265637   0.038   4.051   6.463 -0.9618  0.0776 -0.0673
14741TIP3    H165638  -0.023   3.987   6.499 -0.3148 -0.2337  0.5007
14741TIP3    H265639  -0.014   4.130   6.450 -1.7065 -0.4798 -0.5171
14742TIP3   OH265640   4.222   4.919   5.266 -0.3178  0.5972  0.3601
14742TIP3    H165641   4.304   4.872   5.256  0.0295  1.3760 -0.7128
14742TIP3    H265642   4.200   4.912   5.359  1.9162  1.9215  1.0478
14743TIP3   OH265643   5.793   3.181  16.920 -0.2778 -0.3305 -0.3550
14743TIP3    H165644   5.812   3.269  16.954  0.0898 -0.1532 -0.9959
14743TIP3    H265645   5.876   3.152  16.882 -0.8500 -0.2182 -1.7297
14744TIP3   OH265646   3.121   0.725   0.370  0.1118 -0.0043  0.0952
14744TIP3    H165647   3.043   0.728   0.426  1.3660  0.7132  1.8950
14744TIP3    H265648   3.136   0.816   0.344 -0.8765 -0.4123 -2.1089
14745TIP3   OH265649   4.767   1.470  12.409  0.0185  0.4923  0.3011
14745TIP3    H165650   4.733   1.434  12.491 -0.4050  1.5932  0.6255
14745TIP3    H265651   4.855   1.502  12.431 -0.8139  2.5431  0.8548
14746TIP3   OH265652   5.374   2.801  16.426  0.0618  0.1539  0.1158
14746TIP3    H165653   5.311   2.834  16.362  1.7443  0.2058 -1.6197
14746TIP3    H265654   5.437   2.750  16.374 -0.1585 -2.4478  2.1471
14747TIP3   OH265655   5.581   2.704   1.805 -0.0435 -0.4635 -0.7981
14747TIP3    H165656   5.581   2.608   1.806 -1.0661 -0.5680 -3.3533
14747TIP3    H265657   5.651   2.728   1.744  0.1950  0.4405 -0.1952
14748TIP3   OH265658   6.439   2.602  12.100  0.3227  0.0329  0.0811
14748TIP3    H165659   6.417   2.655  12.177 -0.8775  0.2113 -0.3692
14748TIP3    H265660   6.504   2.655  12.053  1.3601 -0.2576  1.1628
14749TIP3   OH265661   2.714   3.545   2.348 -0.1284 -0.3392  0.0184
14749TIP3    H165662   2.666   3.467   2.324 -0.5443 -0.5614  1.5338
14749TIP3    H265663   2.655   3.595   2.404  0.9177 -0.0049  0.8696
14750TIP3   OH265664   1.062   5.342  12.722  0.1127 -0.3633 -0.3163
14750TIP3    H165665   0.995   5.340  12.790 -0.4479 -1.6022 -0.8757
14750TIP3    H265666   1.130   5.282  12.753  0.5855  0.2746 -0.1213
14751TIP3   OH265667   3.866   2.994   3.052  0.5016  0.2000 -0.0631
14751TIP3    H165668   3.809   3.063   3.018 -0.3077 -0.4018  0.0701
14751TIP3    H265669   3.807   2.928   3.087  1.2938  0.0199  0.9923
14752TIP3   OH265670   0.783   2.060  12.550 -0.4165 -0.3075 -0.1267
14752TIP3    H165671   0.872   2.028  12.567 -0.0745  0.1065 -1.0578
14752TIP3    H265672   0.765   2.119  12.623  0.3753  0.1975 -0.3272
14753TIP3   OH265673   1.270   2.923  16.599  0.1159  0.0837  0.5201
14753TIP3    H165674   1.187   2.884  16.626  0.9801 -0.7559  2.1436
14753TIP3    H265675   1.334   2.853  16.611  0.9626  0.4064 -1.6213
14754TIP3   OH265676   3.046   0.860   3.615  0.0387  0.0518 -0.0907
14754TIP3    H165677   3.020   0.951   3.630 -1.5055  0.1697 -2.8482
14754TIP3    H265678   2.964   0.813   3.604  0.8266 -1.7100  1.1098
14755TIP3   OH265679   1.471   6.721  16.482  0.0899 -0.4138 -0.4529
14755TIP3    H165680   1.491   6.772  16.404  0.7382  0.9388  0.5674
14755TIP3    H265681   1.453   6.786  16.550  0.4996 -1.5377  0.7751
14756TIP3   OH265682   3.438   3.960  13.780 -0.1442  0.2361 -0.0331
14756TIP3    H165683   3.503   3.942  13.847  0.5772  0.7165 -0.5873
14756TIP3    H265684   3.444   4.055  13.765 -2.1690  0.6096  1.1089
14757TIP3   OH265685   2.907   4.877  15.515 -0.2774 -0.3532 -0.0184
14757TIP3    H165686   2.815   4.888  15.492 -0.0628  0.1812 -0.6646
14757TIP3    H265687   2.943   4.966  15.513  0.8657 -0.7779 -2.5035
14758TIP3   OH265688   1.247   2.119  10.617 -0.2742 -0.3740 -0.1256
14758TIP3    H165689   1.265   2.191  10.557  2.7906 -0.3473  0.6566
14758TIP3    H265690   1.333   2.095  10.652 -1.7328 -1.4682  3.0274
14759TIP3   OH265691   4.243   6.598   5.239 -0.3769  0.5330 -0.3921
14759TIP3    H165692   4.149   6.592   5.222 -0.8618  0.8541  1.9069
14759TIP3    H265693   4.275   6.508   5.234 -1.6817 -0.2592  2.9908
14760TIP3   OH265694   2.716   3.842   1.729  0.0964  0.3009 -0.2326
14760TIP3    H165695   2.631   3.798   1.727 -0.3169  0.8780 -4.3174
14760TIP3    H265696   2.701   3.925   1.684  3.1005 -0.4115 -2.9233
14761TIP3   OH265697   5.844   5.719   4.810  0.5451 -0.3618 -0.0739
14761TIP3    H165698   5.826   5.673   4.728  1.6234 -0.5399 -0.2251
14761TIP3    H265699   5.775   5.690   4.869  0.6137 -1.3909 -0.4774
14762TIP3   OH265700   3.703   1.902   4.352  0.0373  0.0531 -0.6981
14762TIP3    H165701   3.749   1.985   4.367 -0.9187  0.3686  0.7086
14762TIP3    H265702   3.699   1.861   4.439 -0.6794 -0.8482 -1.1363
14763TIP3   OH265703   5.272   4.182  15.837  0.0796 -0.1550 -0.3875
14763TIP3    H165704   5.207   4.121  15.872 -1.9845  1.5404 -1.0448
14763TIP3    H265705   5.290   4.243  15.909  0.0577  0.0534 -0.5554
14764TIP3   OH265706   6.304   3.986  10.764  0.1044 -0.1086 -0.4310
14764TIP3    H165707   6.349   3.923  10.820 -0.8003 -0.0664  0.3604
14764TIP3    H265708   6.362   4.061  10.761  0.1575 -0.1042  0.4740
14765TIP3   OH265709   2.171   0.802  14.134 -0.0347 -0.0421 -0.4955
14765TIP3    H165710   2.217   0.805  14.218  1.5786 -1.7927 -1.2616
14765TIP3    H265711   2.121   0.884  14.132 -1.5869 -0.7021  2.9543
14766TIP3   OH265712   6.088   5.781   0.874  0.3907 -0.5798 -0.0792
14766TIP3    H165713   6.006   5.741   0.847  1.4137 -2.4439 -0.6465
14766TIP3    H265714   6.151   5.754   0.807  1.4143  1.0943  0.1459
14767TIP3   OH265715   0.916   5.203   0.862 -0.0231  0.8700  0.1081
14767TIP3    H165716   0.958   5.126   0.822 -0.4718  1.1199 -0.8775
14767TIP3    H265717   0.840   5.219   0.807 -0.1768  1.7662  0.5749
14768TIP3   OH265718   0.709   4.488  15.704 -0.4224  0.3647  0.3176
14768TIP3    H165719   0.767   4.519  15.774  1.4927 -2.1671 -0.0172
14768TIP3    H265720   0.657   4.420  15.745  0.5629 -0.9885 -0.5904
14769TIP3   OH265721   3.955   4.973   2.727 -0.3935 -0.5694 -0.0130
14769TIP3    H165722   3.865   4.949   2.705  0.1654 -2.6976 -0.2229
14769TIP3    H265723   3.953   4.986   2.822 -0.9482 -0.4347 -0.0389
14770TIP3   OH265724   6.444   4.755  15.864 -0.2955  0.1310  0.1081
14770TIP3    H165725   6.358   4.743  15.904 -1.1179  0.5487 -1.4441
14770TIP3    H265726   6.484   4.668  15.864 -0.0618  0.1866  2.1678
14771TIP3   OH265727   1.716   4.057  15.120 -0.0941 -0.0931  0.0861
14771TIP3    H165728   1.776   4.130  15.132  1.1168 -0.8932 -0.9141
14771TIP3    H265729   1.759   3.982  15.162 -0.8013 -0.4934  0.1275
14772TIP3   OH265730   2.599   4.209   2.229  0.1275  0.2628 -0.3178
14772TIP3    H165731   2.597   4.273   2.301  0.1139  0.8732 -0.8447
14772TIP3    H265732   2.510   4.208   2.194  0.1491  0.0221 -0.3687
14773TIP3   OH265733   3.256   5.176   4.236 -0.5040 -0.2879  0.5957
14773TIP3    H165734   3.199   5.127   4.177  0.8899 -0.5520 -0.5742
14773TIP3    H265735   3.209   5.176   4.320 -1.7985 -1.2443 -0.0983
14774TIP3   OH265736   0.873   0.136   2.891 -0.1875 -0.3081  0.1834
14774TIP3    H165737   0.865   0.226   2.858 -2.5937 -0.4374  0.2067
14774TIP3    H265738   0.931   0.144   2.967 -1.2934  1.4703  0.9224
14775TIP3   OH265739   0.690   4.385  11.825  0.3725 -0.3740  0.3391
14775TIP3    H165740   0.671   4.380  11.731 -2.0404 -1.4110  0.8132
14775TIP3    H265741   0.663   4.473  11.850 -1.2595 -0.8919  0.4711
14776TIP3   OH265742   5.165   2.371  10.894 -0.6359 -0.4207  0.1570
14776TIP3    H165743   5.128   2.435  10.955  0.0874 -0.1138  0.2883
14776TIP3    H265744   5.089   2.327  10.857 -1.0928 -0.7666  1.4392
14777TIP3   OH265745   5.320   2.704  13.494 -0.1560  0.1349 -0.1073
14777TIP3    H165746   5.412   2.728  13.502 -0.4661  1.3925 -0.1669
14777TIP3    H265747   5.318   2.641  13.422  0.5951  0.4154 -0.3857
14778TIP3   OH265748   3.885   5.645   5.648 -0.3654  0.2445 -0.6378
14778TIP3    H165749   3.885   5.721   5.590 -0.0010  0.5098 -0.2851
14778TIP3    H265750   3.910   5.572   5.591  2.6839  0.9061 -0.3026
14779TIP3   OH265751   6.362   6.566   4.065  0.7661  0.3944 -0.0599
14779TIP3    H165752   6.297   6.631   4.091 -0.1599 -0.4648 -0.1535
14779TIP3    H265753   6.373   6.580   3.971 -0.5140 -0.4885 -0.3679
14780TIP3   OH265754   0.640   2.340   2.334  0.1215 -0.0400  0.4233
14780TIP3    H165755   0.558   2.385   2.352  0.1096  0.7171 -1.3181
14780TIP3    H265756   0.682   2.392   2.265 -0.1155 -2.8610 -2.0743
14781TIP3   OH265757   4.554   0.448   2.530 -0.0617 -0.1139  0.2180
14781TIP3    H165758   4.617   0.380   2.555  0.6208  0.4241  0.0004
14781TIP3    H265759   4.530   0.490   2.613  1.0059  0.6452  0.1619
14782TIP3   OH265760   1.611   6.606  12.023  0.0389 -0.0197 -0.2229
14782TIP3    H165761   1.580   6.662  11.951  0.7802 -0.3991 -0.8437
14782TIP3    H265762   1.531   6.583  12.071 -0.3384  1.1690 -0.2348
14783TIP3   OH265763   5.952   0.541   3.449  0.2235 -0.7349  0.3997
14783TIP3    H165764   5.983   0.629   3.470 -1.2662  0.0733 -0.6318
14783TIP3    H265765   6.004   0.515   3.373 -0.1191 -0.2817  0.0088
14784TIP3   OH265766   1.112   4.753   1.127  0.0105  0.2712 -1.2226
14784TIP3    H165767   1.159   4.789   1.051 -0.0590  2.5247 -0.2870
14784TIP3    H265768   1.037   4.812   1.138 -1.3755 -1.4832 -0.8640
14785TIP3   OH265769   3.367   3.735   5.534 -0.4966  0.4203 -0.0573
14785TIP3    H165770   3.367   3.746   5.630  0.6350  1.2641 -0.1170
14785TIP3    H265771   3.310   3.805   5.502 -2.0508 -0.7576  0.0410
14786TIP3   OH265772   0.061   3.055  13.820  0.0160  0.3198  0.6012
14786TIP3    H165773   0.117   2.982  13.848 -0.9149 -0.6928 -0.0670
14786TIP3    H265774  -0.015   3.051  13.878 -0.9561 -0.5025 -0.6549
14787TIP3   OH265775   5.925   2.758  11.546  0.0600 -0.3465 -0.4090
14787TIP3    H165776   5.881   2.750  11.630 -0.8957  0.8541 -0.7596
14787TIP3    H265777   5.938   2.667  11.517  0.3505 -0.7685  0.9847
14788TIP3   OH265778   6.355   3.406  15.786 -1.2854  0.2070  0.0367
14788TIP3    H165779   6.311   3.323  15.764 -2.1350  0.8238 -0.6707
14788TIP3    H265780   6.443   3.380  15.813 -1.7585 -0.9841  0.5083
14789TIP3   OH265781   3.518   3.288   2.753 -0.1892  0.3150  0.2374
14789TIP3    H165782   3.477   3.368   2.788 -0.8801  0.6064 -1.1411
14789TIP3    H265783   3.452   3.253   2.693  1.2855  0.3916 -1.5077
14790TIP3   OH265784   2.571   3.384  12.516  0.0941  0.1922  0.6404
14790TIP3    H165785   2.533   3.330  12.584 -1.2821 -0.4171 -0.5585
14790TIP3    H265786   2.501   3.394  12.451  1.2736  0.9184 -0.5758
14791TIP3   OH265787   1.727   0.694   1.617  0.1829 -0.9741 -0.4423
14791TIP3    H165788   1.739   0.780   1.577  0.6048 -0.4126  0.8686
14791TIP3    H265789   1.658   0.653   1.564 -1.7089  1.0550  0.2813
14792TIP3   OH265790   1.166   2.365   0.592  0.4901  0.1132 -0.6743
14792TIP3    H165791   1.235   2.423   0.623  1.5269 -0.1877 -2.2895
14792TIP3    H265792   1.204   2.278   0.596 -0.2717 -0.2157 -0.3739
14793TIP3   OH265793   0.979   3.589  16.099  0.0234 -0.8629 -0.1417
14793TIP3    H165794   0.950   3.513  16.150 -0.3662 -2.2002 -2.2680
14793TIP3    H265795   0.926   3.661  16.133 -0.8783 -1.8917  0.7291
14794TIP3   OH265796   3.419   6.093  15.458  0.0094 -0.1566 -0.1615
14794TIP3    H165797   3.488   6.071  15.521 -1.5186  2.2983  2.5882
14794TIP3    H265798   3.434   6.185  15.437 -1.8407  0.1524 -0.2678
14795TIP3   OH265799   3.172   0.134   3.655  0.1270  1.1653  0.2901
14795TIP3    H165800   3.256   0.135   3.611  0.1212 -1.2607  0.0712
14795TIP3    H265801   3.188   0.087   3.737 -0.9727  0.7026  0.2635
14796TIP3   OH265802   6.270   5.162  15.130 -0.4894  0.0191  0.6324
14796TIP3    H165803   6.278   5.095  15.061  0.8290  1.9082 -1.1597
14796TIP3    H265804   6.180   5.153  15.161 -1.0668 -1.0518 -1.1836
14797TIP3   OH265805   1.292   6.334   4.783  0.1851  0.0102 -0.6124
14797TIP3    H165806   1.373   6.327   4.834  0.6078  0.5771 -1.1921
14797TIP3    H265807   1.269   6.427   4.786 -1.0490 -0.2907  0.4319
14798TIP3   OH265808   2.239   1.445  14.974  0.0769  0.0037 -0.4913
14798TIP3    H165809   2.270   1.367  14.928  2.5826 -0.4798  1.7472
14798TIP3    H265810   2.163   1.416  15.024  1.0138 -1.0613  0.3548
14799TIP3   OH265811   0.716   6.181   4.593  0.1334  0.0708 -0.0705
14799TIP3    H165812   0.811   6.192   4.589  0.0366  0.8702 -0.3983
14799TIP3    H265813   0.685   6.210   4.507 -0.2873 -1.6267 -0.5330
14800TIP3   OH265814   2.098   2.084  11.313 -0.1730  0.0972 -0.0057
14800TIP3    H165815   2.157   2.157  11.294  1.2307 -0.5506  1.6802
14800TIP3    H265816   2.084   2.041  11.229  3.7904 -1.2220 -0.1512
14801TIP3   OH265817   3.769   6.447   2.033 -0.5810 -0.0894 -0.1441
14801TIP3    H165818   3.732   6.414   2.115 -0.1782 -0.5739 -0.1489
14801TIP3    H265819   3.736   6.387   1.966  0.5854 -0.8515 -0.0852
14802TIP3   OH265820   3.972   3.551  16.945  0.3221  0.6669  0.3576
14802TIP3    H165821   3.956   3.471  16.897  1.6146 -0.0863  1.1265
14802TIP3    H265822   4.024   3.606  16.885  0.1725  0.5792  0.1478
14803TIP3   OH265823   1.932   3.083   4.161 -0.0334  0.0515  0.1614
14803TIP3    H165824   1.885   3.000   4.166  0.4745 -0.2389  0.2206
14803TIP3    H265825   1.932   3.117   4.250  0.3105 -0.1981  0.2566
14804TIP3   OH265826   3.699   4.316   6.177 -0.5471  0.5096  0.4044
14804TIP3    H165827   3.660   4.228   6.178  2.6915 -1.1689 -2.0768
14804TIP3    H265828   3.653   4.361   6.106  0.4088 -0.6528 -1.0042
14805TIP3   OH265829   2.339   5.915  16.478 -0.4507  0.3947 -0.4727
14805TIP3    H165830   2.257   5.918  16.430  0.0330 -1.5274 -1.5461
14805TIP3    H265831   2.377   5.830  16.454  1.2291  0.6768  1.0052
14806TIP3   OH265832   4.898   2.620  15.919  0.5390  0.2415 -0.0797
14806TIP3    H165833   4.828   2.627  15.854 -0.0484  0.3903  0.5627
14806TIP3    H265834   4.930   2.530  15.909 -0.7393 -0.3220  0.6200
14807TIP3   OH265835   0.486   4.825  13.371 -1.0623  0.6294  0.3436
14807TIP3    H165836   0.431   4.746  13.366  1.8166 -1.5448  0.5976
14807TIP3    H265837   0.534   4.816  13.453 -0.0406  2.2449 -0.0391
14808TIP3   OH265838   1.022   0.381  13.041 -0.0722 -0.5089 -0.0473
14808TIP3    H165839   1.018   0.463  12.991  1.1429 -0.6429 -0.3934
14808TIP3    H265840   1.024   0.409  13.133  2.8818  0.0356 -0.1818
14809TIP3   OH265841   2.667   4.403   3.387 -0.0151  0.0523  0.1264
14809TIP3    H165842   2.702   4.402   3.476 -0.1858  1.2440  0.2144
14809TIP3    H265843   2.666   4.495   3.362  0.4219 -0.2844 -1.2678
14810TIP3   OH265844   3.016   3.283   3.116 -0.6474 -0.5441  0.4892
14810TIP3    H165845   3.002   3.366   3.160 -2.2505 -1.0304  0.9406
14810TIP3    H265846   3.021   3.219   3.187 -0.2734 -0.9610  0.0977
14811TIP3   OH265847   1.383   0.251   6.360  0.5990  0.0729 -0.3618
14811TIP3    H165848   1.377   0.319   6.428 -0.7738 -0.6581  0.2748
14811TIP3    H265849   1.477   0.230   6.357  0.9834  1.5773 -0.1821
14812TIP3   OH265850   0.394   6.118  13.752 -0.3020 -0.0369 -0.1503
14812TIP3    H165851   0.351   6.099  13.835 -0.1561 -0.5180 -0.1862
14812TIP3    H265852   0.422   6.033  13.718 -0.3640  0.1535 -0.6957
14813TIP3   OH265853   2.659   3.886   5.970  0.1271 -0.5362 -0.6063
14813TIP3    H165854   2.709   3.902   5.889 -0.5837 -0.2133 -0.9889
14813TIP3    H265855   2.612   3.805   5.953 -0.9006  0.1122 -0.9690
14814TIP3   OH265856   1.577   5.317   5.547 -0.0090  0.1033  0.0189
14814TIP3    H165857   1.495   5.281   5.580  0.0698 -0.2421 -0.1602
14814TIP3    H265858   1.630   5.332   5.626  1.3518 -3.4855  0.0024
14815TIP3   OH265859   5.011   5.930  12.838  0.0732  0.2534 -0.8569
14815TIP3    H165860   5.034   5.874  12.912 -2.8202  0.0175  0.0097
14815TIP3    H265861   5.094   5.966  12.808  1.4842 -0.4222  1.8908
14816TIP3   OH265862   0.185   5.518   5.211  0.0973 -0.0947  0.6715
14816TIP3    H165863   0.168   5.428   5.239 -0.5240 -0.8668 -1.9096
14816TIP3    H265864   0.109   5.568   5.242 -0.7938 -1.0022  0.0449
14817TIP3   OH265865   0.101   1.270  13.166  0.1844  0.1339 -0.1911
14817TIP3    H165866   0.086   1.356  13.206 -0.2867  0.2588 -0.6353
14817TIP3    H265867   0.158   1.289  13.091  0.0430  0.0597 -0.3155
14818TIP3   OH265868   0.767   2.635  12.000 -0.2580  0.7355 -0.3728
14818TIP3    H165869   0.786   2.718  12.043 -0.9019  0.3295  0.7318
14818TIP3    H265870   0.673   2.638  11.983 -0.1878  0.4587 -0.8273
14819TIP3   OH265871   3.173   6.415  13.261 -0.1310 -0.6935 -0.2888
14819TIP3    H165872   3.103   6.350  13.271  0.9433 -2.0679 -1.2748
14819TIP3    H265873   3.254   6.364  13.268  0.8156  0.9480  1.4572
14820TIP3   OH265874   0.325   1.813   3.826 -0.1520  1.0061  0.2914
14820TIP3    H165875   0.299   1.742   3.768  0.5253 -0.2463  1.4714
14820TIP3    H265876   0.277   1.797   3.907  1.0029  1.1184  1.0228
14821TIP3   OH265877   3.667   6.427  15.263 -0.2348 -0.1056 -0.3517
14821TIP3    H165878   3.641   6.336  15.279  1.2872 -0.7980 -1.5354
14821TIP3    H265879   3.706   6.456  15.346 -3.1681  0.4693  0.9662
14822TIP3   OH265880   4.621   6.309   1.329 -0.5497  0.1469 -0.8555
14822TIP3    H165881   4.577   6.226   1.313  0.5632 -1.3786  2.9077
14822TIP3    H265882   4.703   6.302   1.280  1.0098 -2.5564  1.8094
14823TIP3   OH265883   6.627   5.040   2.070 -0.1406 -0.2416 -0.5855
14823TIP3    H165884   6.612   5.048   1.976  0.6296 -0.7787 -0.7660
14823TIP3    H265885   6.720   5.064   2.081  0.7922 -3.4549 -0.4503
14824TIP3   OH265886   6.651   5.349   4.277  0.3904  0.3200  0.4206
14824TIP3    H165887   6.614   5.328   4.190  0.4918 -1.5749  0.7984
14824TIP3    H265888   6.602   5.426   4.305 -0.8859 -0.0881 -0.5776
14825TIP3   OH265889   0.574   0.678  17.133 -0.5955  0.7035  0.2848
14825TIP3    H165890   0.578   0.613  17.064  2.7075 -0.0755  1.0242
14825TIP3    H265891   0.503   0.648  17.191 -1.2473 -0.4037 -1.0339
14826TIP3   OH265892   1.014   0.278   1.057 -0.3505  0.1132 -0.5574
14826TIP3    H165893   0.962   0.203   1.030  0.8463 -1.1142  0.3486
14826TIP3    H265894   0.953   0.334   1.106 -1.1243 -0.5785 -0.7135
14827TIP3   OH265895   2.955   6.680   6.462 -0.2132  0.1923 -0.4077
14827TIP3    H165896   3.028   6.663   6.403  0.6166 -0.3195  0.7361
14827TIP3    H265897   2.891   6.727   6.408  0.6981  0.1225 -1.5835
14828TIP3   OH265898   3.067   5.446   4.315 -0.0351 -0.0651  0.6524
14828TIP3    H165899   3.025   5.404   4.390  0.8350 -0.4910  0.9130
14828TIP3    H265900   3.020   5.528   4.304  1.1129  0.9769  2.9540
14829TIP3   OH265901   6.044   1.042   1.866 -0.5114 -0.0906 -0.6798
14829TIP3    H165902   6.044   0.980   1.939 -1.8623  0.8928  0.2066
14829TIP3    H265903   6.007   0.993   1.793 -1.9322 -0.2334  0.1145
14830TIP3   OH265904   5.443   2.969  12.650 -0.5413  0.3106  0.1971
14830TIP3    H165905   5.375   2.993  12.587 -0.1942 -1.3862 -0.8659
14830TIP3    H265906   5.396   2.919  12.717 -0.6234  0.6355  0.3840
14831TIP3   OH265907   3.168   3.117   4.465  0.2163 -0.3280  0.3623
14831TIP3    H165908   3.246   3.170   4.481 -0.9866  1.1266  1.8405
14831TIP3    H265909   3.132   3.153   4.384 -0.4459  1.0265  1.2136
14832TIP3   OH265910   0.274   1.047  16.203  0.3406 -0.1891  0.5265
14832TIP3    H165911   0.191   1.010  16.232 -0.1204  0.6191  0.2866
14832TIP3    H265912   0.298   1.111  16.270 -0.1169  0.8123 -0.2260
14833TIP3   OH265913   1.849   2.005  13.661 -0.3483  0.0313 -0.0979
14833TIP3    H165914   1.789   1.958  13.603 -1.2979  0.5974  0.4160
14833TIP3    H265915   1.816   2.095  13.663  0.6960  0.4317 -0.0451
14834TIP3   OH265916   4.685   0.569  15.792  0.2125 -0.0049 -0.4784
14834TIP3    H165917   4.620   0.568  15.721 -0.2434 -0.0187 -0.0705
14834TIP3    H265918   4.753   0.508  15.764  0.3904  0.5201 -1.2249
14835TIP3   OH265919   6.140   6.040   0.021  0.0318  0.0318 -0.4568
14835TIP3    H165920   6.223   6.040   0.069 -0.2122  1.9450  0.0468
14835TIP3    H265921   6.083   6.098   0.071 -2.2462 -2.5217  0.1672
14836TIP3   OH265922   5.979   4.977  11.533 -0.4555  0.2272  0.0138
14836TIP3    H165923   5.904   4.927  11.565  0.9372 -1.2369  1.1512
14836TIP3    H265924   5.987   5.050  11.594 -1.8607  1.3098 -1.0364
14837TIP3   OH265925   4.223   5.507  13.496  0.4510  0.6367 -0.0337
14837TIP3    H165926   4.318   5.501  13.489  0.5632  2.9615 -1.7752
14837TIP3    H265927   4.191   5.481  13.409 -0.5224  0.0197  0.4885
14838TIP3   OH265928   1.622   5.469  11.317 -0.2008 -0.3006  0.1983
14838TIP3    H165929   1.562   5.533  11.355 -2.3554 -1.1228 -1.5965
14838TIP3    H265930   1.706   5.486  11.360 -1.2896  2.0291  1.5927
14839TIP3   OH265931   2.099   4.427  12.987  0.1700  0.1830  0.5699
14839TIP3    H165932   2.178   4.385  12.953  1.6688  2.5933  0.7462
14839TIP3    H265933   2.078   4.494  12.922 -1.7886 -0.4334  0.5223
14840TIP3   OH265934   1.260   3.191  15.665  0.2415 -0.4546 -0.3146
14840TIP3    H165935   1.318   3.240  15.724 -0.3229  0.1674 -0.2760
14840TIP3    H265936   1.301   3.104  15.659  1.1046 -0.0656 -0.1831
14841TIP3   OH265937   0.449   0.583   0.767  0.1315 -0.1263 -0.0226
14841TIP3    H165938   0.527   0.599   0.714  0.2294 -0.9941 -0.1641
14841TIP3    H265939   0.410   0.505   0.728 -1.1300  0.6211 -0.3145
14842TIP3   OH265940   5.930   4.935   0.423 -0.4053  0.0713 -0.3739
14842TIP3    H165941   5.928   4.839   0.422  1.8712 -0.0082 -0.9441
14842TIP3    H265942   5.991   4.959   0.354 -1.6868  2.0026 -0.9098
14843TIP3   OH265943   1.940   6.330  15.237  0.3506  0.6123  0.3715
14843TIP3    H165944   1.997   6.398  15.272  0.4954  0.8876 -0.3818
14843TIP3    H265945   1.992   6.250  15.241  1.2324  1.0542 -1.3492
14844TIP3   OH265946   3.165   4.145  13.781  0.2918  0.0699 -0.0638
14844TIP3    H165947   3.244   4.189  13.812  1.5561 -0.7163 -2.0005
14844TIP3    H265948   3.146   4.185  13.697 -2.5848  1.5866  1.1615
14845TIP3   OH265949   2.355   2.346  11.595  0.4468 -0.0766 -0.4405
14845TIP3    H165950   2.271   2.339  11.551 -0.0985  1.4560  0.2916
14845TIP3    H265951   2.350   2.283  11.667 -0.1042  0.0545 -0.3629
14846TIP3   OH265952   0.548   2.870   5.392  0.5261  0.3277  0.4896
14846TIP3    H165953   0.623   2.897   5.338 -0.5218  0.8647 -0.7501
14846TIP3    H265954   0.577   2.789   5.434  1.1797 -0.4591 -1.3820
14847TIP3   OH265955   2.264   3.722  14.657 -1.0389  0.0093 -0.1236
14847TIP3    H165956   2.206   3.767  14.596  0.9836  1.1394 -1.3571
14847TIP3    H265957   2.236   3.750  14.744 -4.0825 -1.7551 -0.4121
14848TIP3   OH265958   1.047   0.700   2.697  0.0172  0.7088  0.2937
14848TIP3    H165959   0.968   0.740   2.734  0.0088  1.3698 -0.4075
14848TIP3    H265960   1.093   0.773   2.655 -0.7248 -0.2358 -2.3330
14849TIP3   OH265961   2.294   2.447   4.933 -0.4149 -0.1444  0.0348
14849TIP3    H165962   2.278   2.463   5.026 -1.9405 -2.7264  0.2916
14849TIP3    H265963   2.215   2.477   4.889 -0.5772 -0.8955 -0.1906
14850TIP3   OH265964   0.289   4.874   4.103  0.2512 -0.0086  0.5050
14850TIP3    H165965   0.195   4.880   4.092 -0.3497 -1.1675  3.7617
14850TIP3    H265966   0.308   4.931   4.178  2.1479  0.1912 -0.0711
14851TIP3   OH265967   2.360   3.848  11.916 -0.1070 -0.2604  0.1234
14851TIP3    H165968   2.398   3.781  11.860  1.9142  1.8920 -1.2865
14851TIP3    H265969   2.269   3.820  11.928  0.4563 -2.8485 -0.9153
14852TIP3   OH265970   0.070   4.398  12.223  0.5225  0.1052  0.0064
14852TIP3    H165971   0.156   4.439  12.224  0.4638  0.2439 -0.2990
14852TIP3    H265972   0.012   4.460  12.267  0.0231  1.3243 -2.2206
14853TIP3   OH265973   5.143   1.471  15.955  0.0895  0.6137  0.1715
14853TIP3    H165974   5.074   1.461  16.021 -0.8762  1.7227 -0.6207
14853TIP3    H265975   5.224   1.456  16.002 -0.4618  2.7568  1.9914
14854TIP3   OH265976   5.586   2.569   3.920 -0.8614  0.3215 -0.1135
14854TIP3    H165977   5.655   2.625   3.884 -1.0554 -1.0417 -2.8463
14854TIP3    H265978   5.632   2.506   3.976 -0.1174  0.5477 -0.4642
14855TIP3   OH265979   4.650   2.272  10.881 -0.0657  0.0691  0.0848
14855TIP3    H165980   4.632   2.320  10.800 -0.6500 -0.7341 -0.2812
14855TIP3    H265981   4.631   2.180  10.859 -0.5205 -0.1234  1.2201
14856TIP3   OH265982   5.309   4.795   1.923  0.4539  0.7099  0.3782
14856TIP3    H165983   5.320   4.865   1.988  0.0678  0.9766  0.1625
14856TIP3    H265984   5.214   4.778   1.923  0.5398  0.2136  0.3971
14857TIP3   OH265985   0.863   6.097  13.770 -0.1939 -0.3903 -1.0359
14857TIP3    H165986   0.803   6.023  13.776  0.3174 -0.6865  1.3177
14857TIP3    H265987   0.949   6.057  13.756  0.3299 -0.4356  1.8216
14858TIP3   OH265988   5.375   1.532   3.630  0.2666  0.0328  0.0726
14858TIP3    H165989   5.445   1.597   3.639 -1.0328  1.6725 -1.0774
14858TIP3    H265990   5.306   1.562   3.689 -0.0114 -0.8035  0.1861
14859TIP3   OH265991   0.051   0.005  14.801 -0.2901 -0.3620 -0.3612
14859TIP3    H165992   0.040   0.100  14.797 -0.7344 -0.2693  1.8010
14859TIP3    H265993   0.007  -0.028  14.723  2.5325  1.3300 -2.8687
14860TIP3   OH265994   3.617   3.482  12.643  0.2735  0.0633 -0.2895
14860TIP3    H165995   3.564   3.405  12.624  0.0316 -0.3260  1.7672
14860TIP3    H265996   3.662   3.501  12.560 -0.7946 -1.3690 -1.2470
14861TIP3   OH265997   3.360   1.127   3.356  0.3959  0.1785  0.1014
14861TIP3    H165998   3.394   1.155   3.271 -0.4083 -0.5078 -0.4497
14861TIP3    H265999   3.439   1.119   3.411  0.7838  2.0830 -0.1212
14862TIP3   OH266000   4.548   2.226  11.660 -0.6792 -0.5155 -0.1100
14862TIP3    H166001   4.511   2.138  11.673 -0.6432 -0.3710  1.0770
14862TIP3    H266002   4.473   2.280  11.636 -0.7965 -0.7531 -0.2884
14863TIP3   OH266003   6.159   0.797   0.093 -0.2988 -0.1326  0.7598
14863TIP3    H166004   6.076   0.842   0.110  0.5195  1.0511  1.7859
14863TIP3    H266005   6.223   0.868   0.082  0.4126 -0.9921 -1.0592
14864TIP3   OH266006   1.933   1.762   4.744  0.2051 -0.3565 -0.1802
14864TIP3    H166007   1.987   1.770   4.666  0.1948  0.9775 -0.0799
14864TIP3    H266008   1.843   1.758   4.712  0.2313 -0.2916 -0.2608
14865TIP3   OH266009   0.667   4.236   4.234  0.0170 -0.2652 -0.0561
14865TIP3    H166010   0.728   4.168   4.262 -0.7080 -1.2367 -0.7717
14865TIP3    H266011   0.714   4.318   4.249  1.4979 -0.9813 -0.6031
14866TIP3   OH266012   4.709   0.673  10.410  0.6027 -0.0812 -0.2428
14866TIP3    H166013   4.672   0.634  10.331 -0.8836 -1.5081  1.0847
14866TIP3    H266014   4.801   0.687  10.389  0.2366 -0.3383 -2.2369
14867TIP3   OH266015   0.150   0.517   1.133 -0.2140 -0.1608 -0.2098
14867TIP3    H166016   0.194   0.601   1.146 -0.7007  0.3781 -1.8014
14867TIP3    H266017   0.093   0.507   1.209 -0.7475  1.3398 -0.3938
14868TIP3   OH266018   2.865   5.730  11.373  0.2690 -0.4445 -0.2085
14868TIP3    H166019   2.825   5.803  11.420 -0.1122 -1.5357  1.2460
14868TIP3    H266020   2.835   5.739  11.283 -1.8833 -0.2653  0.4858
14869TIP3   OH266021   6.308   3.903   4.410  0.4354 -0.1649 -0.0823
14869TIP3    H166022   6.253   3.971   4.449  0.3796  0.0118 -0.4693
14869TIP3    H266023   6.284   3.823   4.458 -2.6563 -0.8427 -2.4259
14870TIP3   OH266024   4.301   6.548  17.145  0.9708  0.0542  0.4611
14870TIP3    H166025   4.280   6.489  17.072  0.4769  0.0599  0.5909
14870TIP3    H266026   4.353   6.617  17.106 -0.5311  0.8617 -0.2149
14871TIP3   OH266027   6.598   0.856   0.097  0.0550 -0.4832 -0.4696
14871TIP3    H166028   6.567   0.911   0.024 -0.1796 -0.5105 -0.3921
14871TIP3    H266029   6.536   0.783   0.099 -0.3396 -0.1389  0.1876
14872TIP3   OH266030   1.149   3.667   5.189  0.2649 -0.4909 -0.1694
14872TIP3    H166031   1.113   3.696   5.272 -1.7695  0.0575 -1.1786
14872TIP3    H266032   1.180   3.578   5.205 -0.3516 -0.4877  1.0871
14873TIP3   OH266033   1.568   0.279   2.666  0.3591  0.3945  0.1649
14873TIP3    H166034   1.539   0.366   2.694  1.1286  0.6021  0.3246
14873TIP3    H266035   1.626   0.249   2.736  0.1319 -0.2331  0.0913
14874TIP3   OH266036   2.208   3.804  14.923 -0.0180 -0.2143  0.2379
14874TIP3    H166037   2.238   3.872  14.984 -0.5138 -0.3446  0.6292
14874TIP3    H266038   2.157   3.744  14.977  1.2176 -1.4430  0.0928
14875TIP3   OH266039   4.811   4.679  11.797 -0.2859 -0.6611  0.3759
14875TIP3    H166040   4.818   4.761  11.748 -0.9904  1.1762  3.0948
14875TIP3    H266041   4.731   4.638  11.764 -0.3691  0.1601 -0.4724
14876TIP3   OH266042   2.924   2.941   1.297  0.1226 -0.3915 -0.0787
14876TIP3    H166043   2.864   2.924   1.225 -0.8780  0.3824  0.5507
14876TIP3    H266044   2.950   3.032   1.285 -1.1555  0.1982  1.2959
14877TIP3   OH266045   1.215   5.269  14.421 -0.3086  0.6071  0.0299
14877TIP3    H166046   1.193   5.315  14.340 -1.9699  0.5496  0.4184
14877TIP3    H266047   1.251   5.338  14.478  0.8225  0.6563 -0.7082
14878TIP3   OH266048   0.760   5.949   3.743  0.2425 -0.1725  0.2179
14878TIP3    H166049   0.734   6.028   3.791 -1.7297 -0.3786 -0.4085
14878TIP3    H266050   0.735   5.877   3.799 -1.0261 -0.3854 -0.5686
14879TIP3   OH266051   3.484   0.042   1.039  0.2331 -0.1593  0.9153
14879TIP3    H166052   3.572   0.005   1.051  0.4060 -0.1348 -0.1577
14879TIP3    H266053   3.498   0.118   0.982 -0.6074 -0.7967 -0.1850
14880TIP3   OH266054   0.307   0.347  17.241  0.4333 -0.0846 -0.2856
14880TIP3    H166055   0.365   0.424  17.245  1.0373 -0.5050 -0.7534
14880TIP3    H266056   0.363   0.277  17.208 -0.6399 -0.1960 -1.9833
14881TIP3   OH266057   4.258   0.874   5.903 -0.1286 -0.5864  0.3390
14881TIP3    H166058   4.303   0.945   5.857  0.5831 -0.9805  0.4076
14881TIP3    H266059   4.326   0.808   5.918 -0.2070 -0.2638  2.3984
14882TIP3   OH266060   5.741   1.813  13.027  0.4960  0.5142 -0.1086
14882TIP3    H166061   5.682   1.877  13.066 -1.8311 -1.3466 -0.3770
14882TIP3    H266062   5.765   1.754  13.098 -0.7581 -0.7094 -0.6597
14883TIP3   OH266063   5.754   5.669  16.725 -0.1335  0.4453  0.7291
14883TIP3    H166064   5.801   5.752  16.724  0.6048  0.0438 -0.0563
14883TIP3    H266065   5.742   5.649  16.818 -1.4955  2.0432  0.9472
14884TIP3   OH266066   3.536   1.741  13.997 -0.8622  0.5354 -0.7459
14884TIP3    H166067   3.447   1.715  13.973 -1.2697  0.6374  0.5537
14884TIP3    H266068   3.535   1.837  13.992 -1.1176  0.5941  0.1312
14885TIP3   OH266069   4.037   1.265   0.674  0.4439  0.5552  0.4089
14885TIP3    H166070   4.014   1.334   0.737 -0.7330  0.1005  0.5076
14885TIP3    H266071   3.955   1.217   0.661  1.1138 -0.4757 -0.0923
14886TIP3   OH266072   1.646   5.335   1.416  0.4420 -0.0006 -0.6025
14886TIP3    H166073   1.687   5.317   1.501  2.8181  1.0609 -1.4386
14886TIP3    H266074   1.678   5.264   1.360 -2.0782 -1.3962 -0.4188
14887TIP3   OH266075   4.132   4.669   3.512  0.5967 -0.2279  0.0060
14887TIP3    H166076   4.160   4.617   3.587  0.7395 -2.9092 -1.7432
14887TIP3    H266077   4.041   4.641   3.496  0.3089  0.8651 -0.3621
14888TIP3   OH266078   6.379   3.047   2.624  0.1888 -0.4754 -0.0980
14888TIP3    H166079   6.354   3.066   2.715 -1.5472 -1.2087 -0.3793
14888TIP3    H266080   6.351   3.124   2.575  1.3730  0.0377 -0.0008
14889TIP3   OH266081   1.562   2.860   0.508 -0.0630  0.0042 -0.1688
14889TIP3    H166082   1.480   2.846   0.554  0.0674 -0.7390 -0.1566
14889TIP3    H266083   1.551   2.816   0.424 -0.3276  1.4139 -0.9085
14890TIP3   OH266084   2.272   4.227  15.797 -0.6773 -0.1654 -0.1754
14890TIP3    H166085   2.345   4.189  15.846  1.0160 -2.6757 -4.1524
14890TIP3    H266086   2.308   4.306  15.756 -0.3456 -0.9424 -1.4516
14891TIP3   OH266087   5.166   1.566  15.302 -0.6596  0.1596 -0.0071
14891TIP3    H166088   5.192   1.485  15.346 -3.0572 -0.7431 -0.0688
14891TIP3    H266089   5.149   1.539  15.211 -3.7461  0.1173  0.4863
14892TIP3   OH266090   4.950   1.111   2.064  0.3679 -0.4042  0.3667
14892TIP3    H166091   5.004   1.185   2.037  0.7185 -0.9300 -0.4131
14892TIP3    H266092   4.899   1.144   2.138  1.4131  0.2381  0.8265
14893TIP3   OH266093   0.121   0.428  12.468  0.5612 -0.2900  0.0167
14893TIP3    H166094   0.121   0.334  12.452  1.3205 -0.6199  1.6943
14893TIP3    H266095   0.214   0.451  12.474  0.3888  0.0636  2.1043
14894TIP3   OH266096   0.579   0.588   5.939 -0.0155  0.5812 -0.3930
14894TIP3    H166097   0.557   0.642   6.014 -0.0638  0.6718 -0.4719
14894TIP3    H266098   0.664   0.622   5.909  0.8209 -0.5203  0.6221
14895TIP3   OH266099   2.619   6.300   2.521 -0.4135 -0.3042 -0.1509
14895TIP3    H166100   2.618   6.317   2.427 -1.1930 -0.2942 -0.1483
14895TIP3    H266101   2.537   6.254   2.538 -0.6039  0.3053  0.6334
14896TIP3   OH266102   3.387   2.670   5.223  0.4802  0.0767 -0.4181
14896TIP3    H166103   3.482   2.656   5.226  0.7182  1.5660 -0.3617
14896TIP3    H266104   3.374   2.732   5.152 -0.4375  0.0798 -0.2612
14897TIP3   OH266105   0.222   0.311   2.381  0.5229  0.5832  0.1274
14897TIP3    H166106   0.237   0.229   2.427 -0.8144  0.4424  0.3442
14897TIP3    H266107   0.296   0.366   2.406  0.7854 -0.1301  0.9655
14898TIP3   OH266108   4.881   1.072  15.561  0.0159 -0.4831 -0.3387
14898TIP3    H166109   4.837   1.004  15.612  0.1574  1.6250  2.8806
14898TIP3    H266110   4.974   1.057  15.576  0.1725 -1.1307 -1.8460
14899TIP3   OH266111   5.067   6.532  14.486  0.0380  0.0534 -0.4117
14899TIP3    H166112   5.040   6.496  14.571 -0.2695  1.1092 -0.0499
14899TIP3    H266113   5.059   6.458  14.425 -0.0900 -0.6193  0.4031
14900TIP3   OH266114   0.485   2.316   5.626  0.0663 -0.0342  0.3350
14900TIP3    H166115   0.496   2.233   5.578  1.1327  0.7827 -0.9099
14900TIP3    H266116   0.574   2.351   5.634 -0.4978  1.6667 -0.4072
14901TIP3   OH266117   5.839   4.117   4.506  0.0016 -0.0884  0.2386
14901TIP3    H166118   5.826   4.205   4.541  0.7597  0.0274  0.2360
14901TIP3    H266119   5.862   4.131   4.414 -0.5903 -0.3306  0.0449
14902TIP3   OH266120   1.468   0.756  13.454 -0.3481  0.5887 -0.1540
14902TIP3    H166121   1.554   0.739  13.490 -0.5732  0.0751  0.1483
14902TIP3    H266122   1.455   0.850  13.464 -0.4289  0.4565  1.1606
14903TIP3   OH266123   4.883   2.088   3.142 -0.2429  0.5396  0.0038
14903TIP3    H166124   4.932   2.007   3.131 -1.0258  0.0439  0.1099
14903TIP3    H266125   4.923   2.149   3.079  0.5197  0.1651  0.1093
14904TIP3   OH266126   5.780   4.252   1.466 -0.0554 -0.2558  0.3275
14904TIP3    H166127   5.705   4.196   1.486  1.5566 -2.6579 -0.0483
14904TIP3    H266128   5.804   4.290   1.550  0.7036 -2.6419  1.2659
14905TIP3   OH266129   1.217   2.361   2.832  0.2848 -0.1114  0.5395
14905TIP3    H166130   1.255   2.429   2.776  0.5483 -0.1799  0.6378
14905TIP3    H266131   1.249   2.279   2.796 -0.4953 -0.2230  0.0641
14906TIP3   OH266132   6.237   4.930   2.880  0.3996 -0.2169 -0.7790
14906TIP3    H166133   6.318   4.977   2.898  0.2786  0.3780 -1.7013
14906TIP3    H266134   6.177   4.997   2.848 -0.7708 -0.4880  0.7428
14907TIP3   OH266135   3.840   0.176   3.158  0.0964 -0.0737 -0.1403
14907TIP3    H166136   3.916   0.129   3.124 -0.0247  0.5741 -1.3345
14907TIP3    H266137   3.768   0.150   3.100  0.4327  3.1535 -2.2193
14908TIP3   OH266138   3.407   5.379  11.669  0.6956  0.1785  0.8309
14908TIP3    H166139   3.334   5.341  11.620  0.3636 -0.5245  1.8370
14908TIP3    H266140   3.419   5.466  11.630 -1.2178  0.6534  1.1669
14909TIP3   OH266141   0.025   5.618  11.062 -0.2103  0.4759 -0.1629
14909TIP3    H166142   0.090   5.579  11.121 -0.5035  0.6358  0.2687
14909TIP3    H266143  -0.039   5.658  11.120 -1.4686 -0.8841 -0.5598
14910TIP3   OH266144   2.736   5.685   2.737  0.0980  0.0450 -0.9565
14910TIP3    H166145   2.694   5.698   2.822  0.7961 -1.2957 -0.3704
14910TIP3    H266146   2.805   5.751   2.735  0.9497 -0.7684  0.1384
14911TIP3   OH266147   1.675   5.135   0.250 -0.1767  0.3146  0.2457
14911TIP3    H166148   1.676   5.164   0.159 -1.9853 -3.3624 -1.1632
14911TIP3    H266149   1.756   5.085   0.260 -0.9461 -1.0485 -0.0941
14912TIP3   OH266150   0.102   2.305   4.567  0.4516  0.4395  0.2752
14912TIP3    H166151   0.183   2.285   4.614  0.8997 -3.0520 -1.6587
14912TIP3    H266152   0.035   2.251   4.609 -0.1877  0.9623 -0.0523
14913TIP3   OH266153   5.195   1.049   5.363 -0.3915 -0.5412 -0.9610
14913TIP3    H166154   5.213   1.128   5.311 -0.2367  0.0521 -0.0449
14913TIP3    H266155   5.180   1.083   5.451 -0.5312 -1.5331 -0.5995
14914TIP3   OH266156   1.445   4.828  15.416 -0.1384  0.0250 -0.1890
14914TIP3    H166157   1.508   4.795  15.352  0.7292  0.1534  0.5657
14914TIP3    H266158   1.370   4.771  15.409 -0.0887  0.0884 -1.3779
14915TIP3   OH266159   5.389   5.180  10.554  0.3979  0.7526 -0.1061
14915TIP3    H166160   5.312   5.237  10.550  0.7690  1.2830  0.0631
14915TIP3    H266161   5.362   5.106  10.608  0.4988  1.7610  1.3982
14916TIP3   OH266162   1.244   4.711   1.412  0.2194  0.0368 -0.1316
14916TIP3    H166163   1.222   4.800   1.437 -3.3393 -0.2555 -1.5849
14916TIP3    H266164   1.234   4.709   1.317  2.3042 -1.4675 -0.3932
14917TIP3   OH266165   1.779   1.086   5.351  0.2266  0.0093 -0.2526
14917TIP3    H166166   1.811   1.175   5.365  2.0132 -0.6335 -0.0600
14917TIP3    H266167   1.801   1.039   5.432 -2.4425 -0.1835  0.4589
14918TIP3   OH266168   6.649   4.209  11.487  0.3714  0.4859 -0.1007
14918TIP3    H166169   6.710   4.246  11.423 -0.2604 -1.0569 -1.6923
14918TIP3    H266170   6.562   4.237  11.456  0.0712 -0.1514  0.1500
14919TIP3   OH266171   4.447   1.542  11.826  0.3145  0.2209  0.2115
14919TIP3    H166172   4.538   1.518  11.807  0.7370  1.7349  0.1798
14919TIP3    H266173   4.454   1.623  11.876 -1.0290  0.4297  0.0891
14920TIP3   OH266174   0.352   0.617  13.923  0.6121  0.5125 -0.2231
14920TIP3    H166175   0.431   0.669  13.915  0.8754 -0.0003 -1.0670
14920TIP3    H266176   0.345   0.598  14.017  0.5492  1.9751  0.0902
14921TIP3   OH266177   0.807   0.809   1.393 -0.6959  0.1181 -0.3845
14921TIP3    H166178   0.851   0.890   1.365 -1.3342  0.4545 -0.4370
14921TIP3    H266179   0.791   0.822   1.487  0.7423 -0.6812 -0.0037
14922TIP3   OH266180   3.532   0.960  16.295 -0.5906  0.7104 -0.0060
14922TIP3    H166181   3.531   1.055  16.283 -1.1421  0.5347 -1.5288
14922TIP3    H266182   3.609   0.944  16.350 -0.6484  2.0525  0.5022
14923TIP3   OH266183   0.942   5.318   4.765  0.1356 -0.1539 -0.0594
14923TIP3    H166184   0.954   5.275   4.850  0.5298  0.4898  0.2191
14923TIP3    H266185   1.015   5.288   4.712  0.0608 -0.3156 -0.0713
14924TIP3   OH266186   0.293   0.270  15.475 -0.3023 -0.2373 -0.0847
14924TIP3    H166187   0.266   0.361  15.461  0.7532 -0.0413 -0.9605
14924TIP3    H266188   0.304   0.234  15.387  3.8799  0.2036  0.0768
14925TIP3   OH266189   1.696   3.917  16.161 -0.2819  0.0805 -0.0264
14925TIP3    H166190   1.637   3.859  16.111 -0.5080  0.0102  0.3222
14925TIP3    H266191   1.681   3.893  16.252  1.0196 -0.6356  0.0226
14926TIP3   OH266192   2.713   5.465   5.752  0.3811  0.6689  0.1443
14926TIP3    H166193   2.762   5.397   5.798  0.5011  0.4737 -0.2667
14926TIP3    H266194   2.745   5.547   5.790  0.6138  0.5197  0.2725
14927TIP3   OH266195   6.152   6.223  15.405 -0.3139  0.1833  0.4798
14927TIP3    H166196   6.120   6.294  15.460  0.4191  0.6640  0.3107
14927TIP3    H266197   6.247   6.221  15.422 -0.2646 -0.4800  0.1662
14928TIP3   OH266198   4.571   5.162   6.465 -0.4663 -0.2469 -0.0049
14928TIP3    H166199   4.532   5.245   6.438 -0.9898 -0.3739  0.3391
14928TIP3    H266200   4.661   5.184   6.487 -0.2031 -0.0301 -1.2273
14929TIP3   OH266201   0.551   1.911   0.719 -0.2300  0.4303  0.6473
14929TIP3    H166202   0.587   1.969   0.787 -1.3493  0.9435  0.8203
14929TIP3    H266203   0.593   1.940   0.638 -0.6255  1.3621  0.7626
14930TIP3   OH266204   3.630   2.121   2.437 -0.4458 -0.7013 -0.1312
14930TIP3    H166205   3.613   2.214   2.421  0.4971 -0.4736  0.1391
14930TIP3    H266206   3.543   2.083   2.447 -0.9370 -0.1636 -1.9445
14931TIP3   OH266207   1.106   4.697  16.720  0.5959  0.0514 -0.2459
14931TIP3    H166208   1.013   4.707  16.743  0.4372 -0.2808 -0.7171
14931TIP3    H266209   1.153   4.746  16.787  0.1682 -1.1625  0.9895
14932TIP3   OH266210   2.657   2.213  15.555  0.0866 -0.2691  0.0942
14932TIP3    H166211   2.691   2.231  15.468  3.0499 -0.5257  1.0592
14932TIP3    H266212   2.612   2.293  15.581  0.7805  0.4988 -0.9844
14933TIP3   OH266213   3.443   1.774   2.347  0.7442  0.2728 -0.1894
14933TIP3    H166214   3.405   1.853   2.386  1.6385  0.9288 -0.6157
14933TIP3    H266215   3.467   1.800   2.258  0.9540 -0.5170 -0.3734
14934TIP3   OH266216   5.382   3.206  12.072  0.4530 -0.6551  0.2509
14934TIP3    H166217   5.377   3.206  11.977 -1.0472 -2.1757  0.2852
14934TIP3    H266218   5.398   3.115  12.096  1.8843 -0.1391  1.4464
14935TIP3   OH266219   1.503   2.049  16.461 -0.0723  0.0758 -0.4303
14935TIP3    H166220   1.566   2.097  16.408 -1.7437  0.6062 -2.0537
14935TIP3    H266221   1.423   2.102  16.457 -1.4013 -1.8399 -0.6434
14936TIP3   OH266222   4.706   6.612   5.318 -0.2400 -0.2297  0.1410
14936TIP3    H166223   4.767   6.669   5.365 -0.6628 -0.7840  1.3984
14936TIP3    H266224   4.676   6.665   5.244  1.1475  0.3313 -0.0441
14937TIP3   OH266225   1.298   5.052  11.204  0.5888  0.0707  0.1645
14937TIP3    H166226   1.358   4.994  11.156  2.0422  0.7870  1.0473
14937TIP3    H266227   1.213   5.038  11.162  1.6633  0.2726 -2.2548
14938TIP3   OH266228   3.833   2.318  16.940  0.1307 -0.7881 -0.4244
14938TIP3    H166229   3.859   2.385  17.004 -1.2579  0.4516 -1.1150
14938TIP3    H266230   3.916   2.279  16.912  0.9189  0.1408  0.5228
14939TIP3   OH266231   2.054   4.098   1.107  0.3505  0.7641 -0.0654
14939TIP3    H166232   2.046   4.025   1.168  0.8285  0.7433 -0.0230
14939TIP3    H266233   2.134   4.080   1.058 -0.7194  0.1207 -1.6132
14940TIP3   OH266234   3.780   3.541  12.428 -0.5520 -0.1932  0.3888
14940TIP3    H166235   3.848   3.477  12.445 -0.7645 -0.6630 -0.5283
14940TIP3    H266236   3.824   3.626  12.437  0.3435 -0.5000 -0.9794
14941TIP3   OH266237   1.848   0.477  15.325 -0.5096  0.3566  0.2942
14941TIP3    H166238   1.857   0.439  15.238 -1.5348 -1.2938  0.8654
14941TIP3    H266239   1.907   0.553  15.324 -0.6380  0.4912 -1.8716
14942TIP3   OH266240   2.952   1.935   2.835  0.2040  0.2842 -0.1704
14942TIP3    H166241   2.890   1.973   2.897 -0.2802 -1.0464  0.1973
14942TIP3    H266242   2.976   2.008   2.777  0.6357  1.5557  1.5318
14943TIP3   OH266243   4.409   0.437   0.254 -0.6588 -0.2711 -0.8135
14943TIP3    H166244   4.418   0.527   0.285 -0.7209 -0.2195 -0.9419
14943TIP3    H266245   4.338   0.442   0.189  0.4081 -0.1014 -2.0107
14944TIP3   OH266246   0.503   2.310  12.642  0.3370 -0.6669  0.2502
14944TIP3    H166247   0.540   2.393  12.611 -0.2663 -0.6904 -0.5886
14944TIP3    H266248   0.571   2.271  12.695  2.3889 -1.6481 -2.8196
14945TIP3   OH266249   1.662   1.121   4.554 -0.0231  0.3630  0.1075
14945TIP3    H166250   1.618   1.181   4.614 -0.6677 -0.5717  0.5957
14945TIP3    H266251   1.591   1.075   4.509  0.4568  0.0138 -0.3063
14946TIP3   OH266252   5.267   0.884  16.826 -0.4454  0.5547  0.6144
14946TIP3    H166253   5.250   0.866  16.733  2.9605  1.7460 -0.4030
14946TIP3    H266254   5.303   0.802  16.860 -2.3758 -0.1112  1.1411
14947TIP3   OH266255   4.088   4.566   6.119  0.0102 -0.3873  0.5164
14947TIP3    H166256   4.152   4.596   6.183  0.0983 -0.6629  0.5564
14947TIP3    H266257   4.007   4.556   6.169 -0.4000  1.1923  0.2235
14948TIP3   OH266258   6.228   2.497  16.952  0.0685  0.0819  0.1070
14948TIP3    H166259   6.272   2.564  17.003 -0.1094  0.2852 -0.0062
14948TIP3    H266260   6.150   2.540  16.917  0.4084  0.0770 -0.6860
14949TIP3   OH266261   2.843   6.477  11.254 -0.0642  0.5569  0.2300
14949TIP3    H166262   2.749   6.457  11.258 -0.1006  0.7061  0.1002
14949TIP3    H266263   2.849   6.568  11.283  0.2207  0.0258  2.0051
14950TIP3   OH266264   5.466   5.943   3.894  0.5317 -0.1810 -0.2111
14950TIP3    H166265   5.555   5.977   3.883  0.2106  0.5685 -0.5205
14950TIP3    H266266   5.431   5.938   3.805  0.7873 -1.9644 -0.2633
14951TIP3   OH266267   1.017   3.102  11.056  0.3933 -0.0822 -0.2980
14951TIP3    H166268   0.953   3.118  11.125 -0.3900  0.3909 -1.1172
14951TIP3    H266269   1.029   3.007  11.056  0.1407 -0.1176  0.2569
14952TIP3   OH266270   4.983   6.125   3.876 -0.1092 -0.4612  0.1524
14952TIP3    H166271   5.047   6.058   3.901 -0.4970 -0.1641  2.1015
14952TIP3    H266272   4.905   6.104   3.928 -0.3433  1.2882  0.5658
14953TIP3   OH266273   6.328   0.605  16.331  0.0155  0.2559 -0.3424
14953TIP3    H166274   6.272   0.662  16.383  1.3441  0.2572  1.1517
14953TIP3    H266275   6.357   0.660  16.258  1.2279  1.5540  1.0342
14954TIP3   OH266276   1.315   4.113   0.498  0.4839  0.2163 -0.5925
14954TIP3    H166277   1.294   4.055   0.425 -2.6651 -0.4109  0.6801
14954TIP3    H266278   1.302   4.059   0.576  1.5615  1.5142  0.5417
14955TIP3   OH266279   0.396   5.375   0.500  0.0422 -0.7056 -0.2146
14955TIP3    H166280   0.314   5.419   0.478 -0.1952 -1.6985 -1.4012
14955TIP3    H266281   0.393   5.366   0.596 -0.8705 -0.0465 -0.1688
14956TIP3   OH266282   4.666   0.231  13.692  0.0251 -0.3522 -0.3388
14956TIP3    H166283   4.706   0.309  13.655 -3.1626  1.7051  0.2168
14956TIP3    H266284   4.704   0.223  13.779  2.2505 -1.0115 -1.3085
14957TIP3   OH266285   2.893   3.074   0.679 -0.3740  0.6409 -0.1723
14957TIP3    H166286   2.900   3.031   0.594 -1.9837  0.2143 -0.1213
14957TIP3    H266287   2.984   3.084   0.709  0.1441 -0.5086 -1.2842
14958TIP3   OH266288   6.206   3.981  14.217  0.2875  0.0569  0.2702
14958TIP3    H166289   6.245   3.895  14.202  1.3262  0.5446  0.0810
14958TIP3    H266290   6.129   3.963  14.271  0.5795 -0.9740  0.3703
14959TIP3   OH266291   6.300   1.732  12.989  0.0729  0.6498  0.6483
14959TIP3    H166292   6.327   1.713  13.079  1.0636 -0.3879  0.1698
14959TIP3    H266293   6.227   1.672  12.973  0.2045  0.4919  0.6249
14960TIP3   OH266294   3.835   5.106   3.792 -0.1770 -0.3412 -0.1658
14960TIP3    H166295   3.821   5.065   3.707  0.5540  2.5492 -1.8000
14960TIP3    H266296   3.786   5.188   3.788 -0.0718 -0.0964  2.2051
14961TIP3   OH266297   6.527   1.486  15.700  0.0743 -0.0412 -0.3366
14961TIP3    H166298   6.538   1.392  15.683  1.4327  0.1596 -0.6033
14961TIP3    H266299   6.516   1.525  15.613 -1.1122 -0.0105 -0.1908
14962TIP3   OH266300   3.886   5.855   5.464 -0.2541 -0.4514  0.0105
14962TIP3    H166301   3.853   5.836   5.376  2.2221 -3.1338 -0.4774
14962TIP3    H266302   3.973   5.892   5.450 -0.5875  0.9322  1.3515
14963TIP3   OH266303   3.965   2.847  15.261 -0.2048 -0.1632  0.7946
14963TIP3    H166304   4.017   2.769  15.244 -1.0997 -0.5102 -0.4071
14963TIP3    H266305   3.982   2.866  15.354  0.2391 -1.6093  1.0434
14964TIP3   OH266306   3.088   1.525  14.106 -0.2143 -0.3300  0.3937
14964TIP3    H166307   3.168   1.571  14.130 -1.2447  1.6361  0.2483
14964TIP3    H266308   3.040   1.586  14.050 -1.0387 -2.1299 -1.0114
14965TIP3   OH266309   0.072   4.692  16.934  0.5037  0.2752  0.3365
14965TIP3    H166310   0.084   4.599  16.915 -1.8893  0.2043 -1.3720
14965TIP3    H266311   0.160   4.729  16.933  1.3507 -1.6089 -1.0814
14966TIP3   OH266312   1.522   4.884  11.060  0.0331 -0.6090  0.1055
14966TIP3    H166313   1.572   4.962  11.081 -1.9143  0.3931  1.3084
14966TIP3    H266314   1.486   4.901  10.973 -2.4220  1.0391  1.3430
14967TIP3   OH266315   6.043   2.364   2.587  0.7424 -0.4315 -0.3129
14967TIP3    H166316   5.968   2.405   2.545 -0.0621  0.9793  2.2626
14967TIP3    H266317   6.115   2.426   2.574  0.7543 -0.4714 -0.4390
14968TIP3   OH266318   1.499   4.192  12.717  0.1929  0.3229 -0.3088
14968TIP3    H166319   1.533   4.120  12.664  0.5175 -0.5058  1.0051
14968TIP3    H266320   1.424   4.225  12.666 -1.0361 -2.0336 -0.1806
14969TIP3   OH266321   4.139   4.959  11.672 -0.5123 -0.5378 -0.3337
14969TIP3    H166322   4.063   4.903  11.653 -0.0700 -1.5636  0.7901
14969TIP3    H266323   4.212   4.916  11.628 -0.2310 -0.7033  0.2712
14970TIP3   OH266324   2.037   0.549   0.314 -0.4442  0.1151  0.1865
14970TIP3    H166325   1.945   0.574   0.326 -0.5274  0.1309 -0.4773
14970TIP3    H266326   2.074   0.617   0.259  0.2224  0.6208  1.2282
14971TIP3   OH266327   0.565   3.733   0.824  0.0141 -0.0750 -0.2195
14971TIP3    H166328   0.566   3.810   0.880  1.3226 -0.7612  0.7495
14971TIP3    H266329   0.542   3.767   0.737  2.5448  1.7694 -0.2763
14972TIP3   OH266330   5.859   1.441  11.948 -0.2168 -0.5686 -0.4004
14972TIP3    H166331   5.796   1.507  11.921 -1.5591 -1.1642  1.1200
14972TIP3    H266332   5.928   1.444  11.882 -1.4735  0.6251 -1.6943
14973TIP3   OH266333   4.410   0.523  13.095  0.1946 -0.2709 -0.0241
14973TIP3    H166334   4.361   0.461  13.149 -1.1305  0.8303  0.1003
14973TIP3    H266335   4.475   0.561  13.154 -0.0029 -0.4378  0.2993
14974TIP3   OH266336   5.056   3.987  12.551 -0.0750  0.5347 -0.7905
14974TIP3    H166337   5.072   3.893  12.560  1.6343  0.9485  1.8461
14974TIP3    H266338   5.011   3.996  12.467  1.1471 -2.4545 -1.9338
14975TIP3   OH266339   1.597   1.080  16.091 -0.6001  0.1544  0.3017
14975TIP3    H166340   1.634   1.081  16.180  1.0080 -1.6682 -0.2659
14975TIP3    H266341   1.541   1.158  16.087  0.8532  1.4020  2.2502
14976TIP3   OH266342   2.364   4.466  13.677  0.7552  0.6134  0.3104
14976TIP3    H166343   2.277   4.427  13.669  1.4610 -1.1891  1.0656
14976TIP3    H266344   2.350   4.545  13.730 -1.0653  2.8826 -3.1565
14977TIP3   OH266345   2.803   5.851  11.703  0.3227 -0.3827  0.3588
14977TIP3    H166346   2.838   5.912  11.767 -1.3020  0.3364  0.6131
14977TIP3    H266347   2.758   5.784  11.756 -0.4997 -0.1203  0.0095
14978TIP3   OH266348   2.050   5.830  16.653 -0.2034 -0.1401  0.1726
14978TIP3    H166349   2.117   5.878  16.702  0.7127 -0.5450 -0.6367
14978TIP3    H266350   2.089   5.745  16.635 -0.0945  0.2912 -2.0098
14979TIP3   OH266351   3.161   0.140  12.018 -0.3609  0.5950 -0.0017
14979TIP3    H166352   3.125   0.185  12.095 -1.6303 -0.1285 -0.1294
14979TIP3    H266353   3.100   0.068  12.003  0.5169  0.0380 -0.9995
14980TIP3   OH266354   0.286   0.051  12.992 -0.0560  0.0825  0.0540
14980TIP3    H166355   0.299   0.058  12.897  1.0515 -3.2031 -0.1913
14980TIP3    H266356   0.195   0.023  13.002  0.0457 -0.3423 -0.1472
14981TIP3   OH266357   2.574   4.775  16.824 -0.1033 -0.0222  0.2914
14981TIP3    H166358   2.611   4.861  16.804  0.9859 -0.4458  0.3743
14981TIP3    H266359   2.596   4.721  16.748 -0.6595 -0.2637  0.2973
14982TIP3   OH266360   6.726   0.956  14.278 -0.1096 -0.3832  0.0115
14982TIP3    H166361   6.800   0.929  14.223  1.1720  1.8752  0.5003
14982TIP3    H266362   6.765   1.017  14.342 -2.6642  2.6678 -1.0845
14983TIP3   OH266363   2.485   5.479  13.511 -0.0556 -0.2577 -0.3150
14983TIP3    H166364   2.481   5.407  13.449 -0.6870 -0.2424 -0.2986
14983TIP3    H266365   2.579   5.494  13.524  0.0816 -0.7330 -0.7083
14984TIP3   OH266366   0.107   5.610   3.482  0.3627 -0.4086 -0.3062
14984TIP3    H166367   0.191   5.631   3.523  0.2213 -0.9578  0.2830
14984TIP3    H266368   0.071   5.540   3.537 -0.7271  0.1918 -0.2337
14985TIP3   OH266369   5.036   5.070  11.417 -0.4006 -0.1462 -0.2204
14985TIP3    H166370   5.053   4.981  11.387  2.1390  0.6848 -1.5425
14985TIP3    H266371   5.027   5.121  11.336 -0.9714  0.9673  0.5037
14986TIP3   OH266372   2.105   1.176   3.841  0.1687  0.0953  0.3837
14986TIP3    H166373   2.073   1.265   3.855  0.9419  0.5541 -0.6259
14986TIP3    H266374   2.025   1.124   3.828 -0.2623  0.7769  0.2380
14987TIP3   OH266375   2.709   1.644  16.244  0.2664  0.4406  0.2984
14987TIP3    H166376   2.718   1.621  16.336 -0.2292  0.7082  0.4120
14987TIP3    H266377   2.678   1.564  16.202 -3.0310  1.2266  0.9446
14988TIP3   OH266378   2.329   4.726   5.547 -0.0169  0.3514  0.7580
14988TIP3    H166379   2.386   4.778   5.490 -1.7180 -0.0935 -1.4844
14988TIP3    H266380   2.389   4.676   5.602  1.6886  2.1284  0.6283
14989TIP3   OH266381   1.019   1.251  15.790  0.3313  0.2779 -0.1189
14989TIP3    H166382   1.067   1.179  15.832  1.3557  2.5766  2.9778
14989TIP3    H266383   1.087   1.304  15.750 -0.0481  1.3040  0.5760
14990TIP3   OH266384   1.932   6.304   5.771 -0.2365  0.3245 -0.0320
14990TIP3    H166385   1.986   6.228   5.749  1.3186  1.1869  0.6287
14990TIP3    H266386   1.846   6.268   5.791 -0.2174 -1.0048 -2.0854
14991TIP3   OH266387   1.058   1.087   1.094  0.2471  0.5702  0.6493
14991TIP3    H166388   1.150   1.058   1.098 -0.2592 -1.1561  0.5530
14991TIP3    H266389   1.044   1.110   1.002  0.4714  0.4286  0.5780
14992TIP3   OH266390   3.049   5.874  15.632  0.2907 -0.7050 -0.4627
14992TIP3    H166391   2.954   5.876  15.631  0.2846 -0.2465  0.1731
14992TIP3    H266392   3.072   5.783  15.648 -0.0257 -0.9276 -1.2466
14993TIP3   OH266393   3.330   5.440  16.597  0.2760  0.2383 -0.5926
14993TIP3    H166394   3.313   5.372  16.531 -0.9160 -0.0300 -0.0282
14993TIP3    H266395   3.377   5.394  16.667  0.2174  0.1895 -0.5853
14994TIP3   OH266396   2.625   1.382  15.375 -0.2701 -0.5532 -0.1456
14994TIP3    H166397   2.662   1.383  15.463  2.5396  0.2687 -1.2425
14994TIP3    H266398   2.572   1.461  15.370  0.5447  0.0426  0.4329
14995TIP3   OH266399   3.124   1.357  10.921  0.1163 -0.7720 -0.2103
14995TIP3    H166400   3.149   1.425  10.985 -1.3539  2.3062 -2.6163
14995TIP3    H266401   3.207   1.318  10.895  1.1909  0.8294  0.5962
14996TIP3   OH266402   0.420   0.584  13.178 -0.1042 -0.1873  0.4945
14996TIP3    H166403   0.386   0.494  13.176 -2.6369  0.6942  0.1018
14996TIP3    H266404   0.366   0.628  13.244  2.0879  0.7267  1.7724
14997TIP3   OH266405   1.504   0.756  12.263  0.4413 -0.5145  0.1740
14997TIP3    H166406   1.416   0.717  12.265 -0.3505  1.1086 -0.9052
14997TIP3    H266407   1.523   0.776  12.354 -1.1326  0.7763  0.2715
14998TIP3   OH266408   3.035   6.736  10.453 -0.0206 -0.2611 -0.3182
14998TIP3    H166409   3.076   6.802  10.397  1.1967 -0.1269  0.6795
14998TIP3    H266410   2.997   6.787  10.525  0.3289 -0.5702  0.0945
14999TIP3   OH266411   4.492   2.181  16.090  0.5838  0.4534 -0.2082
14999TIP3    H166412   4.439   2.204  16.167  2.1801  1.1890  0.7137
14999TIP3    H266413   4.535   2.263  16.066  0.5398  0.0936 -1.5626
15000TIP3   OH266414   4.134   6.062  14.187  0.2196 -0.4101  0.1376
15000TIP3    H166415   4.164   6.108  14.265 -0.3632 -0.3504  0.3381
15000TIP3    H266416   4.182   5.980  14.187  0.6348 -0.1692  0.2502
15001TIP3   OH266417   6.484   3.291  11.795 -0.2174  0.2772  0.2993
15001TIP3    H166418   6.411   3.236  11.824 -0.3498 -0.3534 -1.1265
15001TIP3    H266419   6.548   3.229  11.761 -0.0146  0.9543 -0.5918
15002TIP3   OH266420   0.392   4.394  13.414  0.1158  0.2400 -0.4515
15002TIP3    H166421   0.425   4.408  13.503 -0.0787  1.3310 -0.5418
15002TIP3    H266422   0.372   4.481  13.382 -0.1369 -0.1748 -1.4537
15003TIP3   OH266423   5.998   0.543  16.294 -0.3624 -0.3832 -0.7617
15003TIP3    H166424   5.991   0.635  16.321  1.3697 -0.4624  0.0422
15003TIP3    H266425   5.925   0.500  16.338 -0.1839  0.3028  0.2245
15004TIP3   OH266426   6.504   6.065  13.077  0.4594  0.6537  0.2978
15004TIP3    H166427   6.584   6.014  13.082 -0.6270 -1.1512  0.2611
15004TIP3    H266428   6.477   6.079  13.168 -0.6505 -1.2707  0.3230
15005TIP3   OH266429   1.373   6.258   2.748 -0.0819 -0.1237 -0.5681
15005TIP3    H166430   1.425   6.301   2.681 -0.5225  0.8036 -0.3363
15005TIP3    H266431   1.398   6.300   2.830 -0.7518 -0.0820 -0.3731
15006TIP3   OH266432   0.728   3.094  16.903 -0.4202 -0.5215  0.4907
15006TIP3    H166433   0.746   3.187  16.917 -2.7691 -0.2762  2.5828
15006TIP3    H266434   0.659   3.092  16.836 -1.1964 -0.6332  1.2682
15007TIP3   OH266435   6.727   2.232   0.790 -0.2427  0.2781 -0.6985
15007TIP3    H166436   6.671   2.219   0.714 -0.8712 -0.0255 -0.1987
15007TIP3    H266437   6.668   2.268   0.857  0.2362  0.2869 -0.2724
15008TIP3   OH266438   0.717   4.338   3.229  0.2025 -0.4352  0.4091
15008TIP3    H166439   0.658   4.369   3.298  1.1057 -1.6399  1.7842
15008TIP3    H266440   0.794   4.394   3.235  0.5536 -0.9548  0.8303
15009TIP3   OH266441   3.349   2.341  11.727  0.3565  0.1315 -0.3977
15009TIP3    H166442   3.362   2.323  11.634 -0.6955 -1.2196 -0.3138
15009TIP3    H266443   3.255   2.334  11.740  0.6705 -2.7040  1.2989
15010TIP3   OH266444   0.243   0.607  14.932  0.1724 -0.1600  0.4934
15010TIP3    H166445   0.164   0.638  14.976 -0.3438 -0.4219 -0.2391
15010TIP3    H266446   0.298   0.685  14.926 -1.4243  0.9092 -2.0064
15011TIP3   OH266447   0.233   2.456  12.427  0.1745 -0.2895  0.2004
15011TIP3    H166448   0.197   2.473  12.514 -2.6183 -0.1381 -0.8706
15011TIP3    H266449   0.186   2.517  12.370  1.5636 -0.7369 -1.5038
15012TIP3   OH266450   4.751   1.300   1.819 -0.3611 -0.2982 -0.0826
15012TIP3    H166451   4.758   1.392   1.845 -0.1648  0.1820 -1.7120
15012TIP3    H266452   4.675   1.298   1.761 -2.2577 -1.7727  2.2644
15013TIP3   OH266453   3.926   0.069  13.643 -0.4820  0.0738  0.4256
15013TIP3    H166454   3.991   0.067  13.572  0.0831  1.2074  0.8722
15013TIP3    H266455   3.849   0.111  13.603 -0.5623 -0.2855  0.1943
15014TIP3   OH266456   4.578   4.525  11.738  0.1141 -0.2260  0.4714
15014TIP3    H166457   4.575   4.443  11.786  0.8793  0.3376  1.5284
15014TIP3    H266458   4.599   4.500  11.648 -0.3077 -1.2282  0.6488
15015TIP3   OH266459   5.285   3.217   1.146  0.5680 -0.3111 -0.0641
15015TIP3    H166460   5.298   3.195   1.238  1.4776 -1.1326 -0.3781
15015TIP3    H266461   5.341   3.156   1.098  0.2101  0.1940 -1.1588
15016TIP3   OH266462   5.949   3.047   0.121 -0.1496  0.2595  0.1096
15016TIP3    H166463   5.881   3.036   0.055 -2.5095  1.1307  2.2178
15016TIP3    H266464   5.932   2.979   0.185  2.0635 -0.5567 -0.0667
15017TIP3   OH266465   1.590   6.426  11.467 -0.4130 -0.4250  0.6734
15017TIP3    H166466   1.592   6.412  11.561  0.3918 -0.2380  0.6973
15017TIP3    H266467   1.672   6.472  11.448 -1.8936  2.3294  0.3223
15018TIP3   OH266468   5.236   0.603   5.380 -0.9281  0.0895 -0.0193
15018TIP3    H166469   5.159   0.656   5.364  0.6868  2.1250 -1.5593
15018TIP3    H266470   5.274   0.589   5.294  0.5205 -0.7203  0.7102
15019TIP3   OH266471   0.717   2.427  16.692 -0.4022 -0.0902 -0.1514
15019TIP3    H166472   0.626   2.409  16.669  0.1134 -1.1019 -1.4826
15019TIP3    H266473   0.768   2.388  16.622  1.0067  2.3154 -0.5916
15020TIP3   OH266474   5.776   1.272  15.483 -0.4635 -0.5380  0.3554
15020TIP3    H166475   5.847   1.305  15.428  1.0398 -1.2495  1.8000
15020TIP3    H266476   5.696   1.301  15.438  0.7120  0.4953 -1.1867
15021TIP3   OH266477   3.920   1.419  13.036  0.1591 -0.1670 -0.1147
15021TIP3    H166478   3.981   1.405  12.964  0.2697  1.0593 -0.2699
15021TIP3    H266479   3.974   1.450  13.108  0.0206 -1.2177  0.4617
15022TIP3   OH266480   5.615   3.814  14.570 -0.3071 -0.8039 -0.3755
15022TIP3    H166481   5.630   3.793  14.478 -1.6158  0.9122 -1.0295
15022TIP3    H266482   5.659   3.897  14.584 -0.7760 -0.6650  0.3330
15023TIP3   OH266483   3.685   5.164   2.840 -0.2292  0.0646  0.6043
15023TIP3    H166484   3.659   5.075   2.819  0.8965 -0.5779  1.7240
15023TIP3    H266485   3.652   5.178   2.929  1.9454 -0.3311  1.5688
15024TIP3   OH266486   2.362   6.391   6.670 -0.2932  0.1987 -0.3770
15024TIP3    H166487   2.449   6.416   6.638  0.5916  0.3223  1.9765
15024TIP3    H266488   2.307   6.392   6.591  1.4757  1.6464 -1.6900
15025TIP3   OH266489   2.237   0.428   5.654  0.0756 -0.1146  0.2636
15025TIP3    H166490   2.225   0.333   5.658 -1.5479  0.0671  0.3455
15025TIP3    H266491   2.156   0.464   5.691 -0.0971  1.3221 -1.3972
15026TIP3   OH266492   2.291   1.238  11.368 -0.2593  0.0062  0.4487
15026TIP3    H166493   2.218   1.204  11.418  0.3141  1.4699  2.4491
15026TIP3    H266494   2.251   1.292  11.299 -1.0899  0.5733  1.3518
15027TIP3   OH266495   1.536   5.507   2.950  0.3030 -0.4746 -0.1718
15027TIP3    H166496   1.624   5.503   2.911  0.1847  0.3159 -0.5352
15027TIP3    H266497   1.525   5.599   2.975 -1.0651 -0.1866 -1.6580
15028TIP3   OH266498   2.637   1.084   1.771  0.5291  0.1468 -0.4545
15028TIP3    H166499   2.649   1.129   1.688 -0.6456 -2.2859 -2.0846
15028TIP3    H266500   2.724   1.052   1.794  0.9519  1.2750 -0.4447
15029TIP3   OH266501   4.149   5.812   4.967 -0.1286  0.2971  0.6254
15029TIP3    H166502   4.111   5.845   4.886 -0.0241 -3.0124 -0.9176
15029TIP3    H266503   4.242   5.836   4.962 -0.6083  2.5323  1.2084
15030TIP3   OH266504   2.845   1.785  11.581  0.6266  0.0960  0.5498
15030TIP3    H166505   2.806   1.813  11.499  0.9705  0.7660  0.6032
15030TIP3    H266506   2.782   1.811  11.649 -0.2431 -1.5747  0.4309
15031TIP3   OH266507   3.987   6.312   2.766 -0.4733  0.0067  0.3593
15031TIP3    H166508   3.948   6.342   2.684  0.5375 -2.0480 -0.9763
15031TIP3    H266509   3.943   6.362   2.834 -0.2601  2.9361 -1.4990
15032TIP3   OH266510   1.680   4.201   5.321  0.1043  0.5093 -0.2262
15032TIP3    H166511   1.715   4.255   5.391  1.2507 -0.1441 -0.2646
15032TIP3    H266512   1.703   4.248   5.241  1.6728 -0.3015 -0.2918
15033TIP3   OH266513   1.752   2.981  10.327  0.3816  0.6263 -0.1772
15033TIP3    H166514   1.691   2.911  10.303  0.3303  0.9239 -0.9263
15033TIP3    H266515   1.770   2.966  10.420 -0.5679  0.3403 -0.0330
15034TIP3   OH266516   1.197   0.392   4.026  0.2132 -0.2010  0.0160
15034TIP3    H166517   1.131   0.370   4.091 -0.3309 -1.4955 -0.9221
15034TIP3    H266518   1.175   0.338   3.950  0.9759  1.0799 -1.1611
15035TIP3   OH266519   1.763   1.224   1.042 -0.1486  0.2836  0.0878
15035TIP3    H166520   1.857   1.242   1.037 -0.1900  0.4510 -0.1392
15035TIP3    H266521   1.739   1.198   0.952 -0.3701  0.5100  0.0791
15036TIP3   OH266522   2.737   3.926   0.435 -0.0750  0.4237 -0.1448
15036TIP3    H166523   2.673   3.942   0.505  0.7917 -0.3397  0.8439
15036TIP3    H266524   2.757   4.013   0.401  0.1417  0.9134  1.1570
15037TIP3   OH266525   4.624   2.662  14.740  1.0615  0.6231  0.3138
15037TIP3    H166526   4.643   2.600  14.669  0.4475  0.2466  0.4703
15037TIP3    H266527   4.699   2.721  14.741  1.5190  0.0569 -0.0280
15038TIP3   OH266528   3.444   1.414   0.871 -0.3892  0.1429 -0.1796
15038TIP3    H166529   3.487   1.413   0.785  3.0062  0.0021  1.3714
15038TIP3    H266530   3.426   1.321   0.889  2.7765 -0.3862  0.8966
15039TIP3   OH266531   0.873   2.476  16.318 -0.3598  0.4685  0.7216
15039TIP3    H166532   0.890   2.388  16.284 -2.9940 -0.3555  1.3681
15039TIP3    H266533   0.847   2.462  16.409  0.7036  2.1088  1.3244
15040TIP3   OH266534   4.654   4.822   0.802  0.0782 -0.4398 -0.3627
15040TIP3    H166535   4.680   4.914   0.811  2.6836 -1.1638  0.0308
15040TIP3    H266536   4.577   4.814   0.859 -0.8807  1.7151 -1.2453
15041TIP3   OH266537   2.622   4.435   4.942  0.3569 -0.2600 -1.3714
15041TIP3    H166538   2.637   4.341   4.948 -1.9540 -0.9602 -4.0669
15041TIP3    H266539   2.633   4.455   4.849  0.8341  2.1700 -0.8502
15042TIP3   OH266540   2.391   4.167   2.033 -0.0410  0.7296 -0.4462
15042TIP3    H166541   2.317   4.145   2.089  0.1352  0.4654 -0.3138
15042TIP3    H266542   2.358   4.152   1.944  0.5979 -1.9264 -0.3403
15043TIP3   OH266543   1.076   0.305   0.478 -0.2113 -0.3226  1.1364
15043TIP3    H166544   0.981   0.301   0.481 -0.2418  0.3761  1.2887
15043TIP3    H266545   1.098   0.393   0.509  0.4603 -0.3053  0.6515
15044TIP3   OH266546   4.087   0.404   2.188  0.4482 -0.2346 -0.0968
15044TIP3    H166547   4.010   0.434   2.236 -0.1320 -0.4161 -0.8767
15044TIP3    H266548   4.153   0.387   2.255 -0.0078  0.4595  0.5409
15045TIP3   OH266549   6.448   0.295   2.073 -0.2968 -0.5770 -0.4749
15045TIP3    H166550   6.489   0.381   2.065 -0.9804 -0.3985 -2.9520
15045TIP3    H266551   6.394   0.301   2.152 -0.5441  1.3670 -0.7576
15046TIP3   OH266552   1.158   4.042  15.958 -0.5121 -0.0950 -0.1477
15046TIP3    H166553   1.076   4.002  15.988 -0.8493  0.6238 -0.0876
15046TIP3    H266554   1.199   3.974  15.905 -0.0473 -1.2851  1.6528
15047TIP3   OH266555   2.657   2.140  13.834 -0.1965 -0.0834 -0.1748
15047TIP3    H166556   2.748   2.157  13.810 -0.1146 -2.0343 -1.4512
15047TIP3    H266557   2.629   2.071  13.775 -2.1790 -0.3169  0.9450
15048TIP3   OH266558   6.451   5.706  11.765  0.0676  0.3450  0.4818
15048TIP3    H166559   6.502   5.783  11.792  2.5348 -0.9902 -0.0485
15048TIP3    H266560   6.493   5.633  11.811  0.2614 -1.1436 -1.9155
15049TIP3   OH266561   4.850   5.761   6.177 -0.3460 -0.0974  0.3107
15049TIP3    H166562   4.836   5.840   6.124 -3.0511 -0.5995  0.1316
15049TIP3    H266563   4.762   5.727   6.192  0.6976 -2.6507  1.0761
15050TIP3   OH266564   6.264   5.878  15.228  0.2409  0.2249  0.6152
15050TIP3    H166565   6.216   5.808  15.184 -0.2066 -0.7743  2.5680
15050TIP3    H266566   6.314   5.920  15.159  1.1163 -2.5000 -0.5673
15051TIP3   OH266567   1.425   3.663  12.123  0.4363 -1.0707  0.3368
15051TIP3    H166568   1.367   3.711  12.064  1.0105 -0.3360  0.3595
15051TIP3    H266569   1.495   3.630  12.067  0.0415 -1.9148  0.3194
15052TIP3   OH266570   2.092   2.421   6.076  0.3566 -0.2152 -0.6139
15052TIP3    H166571   2.042   2.496   6.041  0.3748 -0.3726 -0.9829
15052TIP3    H266572   2.035   2.385   6.144  0.2124 -0.0504 -0.6446
15053TIP3   OH266573   6.201   0.675   2.210 -0.4886 -0.0199  0.4871
15053TIP3    H166574   6.156   0.686   2.127  0.4701  0.0643 -0.0320
15053TIP3    H266575   6.135   0.639   2.269 -1.3131  0.4111 -0.1620
15054TIP3   OH266576   3.005   5.168  16.375  0.3225  0.0368 -0.3054
15054TIP3    H166577   2.974   5.086  16.412  0.9592 -0.7654 -1.4736
15054TIP3    H266578   3.075   5.142  16.315  0.2619  1.3921 -0.9959
15055TIP3   OH266579   1.358   0.799   1.608 -0.2202 -0.3394 -0.5272
15055TIP3    H166580   1.439   0.760   1.574  0.1441  0.9925 -1.2697
15055TIP3    H266581   1.353   0.769   1.698  2.2547  1.2187  0.2131
15056TIP3   OH266582   4.811   5.213  16.627 -0.0957  0.3199  0.0343
15056TIP3    H166583   4.772   5.294  16.594 -1.1100  0.7181  2.0833
15056TIP3    H266584   4.736   5.156  16.643  0.6438 -1.4856 -2.3095
15057TIP3   OH266585   5.391   6.614  17.258 -0.0608 -0.0047  0.1366
15057TIP3    H166586   5.453   6.595  17.329  1.3677  0.4717 -0.9396
15057TIP3    H266587   5.442   6.664  17.194 -1.7840  1.0835 -0.4472
15058TIP3   OH266588   5.079   4.430   4.484  0.5251  0.2487 -0.1261
15058TIP3    H166589   5.010   4.409   4.421  0.5120  0.7884 -0.2943
15058TIP3    H266590   5.138   4.354   4.481  1.5918  1.0934 -2.2427
15059TIP3   OH266591   1.922   3.497  14.574  0.2606 -0.4242 -0.1791
15059TIP3    H166592   1.842   3.482  14.525  0.0173 -1.5102  0.5073
15059TIP3    H266593   1.898   3.561  14.641  0.7325  1.4783 -1.7633
15060TIP3   OH266594   4.138   5.125   4.525  0.2102 -0.3214  0.3234
15060TIP3    H166595   4.067   5.095   4.467  0.1535  0.0952  0.1765
15060TIP3    H266596   4.212   5.070   4.501  0.3559  0.2527 -0.5754
15061TIP3   OH266597   6.053   5.714   6.581  0.0345 -0.7182 -0.0208
15061TIP3    H166598   5.962   5.691   6.565  0.3914 -1.2812 -1.4940
15061TIP3    H266599   6.084   5.749   6.497  1.1335 -0.4495  0.4769
15062TIP3   OH266600   4.896   1.749   2.411 -0.4165 -0.2532  0.2010
15062TIP3    H166601   4.901   1.810   2.337  0.2623 -0.2654  0.2324
15062TIP3    H266602   4.803   1.741   2.429 -0.5205  0.6858  0.1248
15063TIP3   OH266603   4.854   1.202  16.651  0.0251 -0.9288 -0.6203
15063TIP3    H166604   4.878   1.110  16.654 -0.5168 -1.0602 -0.1680
15063TIP3    H266605   4.759   1.202  16.640 -0.1285 -0.4290  0.5651
15064TIP3   OH266606   0.628   0.340   3.131  1.0662 -0.2478  0.5010
15064TIP3    H166607   0.707   0.366   3.085  0.0406  3.0843  0.3393
15064TIP3    H266608   0.631   0.389   3.213 -1.1666  0.6558  0.1229
15065TIP3   OH266609   6.548   6.745  10.461  0.1489  0.2304 -0.1785
15065TIP3    H166610   6.536   6.688  10.537 -0.7783  1.0656  0.3140
15065TIP3    H266611   6.546   6.685  10.386  3.5538 -0.9596  0.4889
15066TIP3   OH266612   5.750   4.363   4.553 -0.2218  0.2423  0.1936
15066TIP3    H166613   5.663   4.385   4.519  0.7730  0.1997 -2.5456
15066TIP3    H266614   5.806   4.435   4.524  1.0995 -0.8754 -0.1110
15067TIP3   OH266615   1.696   2.900   3.397  0.2398  0.0492  0.2802
15067TIP3    H166616   1.784   2.864   3.402 -0.5255 -1.8318  1.1741
15067TIP3    H266617   1.665   2.877   3.309  1.3714  2.7048 -0.9229
15068TIP3   OH266618   3.101   5.917   4.813  0.0251 -0.0398 -0.3898
15068TIP3    H166619   3.052   5.892   4.734  1.2125 -0.4429 -1.0155
15068TIP3    H266620   3.035   5.957   4.870 -1.0701 -0.7111 -1.1433
15069TIP3   OH266621   2.255   6.435   6.015 -0.5313  0.2084  0.9883
15069TIP3    H166622   2.326   6.494   5.991  0.0399 -0.5326  0.8140
15069TIP3    H266623   2.272   6.412   6.106 -1.8760  1.8574  1.7179
15070TIP3   OH266624   2.350   3.937  17.015  0.1095  0.4926  0.1839
15070TIP3    H166625   2.255   3.923  17.021  0.4121 -1.7866  0.5840
15070TIP3    H266626   2.363   3.982  16.931 -1.4537  2.6376  1.0164
15071TIP3   OH266627   0.952   3.237  17.148 -0.0130 -0.2572 -0.4970
15071TIP3    H166628   0.986   3.151  17.122 -0.6102 -0.8895  0.7378
15071TIP3    H266629   0.977   3.245  17.240 -0.6073  0.5746 -0.4062
15072TIP3   OH266630   1.974   4.614  12.839  0.5953  0.2399 -0.1837
15072TIP3    H166631   2.017   4.699  12.847  1.6673 -0.3344  0.4512
15072TIP3    H266632   1.883   4.634  12.819  0.6781  1.5474  0.6769
15073TIP3   OH266633   2.179   6.536   1.041  0.4830 -0.1180  0.0314
15073TIP3    H166634   2.171   6.612   0.983  0.1910 -1.0403 -1.1981
15073TIP3    H266635   2.102   6.540   1.097 -0.4768 -0.4118 -1.2022
15074TIP3   OH266636   1.704   0.163   5.399  0.2307  0.0218 -0.1352
15074TIP3    H166637   1.692   0.141   5.492  0.8621 -0.5840 -0.1915
15074TIP3    H266638   1.710   0.078   5.355 -0.9863  0.2843 -0.8746
15075TIP3   OH266639   4.197   2.974  12.943  0.1041 -0.7187 -0.1170
15075TIP3    H166640   4.160   2.939  12.861  3.2709 -3.0523 -0.7420
15075TIP3    H266641   4.232   3.060  12.918 -2.3930  0.3761 -0.1239
15076TIP3   OH266642   2.969   0.374  16.120  0.5585 -0.1844 -0.4065
15076TIP3    H166643   2.999   0.443  16.178  1.5771  0.0263 -1.1523
15076TIP3    H266644   2.991   0.293  16.165  1.0279 -0.0202 -0.3344
15077TIP3   OH266645   0.835   2.703   0.140 -0.1172  0.8563 -0.1366
15077TIP3    H166646   0.918   2.751   0.140 -0.8623  2.2103 -0.8765
15077TIP3    H266647   0.850   2.629   0.082  1.0091  0.2617  0.8853
15078TIP3   OH266648   4.002   5.359  16.597  0.0548 -0.0266 -0.1467
15078TIP3    H166649   3.958   5.296  16.540 -0.0292 -0.9934  0.9256
15078TIP3    H266650   3.960   5.443  16.577  0.5843 -0.1721 -2.0358
15079TIP3   OH266651   0.393   4.730   0.709 -0.0618 -0.2564 -0.2215
15079TIP3    H166652   0.354   4.644   0.727  1.1244 -1.1686 -1.7540
15079TIP3    H266653   0.323   4.793   0.729 -1.7167 -1.7057 -1.1584
15080TIP3   OH266654   6.556   5.489  16.328  0.0691 -0.3228 -0.1095
15080TIP3    H166655   6.533   5.572  16.372  0.9350 -0.1899  0.0996
15080TIP3    H266656   6.475   5.439  16.331 -0.3799  0.3864  0.0684
15081TIP3   OH266657   5.341   4.968  16.974 -0.6047  0.0167  0.1981
15081TIP3    H166658   5.262   4.982  17.025  0.0792  1.8471  0.8577
15081TIP3    H266659   5.402   4.925  17.034 -1.3804 -2.3769 -0.6244
15082TIP3   OH266660   5.242   6.027  12.752 -0.2602 -0.4033  0.1345
15082TIP3    H166661   5.304   6.041  12.824  0.2035 -1.4876 -0.0420
15082TIP3    H266662   5.293   6.049  12.673 -0.7446  0.7137  0.1047
15083TIP3   OH266663   5.976   5.378  15.870 -0.1766 -0.0654 -0.6583
15083TIP3    H166664   5.965   5.472  15.854  0.6440  0.2167  0.3051
15083TIP3    H266665   5.923   5.360  15.947  0.6861 -0.1063 -0.0582
15084TIP3   OH266666   2.210   3.762  11.461 -0.5850  0.1101  0.6366
15084TIP3    H166667   2.226   3.790  11.371  3.3134  0.8385  1.3521
15084TIP3    H266668   2.240   3.671  11.464  0.3356  0.4167  1.3604
15085TIP3   OH266669   1.967   3.569   4.077 -0.1315 -0.1852  0.2444
15085TIP3    H166670   1.933   3.480   4.089  2.3150 -1.3049 -0.4123
15085TIP3    H266671   1.924   3.620   4.145 -1.6075 -1.8650  0.6536
15086TIP3   OH266672   5.920   2.314  14.384 -0.1683 -0.1610 -0.0571
15086TIP3    H166673   5.982   2.288  14.317 -0.4244  1.1042 -0.8240
15086TIP3    H266674   5.836   2.281  14.353 -0.0553 -0.9464  0.4478
15087TIP3   OH266675   3.079   1.035  14.293 -0.1402 -0.6405 -0.3555
15087TIP3    H166676   3.145   1.057  14.359 -0.2996  3.1046 -1.2414
15087TIP3    H266677   3.129   1.026  14.212 -0.5064  1.0359 -0.8057
15088TIP3   OH266678   0.851   5.866   6.606 -0.1392 -0.2071  0.2665
15088TIP3    H166679   0.880   5.791   6.554 -1.9109 -1.5425  1.0816
15088TIP3    H266680   0.930   5.919   6.618  1.3126 -2.2186  0.1259
15089TIP3   OH266681   1.263   5.941  14.378  0.0278  0.0015 -0.7310
15089TIP3    H166682   1.235   6.033  14.383  0.8450  0.3564 -2.1576
15089TIP3    H266683   1.354   5.946  14.347  1.0536 -1.1884  1.7738
15090TIP3   OH266684   4.879   5.152  14.915  0.1016  0.4614 -0.0048
15090TIP3    H166685   4.864   5.072  14.965 -0.4718  2.1083  2.6414
15090TIP3    H266686   4.972   5.170  14.925  0.4173 -0.2655 -1.3379
15091TIP3   OH266687   4.543   6.113   3.327 -0.1714  0.0149 -0.2949
15091TIP3    H166688   4.621   6.075   3.285  0.7809  0.7060  0.7980
15091TIP3    H266689   4.481   6.040   3.331  1.1150 -1.1031  0.5027
15092TIP3   OH266690   4.732   3.654  16.878 -0.1445  0.1465 -0.2996
15092TIP3    H166691   4.744   3.674  16.971 -1.0171 -0.8457  0.0467
15092TIP3    H266692   4.676   3.724  16.845 -0.9954 -0.2517  0.2627
15093TIP3   OH266693   0.001   2.598   1.655 -0.6386  0.0991  0.4303
15093TIP3    H166694   0.030   2.520   1.703  0.8187 -0.3117 -1.0026
15093TIP3    H266695   0.071   2.613   1.591 -1.5632  1.7790 -0.2288
15094TIP3   OH266696   0.027   0.373   3.576 -0.4281 -0.2375  0.2707
15094TIP3    H166697  -0.021   0.296   3.546  0.7781 -1.1448  0.5608
15094TIP3    H266698  -0.022   0.448   3.541 -1.7207 -1.1272  0.1251
15095TIP3   OH266699   4.924   3.390  12.052 -0.3709 -0.1909  0.0034
15095TIP3    H166700   4.883   3.425  12.130 -0.7594  1.2127 -0.8034
15095TIP3    H266701   4.998   3.448  12.035  1.3625 -2.0208  0.7901
15096TIP3   OH266702   3.217   5.706  11.033 -0.1685 -0.1531 -0.0116
15096TIP3    H166703   3.205   5.754  10.951  0.5555 -1.8705 -1.1850
15096TIP3    H266704   3.130   5.675  11.055 -0.1609 -0.8999 -0.9497
15097TIP3   OH266705   2.346   3.795   0.762  0.1198 -0.8393  0.1462
15097TIP3    H166706   2.418   3.741   0.731 -0.4719 -1.5457 -0.0386
15097TIP3    H266707   2.353   3.876   0.712  0.6233 -1.0079 -0.0568
15098TIP3   OH266708   4.522   4.422   0.658 -0.2084 -0.5701  0.4718
15098TIP3    H166709   4.485   4.411   0.745 -2.3235  1.5247 -0.0447
15098TIP3    H266710   4.614   4.444   0.672 -0.6118  0.1306  2.2011
15099TIP3   OH266711   5.271   3.708   0.186  0.2356  0.3696 -0.1613
15099TIP3    H166712   5.230   3.780   0.233  1.1729  0.1646  1.0119
15099TIP3    H266713   5.272   3.636   0.249 -1.4813 -0.9912 -1.5895
15100TIP3   OH266714   4.626   3.038  10.932  0.1442 -0.0675  0.0731
15100TIP3    H166715   4.682   3.041  10.855  0.5167 -0.1248  0.3399
15100TIP3    H266716   4.542   3.004  10.900  0.4332 -0.5131 -0.2213
15101TIP3   OH266717   1.367   0.148   5.370  0.0507  0.0770 -0.3258
15101TIP3    H166718   1.273   0.132   5.383 -0.2245 -0.1516 -2.2495
15101TIP3    H266719   1.407   0.123   5.453 -1.3829 -1.7390 -0.1027
15102TIP3   OH266720   3.774   4.081   6.667 -0.2521  0.2832  0.7050
15102TIP3    H166721   3.690   4.045   6.694 -0.1369 -0.6006 -0.0712
15102TIP3    H266722   3.839   4.029   6.715 -0.1418  1.2454  1.6350
15103TIP3   OH266723   0.937   5.577  11.621 -0.5076 -0.5059  0.1483
15103TIP3    H166724   0.973   5.664  11.637 -3.3880  0.7195  0.6170
15103TIP3    H266725   0.916   5.543  11.708  0.3392 -1.5604 -0.0518
15104TIP3   OH266726   5.719   5.123   1.727 -0.1604  0.2033 -0.0808
15104TIP3    H166727   5.789   5.117   1.663 -0.0833 -1.2198  0.1171
15104TIP3    H266728   5.642   5.148   1.676 -0.1711 -1.2327 -0.7965
15105TIP3   OH266729   2.024   3.036   4.699  0.1216  0.1395 -0.1052
15105TIP3    H166730   2.038   3.039   4.604 -0.4440 -1.4546 -0.2683
15105TIP3    H266731   1.935   3.069   4.711 -0.1152 -0.4545 -0.2181
15106TIP3   OH266732   4.899   0.221   3.148  0.0113  0.5034  0.0301
15106TIP3    H166733   4.851   0.288   3.099 -1.3043 -0.1631  0.3599
15106TIP3    H266734   4.990   0.233   3.122 -0.3483  1.7027 -0.7540
15107TIP3   OH266735   0.650   1.704  16.140 -0.5754  0.1460  0.5037
15107TIP3    H166736   0.559   1.729  16.121 -1.3056 -0.7991  2.4708
15107TIP3    H266737   0.687   1.780  16.184 -1.6381 -0.7476  3.1021
15108TIP3   OH266738   6.526   6.701   2.601 -0.6573  0.3646  0.8159
15108TIP3    H166739   6.546   6.793   2.584 -0.3322  0.4065  1.4028
15108TIP3    H266740   6.558   6.685   2.690 -1.2771 -0.1476  0.9615
15109TIP3   OH266741   5.421   2.314  12.039  0.2695 -0.7352  0.4751
15109TIP3    H166742   5.326   2.324  12.043  0.1579 -1.1427 -0.7890
15109TIP3    H266743   5.446   2.291  12.129 -0.9506 -1.5908  0.6240
15110TIP3   OH266744   5.063   2.827  11.868 -0.2468 -0.3727  0.4441
15110TIP3    H166745   5.094   2.900  11.814  0.9335 -1.6834 -0.7291
15110TIP3    H266746   5.058   2.753  11.808  1.1289 -1.9078  2.1019
15111TIP3   OH266747   1.084   2.236  13.717 -0.2440  0.1858 -0.6986
15111TIP3    H166748   1.051   2.322  13.743  0.5057  0.2289  0.1276
15111TIP3    H266749   1.164   2.224  13.768 -0.7842 -1.3700 -0.1677
15112TIP3   OH266750   4.321   0.168  15.656 -1.3159 -0.2264 -0.2606
15112TIP3    H166751   4.327   0.226  15.580 -0.1096  0.1217  0.0692
15112TIP3    H266752   4.412   0.145  15.675 -1.6137 -0.4448  0.9823
15113TIP3   OH266753   0.518   6.525   5.390  0.3547 -0.1557 -0.3918
15113TIP3    H166754   0.454   6.524   5.461  2.4484 -0.8245  1.6254
15113TIP3    H266755   0.534   6.432   5.371  1.5249 -0.0495 -0.0317
15114TIP3   OH266756   5.205   3.881  13.411  0.1452  0.4393  0.2302
15114TIP3    H166757   5.147   3.819  13.457  2.2781 -0.7559  1.5142
15114TIP3    H266758   5.209   3.957  13.469 -0.8181  0.9181 -0.3117
15115TIP3   OH266759   0.356   3.800  15.498  0.2533 -0.0156 -1.0778
15115TIP3    H166760   0.404   3.811  15.581 -1.1004 -1.4799 -0.0572
15115TIP3    H266761   0.288   3.867  15.501 -2.2773 -2.4639  0.9207
15116TIP3   OH266762   1.837   1.961  13.951  0.4786  0.0816 -0.3070
15116TIP3    H166763   1.797   1.999  13.872  0.1666 -1.5535 -0.9687
15116TIP3    H266764   1.768   1.965  14.017 -0.6668 -2.1172 -1.2572
15117TIP3   OH266765   3.187   1.778  13.186 -0.1780  0.1018  0.3177
15117TIP3    H166766   3.183   1.774  13.282  0.2017  1.7753  0.4295
15117TIP3    H266767   3.189   1.686  13.159  4.3217 -0.6183  2.1340
15118TIP3   OH266768   2.030   1.344  10.986  0.3235 -0.3694  0.1890
15118TIP3    H166769   2.056   1.407  10.919  2.8037 -1.4127  0.0743
15118TIP3    H266770   1.938   1.325  10.966 -0.1939  2.3455 -0.4002
15119TIP3   OH266771   4.634   1.385   6.354 -0.2067 -0.0434  0.1160
15119TIP3    H166772   4.650   1.373   6.448 -2.7662 -0.7123  0.5558
15119TIP3    H266773   4.609   1.298   6.323  1.1140  0.0544 -1.3553
15120TIP3   OH266774   5.271   1.719   4.616  0.4995 -0.9276  0.8524
15120TIP3    H166775   5.246   1.649   4.677  0.0244  0.0302  1.8054
15120TIP3    H266776   5.225   1.796   4.649  2.8436  0.3956  1.2626
15121TIP3   OH266777   4.290   1.890  14.639 -0.4157  0.7340  0.5755
15121TIP3    H166778   4.240   1.893  14.557 -0.0545 -1.4179  0.2089
15121TIP3    H266779   4.224   1.884  14.708 -0.7053  1.3170  0.3534
15122TIP3   OH266780   3.832   0.509   2.303  0.8010  0.0751 -0.1420
15122TIP3    H166781   3.763   0.545   2.248 -0.9614 -2.4512  0.2487
15122TIP3    H266782   3.850   0.578   2.367 -0.0372  1.4773 -1.3569
15123TIP3   OH266783   3.676   0.186   1.572  0.8061  0.2171  0.5847
15123TIP3    H166784   3.702   0.210   1.661 -1.1232  0.7120  1.0759
15123TIP3    H266785   3.583   0.164   1.580  1.3468 -3.1244 -0.6805
15124TIP3   OH266786   3.875   0.709   5.321  0.1572  0.5533 -0.1164
15124TIP3    H166787   3.962   0.703   5.282 -0.2184  0.3954 -0.9436
15124TIP3    H266788   3.837   0.789   5.284 -0.0229  0.6709  0.3096
15125TIP3   OH266789   6.715   2.905  16.817 -0.2626  0.4906 -0.3827
15125TIP3    H166790   6.713   2.811  16.803 -0.8200  0.5077 -0.4104
15125TIP3    H266791   6.690   2.942  16.732  0.2851  0.6711 -0.4701
15126TIP3   OH266792   1.824   3.951   4.757  0.2425  0.1872 -0.1945
15126TIP3    H166793   1.872   3.989   4.683 -0.2497  0.4145 -0.4007
15126TIP3    H266794   1.844   4.009   4.830  1.2387 -0.3874  0.0145
15127TIP3   OH266795   1.058   3.884  15.047 -0.1797 -0.3856 -0.3625
15127TIP3    H166796   1.010   3.965  15.066 -0.4142 -0.8290  1.0078
15127TIP3    H266797   1.073   3.844  15.132  0.0402 -1.7406 -1.0121
15128TIP3   OH266798   2.080   5.145   1.528  0.2559 -0.2088  0.5774
15128TIP3    H166799   2.039   5.141   1.441 -0.5120  0.0953  0.9139
15128TIP3    H266800   2.170   5.174   1.511 -0.3480  1.4694 -0.0028
15129TIP3   OH266801   5.277   1.718   0.201  0.4139 -0.2501 -0.2197
15129TIP3    H166802   5.245   1.643   0.252  1.3561 -0.5088  0.0092
15129TIP3    H266803   5.369   1.727   0.227  0.0688  1.6370  0.5551
15130TIP3   OH266804   2.266   2.769  11.571  0.3607 -0.7957  0.3716
15130TIP3    H166805   2.188   2.747  11.622  0.4019  0.3998  0.9689
15130TIP3    H266806   2.243   2.744  11.481 -0.1264 -1.8710  0.7706
15131TIP3   OH266807   0.793   4.571  14.927 -0.2913 -0.6867  0.1128
15131TIP3    H166808   0.714   4.622  14.948  0.3492  0.2015  0.3953
15131TIP3    H266809   0.863   4.612  14.977 -0.0066 -2.8184  1.6129
15132TIP3   OH266810   0.531   0.006   6.087  0.2326 -0.2461  0.0204
15132TIP3    H166811   0.476  -0.047   6.145 -1.5234  1.3739 -0.0691
15132TIP3    H266812   0.474   0.077   6.058  2.2150  1.1956 -0.5796
15133TIP3   OH266813   0.774   1.436   1.689 -0.4421  1.0043 -0.0619
15133TIP3    H166814   0.707   1.433   1.621  0.4651 -0.2979 -0.9327
15133TIP3    H266815   0.816   1.521   1.677  0.6253  0.2619 -2.0882
15134TIP3   OH266816   3.959   1.712  12.948  0.4505 -0.0435  0.1726
15134TIP3    H166817   3.897   1.647  12.980 -0.6757  2.1124  2.7405
15134TIP3    H266818   3.905   1.779  12.906  1.1072  1.1865  1.2008
15135TIP3   OH266819   0.701   1.270  12.633  0.5074  0.6327  0.1751
15135TIP3    H166820   0.749   1.205  12.684 -1.2453 -0.0388  1.0453
15135TIP3    H266821   0.697   1.233  12.544  1.9651  0.9311 -0.0357
15136TIP3   OH266822   0.769   0.219   1.671  0.2875 -0.0550 -0.6224
15136TIP3    H166823   0.701   0.157   1.700  0.1264 -0.3536 -1.6046
15136TIP3    H266824   0.848   0.166   1.666  0.9778  0.5966  1.9239
15137TIP3   OH266825   3.176   2.850   4.493  0.1633  0.0577  0.4272
15137TIP3    H166826   3.153   2.812   4.409 -1.2375  0.1038  0.7618
15137TIP3    H266827   3.146   2.941   4.487  1.8540  0.6374  0.2788
15138TIP3   OH266828   3.138   5.156   0.376  0.0344  0.1410 -0.0640
15138TIP3    H166829   3.172   5.086   0.319  0.1893 -1.1300  1.5036
15138TIP3    H266830   3.208   5.220   0.381 -0.0441  0.3629 -1.4017
15139TIP3   OH266831   0.885   2.662   1.982 -0.1563 -0.1514 -0.2041
15139TIP3    H166832   0.924   2.605   2.048  2.0758  0.8749 -0.5569
15139TIP3    H266833   0.905   2.619   1.899  0.0468  0.2934 -0.3840
15140TIP3   OH266834   3.241   2.883   1.544 -0.0849 -0.9224 -0.0214
15140TIP3    H166835   3.200   2.799   1.525  0.3452 -1.1075 -0.1177
15140TIP3    H266836   3.321   2.884   1.493  0.4090 -0.8625  0.7402
15141TIP3   OH266837   3.940   0.930  11.048  0.1489 -0.0630 -0.1603
15141TIP3    H166838   3.920   0.836  11.053  0.7094 -0.1958 -0.2459
15141TIP3    H266839   3.921   0.953  10.957 -0.7606  0.0970  0.0656
15142TIP3   OH266840   2.960   1.037  12.262  0.7207 -0.1761  0.7070
15142TIP3    H166841   3.003   0.969  12.315  0.5801 -0.7766  0.0745
15142TIP3    H266842   3.026   1.106  12.254  1.4218 -0.8776  0.1582
15143TIP3   OH266843   4.373   5.899   3.306  0.1990 -0.3437  0.4964
15143TIP3    H166844   4.356   5.805   3.301 -2.5145  0.1402 -1.5515
15143TIP3    H266845   4.360   5.931   3.217  1.4683  1.9693  1.0484
15144TIP3   OH266846   2.304   2.151   0.810  0.4618 -0.3368  0.2718
15144TIP3    H166847   2.383   2.162   0.863  0.5072  0.0115  0.1357
15144TIP3    H266848   2.234   2.184   0.866  0.1795 -2.0886  1.0105
15145TIP3   OH266849   4.718   5.406  13.653  0.5588  0.4506  0.1357
15145TIP3    H166850   4.736   5.316  13.624  2.0682  1.3214 -1.8705
15145TIP3    H266851   4.667   5.395  13.733 -0.4028 -2.1889 -0.7116
15146TIP3   OH266852   6.553   5.670  16.912  0.3496  0.0145  0.0713
15146TIP3    H166853   6.578   5.669  17.004  0.0871 -1.0145  0.1437
15146TIP3    H266854   6.604   5.599  16.872  1.0562  0.9510 -0.7460
15147TIP3   OH266855   4.098   6.201  12.463  0.0188 -0.3035  0.6695
15147TIP3    H166856   4.049   6.256  12.524  2.1234  1.6462  0.7376
15147TIP3    H266857   4.071   6.231  12.376 -0.7692 -0.9985  0.6720
15148TIP3   OH266858   3.297   6.193  12.233 -0.0930 -0.1355  0.1015
15148TIP3    H166859   3.349   6.261  12.274 -0.0830 -0.3978  0.5208
15148TIP3    H266860   3.317   6.113  12.282 -0.5961 -0.3117  0.0279
15149TIP3   OH266861   4.009   1.819   5.026 -0.7812 -0.1376 -0.2639
15149TIP3    H166862   3.956   1.836   4.948  2.1064  1.0604 -2.1362
15149TIP3    H266863   3.965   1.866   5.096 -0.9259  2.9461 -2.2511
15150TIP3   OH266864   3.929   6.619   0.050  0.2212 -0.2050 -0.1037
15150TIP3    H166865   3.994   6.609   0.119  0.8584  0.9605 -0.5197
15150TIP3    H266866   3.854   6.660   0.093 -0.1234 -1.1967  0.2873
15151TIP3   OH266867   4.375   2.020   4.085 -0.1399  0.0962 -0.2845
15151TIP3    H166868   4.428   1.943   4.108  0.9008  0.8781  0.0059
15151TIP3    H266869   4.427   2.065   4.018  0.2830  1.6326  1.0246
15152TIP3   OH266870   6.581   4.573  11.256  0.5978  0.0585  0.2649
15152TIP3    H166871   6.622   4.645  11.208  0.0961  1.2437  1.5622
15152TIP3    H266872   6.641   4.499  11.242  0.7521  0.4853 -1.6888
15153TIP3   OH266873   2.980   1.525  16.993 -0.6352 -0.1772  0.2290
15153TIP3    H166874   2.996   1.611  16.953  1.6519 -0.6622 -0.0392
15153TIP3    H266875   2.991   1.540  17.087 -0.6141 -0.1162  0.2180
15154TIP3   OH266876   2.924   3.603   3.412  0.2637 -0.3172  0.1206
15154TIP3    H166877   2.915   3.694   3.439 -0.7813 -0.1974 -0.5526
15154TIP3    H266878   2.928   3.554   3.494  0.1611  0.2729  0.4874
15155TIP3   OH266879   3.053   2.723   1.394 -0.0745 -0.3863 -0.3939
15155TIP3    H166880   3.017   2.656   1.337  0.4506  0.1621 -1.3991
15155TIP3    H266881   3.021   2.806   1.358 -1.0357 -0.0858  1.0549
15156TIP3   OH266882   6.123   2.184   2.925 -0.2133  0.1125  0.2561
15156TIP3    H166883   6.090   2.131   2.997  2.1658 -0.5858  0.9241
15156TIP3    H266884   6.114   2.129   2.848 -4.1208  1.3712 -0.4441
15157TIP3   OH266885   0.874   0.182   6.121 -0.1977 -0.0192  0.1663
15157TIP3    H166886   0.958   0.172   6.166 -0.1751 -1.8420 -0.2421
15157TIP3    H266887   0.866   0.277   6.109  2.1990  0.1755 -0.5424
15158TIP3   OH266888   4.990   1.676   6.201 -0.5483  0.2234 -0.0356
15158TIP3    H166889   4.904   1.635   6.199 -1.3262  1.8174 -0.8050
15158TIP3    H266890   5.049   1.610   6.163 -1.3632 -0.9580  0.6916
15159TIP3   OH266891   2.648   6.234   6.125 -0.0822 -0.5449 -0.2329
15159TIP3    H166892   2.598   6.231   6.044  1.3913 -2.1141 -1.1269
15159TIP3    H266893   2.598   6.180   6.186 -0.1486 -1.0285 -0.7169
15160TIP3   OH266894   2.092   4.195   4.101 -0.8125  0.0186 -0.0384
15160TIP3    H166895   2.012   4.143   4.109 -0.4975 -0.4649  0.0394
15160TIP3    H266896   2.118   4.184   4.009 -1.3112  0.8967 -0.2962
15161TIP3   OH266897   2.308   2.448  16.773 -0.4245  0.0262  0.1931
15161TIP3    H166898   2.378   2.436  16.837 -0.1331  0.0250 -0.1242
15161TIP3    H266899   2.295   2.361  16.735 -0.4396  0.0719  0.0914
15162TIP3   OH266900   1.452   4.339   5.657  0.5720 -0.3019  0.0370
15162TIP3    H166901   1.419   4.253   5.684  1.3904 -1.2917 -1.8768
15162TIP3    H266902   1.531   4.352   5.709 -0.1658 -0.1559  1.1532
15163TIP3   OH266903   2.101   5.818   3.167 -0.2333 -0.1628  0.4551
15163TIP3    H166904   2.059   5.861   3.241 -0.3225  0.3257  0.1236
15163TIP3    H266905   2.065   5.729   3.167 -1.4548  0.3113  0.0282
15164TIP3   OH266906   1.692   3.543   0.818 -0.1394 -0.4376  0.1673
15164TIP3    H166907   1.627   3.613   0.828  0.7285  0.5691 -0.9951
15164TIP3    H266908   1.773   3.579   0.855  0.9211  0.1349 -2.4760
15165TIP3   OH266909   0.143   1.769   4.046 -0.0722  0.8900  0.2551
15165TIP3    H166910   0.203   1.814   4.106  0.6231  1.0099 -0.5046
15165TIP3    H266911   0.144   1.678   4.077  0.1414  0.9822  0.5346
15166TIP3   OH266912   1.828   0.103  11.442  0.0416  0.3155  0.2881
15166TIP3    H166913   1.864   0.044  11.376  0.1516 -0.1776  0.7848
15166TIP3    H266914   1.879   0.183  11.434  0.8912 -0.1868  0.6188
15167TIP3   OH266915   4.376   3.752   3.637  0.4120  0.2823 -0.5515
15167TIP3    H166916   4.424   3.785   3.713  0.4958  0.8492 -0.8455
15167TIP3    H266917   4.400   3.660   3.632 -1.4910 -0.4521  1.5871
15168TIP3   OH266918   3.205   4.388   5.861 -0.1654 -0.1489 -0.0652
15168TIP3    H166919   3.269   4.404   5.931  1.6391 -0.6703 -1.5069
15168TIP3    H266920   3.188   4.475   5.825  0.0613 -0.0617  0.0351
15169TIP3   OH266921   3.343   5.784   5.980  0.0915 -0.0007  0.2179
15169TIP3    H166922   3.433   5.818   5.973  0.0093 -0.0786 -1.4732
15169TIP3    H266923   3.350   5.693   5.952 -0.6621  0.2382 -0.7661
15170TIP3   OH266924   2.155   3.590  14.348 -0.5821 -0.2056  0.4705
15170TIP3    H166925   2.102   3.517  14.380 -1.0852 -0.2273 -0.3788
15170TIP3    H266926   2.213   3.551  14.283  0.6211 -0.2120  1.5112
15171TIP3   OH266927   5.719   6.658   2.010 -0.6508  0.0508 -0.3555
15171TIP3    H166928   5.686   6.609   1.935  1.1462 -0.1802 -1.0588
15171TIP3    H266929   5.702   6.750   1.989 -2.0547 -0.1189 -0.0417
15172TIP3   OH266930   2.543   3.705  15.693  0.3844  0.7000  0.0287
15172TIP3    H166931   2.525   3.681  15.783 -1.2208  0.3269 -0.3568
15172TIP3    H266932   2.638   3.715  15.689  0.3634  2.3138  2.1208
15173TIP3   OH266933   3.099   0.000   1.450  0.0216  0.4077 -0.1141
15173TIP3    H166934   3.143  -0.029   1.370 -0.0155  0.5311 -0.1813
15173TIP3    H266935   3.069   0.089   1.429 -2.3883 -0.5045 -0.9635
15174TIP3   OH266936   4.974   0.668  14.748  0.2137  0.3388 -0.1071
15174TIP3    H166937   4.968   0.612  14.826  1.4122  0.5861  0.1876
15174TIP3    H266938   5.054   0.718  14.761 -0.8993  2.2552 -0.3030
15175TIP3   OH266939   3.812   0.317   0.564  0.3461 -0.1070  0.1610
15175TIP3    H166940   3.839   0.345   0.652 -2.0236 -1.1709  1.3348
15175TIP3    H266941   3.794   0.223   0.574 -1.1164 -0.0008 -1.1292
15176TIP3   OH266942   0.927   5.318   4.287 -0.9335 -0.2195 -0.1325
15176TIP3    H166943   0.940   5.316   4.192  2.7215  0.2047  0.1957
15176TIP3    H266944   0.873   5.395   4.302 -1.0783  0.0532 -1.8240
15177TIP3   OH266945   0.878   2.944  13.126  0.4261  0.2031 -0.2395
15177TIP3    H166946   0.902   2.942  13.218  2.8204 -0.4919 -0.8073
15177TIP3    H266947   0.790   2.907  13.123  1.0151 -1.4705  1.5814
15178TIP3   OH266948   4.373   6.079  12.417 -0.1180  0.1867 -0.7222
15178TIP3    H166949   4.304   6.085  12.351 -2.6859 -0.7610  1.6638
15178TIP3    H266950   4.359   6.156  12.473 -2.0906 -2.0133  2.1442
15179TIP3   OH266951   4.647   3.652   2.274  0.4139  0.4148 -0.4399
15179TIP3    H166952   4.609   3.656   2.187  2.3140  0.1981 -1.3395
15179TIP3    H266953   4.740   3.637   2.259  0.9051  1.0089  1.6179
15180TIP3   OH266954   6.600   3.745   2.138  0.2834 -0.1194  0.1997
15180TIP3    H166955   6.654   3.721   2.063  0.2712  0.3770  0.0342
15180TIP3    H266956   6.579   3.661   2.180 -0.5250 -0.4930 -0.9033
15181TIP3   OH266957   4.999   4.668  12.109 -0.4521 -0.2542  0.0730
15181TIP3    H166958   5.015   4.694  12.018 -1.3205  0.3445  0.0777
15181TIP3    H266959   4.992   4.751  12.156 -2.2727 -0.4742  0.2691
15182TIP3   OH266960   5.439   4.510  11.575  0.2674 -0.3321  0.3604
15182TIP3    H166961   5.509   4.536  11.635  1.9248  1.0753 -2.0306
15182TIP3    H266962   5.394   4.592  11.555  1.6965 -0.1495 -2.5815
15183TIP3   OH266963   0.405   4.892   1.040 -0.4779 -0.6080  0.4355
15183TIP3    H166964   0.436   4.950   1.110  1.2917  0.0748 -0.8335
15183TIP3    H266965   0.357   4.948   0.981  0.9933 -0.4181 -0.6472
15184TIP3   OH266966   1.936   1.824   4.098  0.0545 -0.3080  0.0246
15184TIP3    H166967   1.873   1.806   4.168  1.3779  0.2765  1.4154
15184TIP3    H266968   1.919   1.915   4.073 -0.9369 -0.7505 -1.0042
15185TIP3   OH266969   4.810   0.312  13.044  0.1060  0.1744  0.4273
15185TIP3    H166970   4.809   0.257  12.965 -0.0053 -0.2779  0.7435
15185TIP3    H266971   4.775   0.256  13.113  0.1724  0.5808  0.7941
15186TIP3   OH266972   5.082   6.496   0.221  0.2297  0.0301 -0.1973
15186TIP3    H166973   4.992   6.464   0.214  0.7980 -1.3569 -2.4679
15186TIP3    H266974   5.105   6.522   0.131  2.3329 -0.3924  0.1642
15187TIP3   OH266975   3.180   0.786   6.638  0.9198  0.5267  0.2746
15187TIP3    H166976   3.119   0.811   6.707 -0.8651 -0.6570 -0.7870
15187TIP3    H266977   3.146   0.829   6.559  1.2701 -0.3776 -0.3980
15188TIP3   OH266978   6.059   2.369   0.465 -0.0516 -0.5758 -0.0736
15188TIP3    H166979   6.037   2.435   0.399 -1.0721  0.0035  0.7954
15188TIP3    H266980   6.154   2.371   0.470  0.0257 -0.4260 -1.3119
15189TIP3   OH266981   2.362   2.974  15.569  0.5188  0.2813 -0.1468
15189TIP3    H166982   2.429   2.910  15.547  0.0234 -1.3547  2.6652
15189TIP3    H266983   2.401   3.030  15.636 -0.0973  0.9218 -0.3001
15190TIP3   OH266984   2.800   5.289  14.650 -0.3374  0.4399 -0.1113
15190TIP3    H166985   2.797   5.211  14.705 -0.0295  0.1565 -0.4868
15190TIP3    H266986   2.784   5.257  14.561 -2.8680  1.1587  0.0263
15191TIP3   OH266987   4.282   5.416   5.185 -0.4426 -0.0660 -0.2756
15191TIP3    H166988   4.206   5.423   5.128 -0.2564  1.5288 -0.3854
15191TIP3    H266989   4.298   5.506   5.214  2.2296 -0.1025 -1.3704
15192TIP3   OH266990   4.586   4.710  15.005 -0.4186  0.1971 -0.0013
15192TIP3    H166991   4.527   4.722  15.079  0.0429 -0.6233  0.5096
15192TIP3    H266992   4.577   4.791  14.954 -0.5914  0.8594  1.0475
15193TIP3   OH266993   6.753   2.192  16.037  0.8846 -0.0141  0.7664
15193TIP3    H166994   6.738   2.241  16.118  0.7760  0.6375  0.3555
15193TIP3    H266995   6.714   2.246  15.969  1.1657 -0.4598  0.2497
15194TIP3   OH266996   1.255   5.377   5.046 -0.5497  0.2383  0.7392
15194TIP3    H166997   1.300   5.328   4.977  0.8222  1.3896  0.7705
15194TIP3    H266998   1.324   5.426   5.089 -1.4660 -0.0376  2.6103
15195TIP3   OH266999   2.633   2.164   5.697  0.4285  0.1885  0.0446
15195TIP3    H167000   2.581   2.244   5.692  0.3145  0.0678 -1.1729
15195TIP3    H267001   2.573   2.095   5.669  0.3497 -0.4344  1.6508
15196TIP3   OH267002   3.870   3.736   6.769  0.1144 -0.7760  0.5378
15196TIP3    H167003   3.782   3.753   6.802  0.6008 -1.2156  2.1811
15196TIP3    H267004   3.926   3.800   6.813  0.4202  0.8489 -1.9922
15197TIP3   OH267005   1.463   2.829  15.936  0.4766  0.0557  0.9216
15197TIP3    H167006   1.479   2.745  15.892  0.3761 -0.6196  2.1282
15197TIP3    H267007   1.467   2.894  15.866 -0.4693 -1.0569 -0.2243
15198TIP3   OH267008   0.590   2.155   1.948  0.2126  0.3166  0.1916
15198TIP3    H167009   0.682   2.164   1.974 -0.1616  1.4989  1.1908
15198TIP3    H267010   0.562   2.072   1.986  1.2124 -0.7414 -1.2736
15199TIP3   OH267011   5.501   0.006   5.301 -0.1024 -0.1580 -0.8743
15199TIP3    H167012   5.423  -0.042   5.274 -0.3856 -0.8229  1.0055
15199TIP3    H267013   5.479   0.042   5.387  1.9427 -1.1056  0.1118
15200TIP3   OH267014   0.002   4.022  11.711  0.9390 -0.1608 -0.5854
15200TIP3    H167015  -0.044   4.097  11.671  2.4836  0.4355 -1.3406
15200TIP3    H267016  -0.067   3.973  11.756 -0.0988  1.8027  0.0801
15201TIP3   OH267017   5.885   0.755  15.486 -0.0988 -0.1823  0.0529
15201TIP3    H167018   5.953   0.765  15.419 -1.0962  2.9703 -0.6403
15201TIP3    H267019   5.917   0.803  15.561 -1.2187  0.7850 -0.0515
15202TIP3   OH267020   0.945   1.238  13.080  0.7602  0.4345 -0.7062
15202TIP3    H167021   0.985   1.169  13.029  0.6625 -0.3497  0.2382
15202TIP3    H267022   0.888   1.284  13.018  1.2516  0.0299 -1.4725
15203TIP3   OH267023   4.671   0.107   4.051 -0.1231  0.1241 -0.3945
15203TIP3    H167024   4.667   0.026   4.001  1.3958  0.7001 -1.5158
15203TIP3    H267025   4.580   0.129   4.069 -0.6541 -0.7197 -1.9253
15204TIP3   OH267026   6.070   5.884  10.806 -0.1195 -0.6906 -0.1411
15204TIP3    H167027   6.105   5.834  10.733 -1.8475 -1.6362 -0.3799
15204TIP3    H267028   6.115   5.851  10.883  2.7672  1.2904 -0.8230
15205TIP3   OH267029   0.600   1.656   2.159 -0.2969 -0.0418 -1.0245
15205TIP3    H167030   0.674   1.607   2.194 -0.2634 -0.1359 -1.2314
15205TIP3    H267031   0.523   1.609   2.191 -0.3104  0.9793  0.5881
15206TIP3   OH267032   0.600   2.171   5.890  0.1095  0.3824  0.1296
15206TIP3    H167033   0.689   2.142   5.906  0.2359 -0.0901 -1.2638
15206TIP3    H267034   0.599   2.196   5.797 -1.5009 -0.8345 -0.2454
15207TIP3   OH267035   6.419   1.892  12.366  0.1940 -0.2869 -0.4320
15207TIP3    H167036   6.433   1.803  12.397  2.8065  0.2898  0.2781
15207TIP3    H267037   6.417   1.885  12.270 -2.0731 -1.3333 -0.3781
15208TIP3   OH267038   5.589   5.291   1.310  0.7277 -0.8965 -0.6939
15208TIP3    H167039   5.525   5.311   1.242  0.6060 -0.7203 -0.5296
15208TIP3    H267040   5.611   5.199   1.297  0.3224 -1.0015 -0.6531
15209TIP3   OH267041   4.401   5.957   4.475  0.1745  0.0634  0.3123
15209TIP3    H167042   4.345   5.928   4.403 -0.0425  0.5690  0.2785
15209TIP3    H267043   4.487   5.922   4.453  0.2128  0.6197 -0.4334
15210TIP3   OH267044   1.188   1.376   3.456  0.3436  0.2876 -0.5406
15210TIP3    H167045   1.112   1.351   3.509  0.1068  1.3112 -0.3720
15210TIP3    H267046   1.150   1.407   3.374  0.5394  1.2933 -0.2596
15211TIP3   OH267047   6.318   0.009  14.335 -0.1798  0.3753 -0.5774
15211TIP3    H167048   6.307   0.024  14.241  0.2510 -1.1005 -0.8923
15211TIP3    H267049   6.260   0.073  14.377 -2.2222 -0.4854 -1.9157
15212TIP3   OH267050   1.902   4.539   1.312 -0.3977  0.8143 -0.2548
15212TIP3    H167051   1.956   4.482   1.257 -1.3021  0.8955 -1.2612
15212TIP3    H267052   1.934   4.627   1.294 -2.0673  1.0598 -2.3339
15213TIP3   OH267053   3.367   6.469   2.533 -0.4772 -0.0659  0.2265
15213TIP3    H167054   3.397   6.401   2.593 -1.8250  0.3197  1.3803
15213TIP3    H267055   3.280   6.439   2.504  0.2295 -0.3637 -1.7580
15214TIP3   OH267056   0.527   6.108  17.146 -0.3338  0.2731  0.1771
15214TIP3    H167057   0.476   6.069  17.217  1.9055  0.5990  2.1078
15214TIP3    H267058   0.548   6.035  17.088 -0.9785 -0.2861  0.6320
15215TIP3   OH267059   0.313   6.440   1.341  0.3547  0.0283  0.0143
15215TIP3    H167060   0.276   6.471   1.424  0.4954  1.2041 -0.3416
15215TIP3    H267061   0.290   6.508   1.277  2.3906  0.4187 -0.3827
15216TIP3   OH267062   2.348   1.542   2.342 -0.4087  0.1348  0.3504
15216TIP3    H167063   2.363   1.456   2.380  0.7922  0.5749  0.9175
15216TIP3    H267064   2.333   1.599   2.418 -1.9917  0.2936 -0.0567
15217TIP3   OH267065   1.229   1.498   3.777 -0.1852 -0.5075 -0.1871
15217TIP3    H167066   1.226   1.489   3.872 -1.2233 -1.0327 -0.2559
15217TIP3    H267067   1.315   1.536   3.759 -0.3102  0.4119  1.0190
15218TIP3   OH267068   6.333   1.027   4.901 -0.0106  0.2069  0.7600
15218TIP3    H167069   6.342   1.117   4.932  0.1487  0.6807 -0.5807
15218TIP3    H267070   6.257   0.993   4.948 -1.0444  1.5712  0.1277
15219TIP3   OH267071   6.533   6.726  11.565  0.3884 -0.1762 -0.1650
15219TIP3    H167072   6.518   6.719  11.471  1.4575 -0.9103 -0.2978
15219TIP3    H267073   6.461   6.678  11.605  1.3994 -2.2339 -0.7141
15220TIP3   OH267074   3.917   6.061   4.182  1.0425 -0.0533  0.2295
15220TIP3    H167075   3.958   6.035   4.264  1.7073  1.3912  0.3963
15220TIP3    H267076   3.978   6.125   4.144 -0.8551  1.9279  0.3014
15221TIP3   OH267077   1.252   0.713   3.078  0.0374 -0.6496  0.4129
15221TIP3    H167078   1.297   0.699   3.162  0.0622  0.4569  0.6093
15221TIP3    H267079   1.159   0.702   3.099  0.1471 -2.4759  0.1063
15222TIP3   OH267080   1.985   4.935  10.966 -0.2952 -0.5673  0.0545
15222TIP3    H167081   2.062   4.933  10.909  0.7266  1.8790  1.2209
15222TIP3    H267082   2.004   4.871  11.035  0.3205 -0.5551 -0.1011
15223TIP3   OH267083   2.256   3.360  14.255  0.1272 -0.0848  0.0924
15223TIP3    H167084   2.205   3.284  14.283 -0.1668  0.3321  0.7177
15223TIP3    H267085   2.313   3.379  14.329  0.6103 -0.0453 -0.2886
15224TIP3   OH267086   1.501   0.914  13.840 -0.4145 -0.0753  0.1489
15224TIP3    H167087   1.568   0.846  13.830 -0.7748 -0.5058  0.6319
15224TIP3    H267088   1.418   0.867  13.837 -0.7600  0.5819 -1.5256
15225TIP3   OH267089   0.942   6.449   5.114 -0.4210 -0.0989  0.5467
15225TIP3    H167090   0.885   6.374   5.102 -0.3451  0.0455 -1.0691
15225TIP3    H267091   0.882   6.524   5.122 -0.4887 -0.0390 -0.3991
15226TIP3   OH267092   4.749   6.026  13.200  0.0750  0.3138  1.0135
15226TIP3    H167093   4.771   6.008  13.292 -1.4086  0.2450  1.3767
15226TIP3    H267094   4.687   6.099  13.203  0.2191  0.4925  0.0471
15227TIP3   OH267095   5.557   3.230  15.990  0.0834  0.0474 -0.6336
15227TIP3    H167096   5.531   3.188  16.073  2.9874  0.1841  0.4374
15227TIP3    H267097   5.615   3.301  16.016 -0.7082  1.5502 -2.7299
15228TIP3   OH267098   0.616   0.116  11.783 -0.7182  0.8089  0.6222
15228TIP3    H167099   0.550   0.046  11.786  1.7155 -1.7087 -0.2078
15228TIP3    H267100   0.646   0.123  11.874 -1.7914  1.7026  0.9337
15229TIP3   OH267101   6.179   4.572   4.143 -0.2341  0.6158  0.6372
15229TIP3    H167102   6.250   4.567   4.208 -0.0076 -1.0485  0.2938
15229TIP3    H267103   6.110   4.620   4.188  1.4518  3.2940  0.6102
15230TIP3   OH267104   2.803   6.041  14.656 -0.3771 -0.0040 -0.1821
15230TIP3    H167105   2.881   6.027  14.603 -0.2410  0.3929 -0.0855
15230TIP3    H267106   2.794   5.960  14.706 -0.4793 -0.3615 -0.7690
15231TIP3   OH267107   0.926   0.065  12.542 -0.0606  0.1486 -0.1875
15231TIP3    H167108   0.904   0.067  12.635 -1.5528  0.5355 -0.5194
15231TIP3    H267109   0.964  -0.022  12.528  0.1578  0.0809  0.7694
15232TIP3   OH267110   2.001   4.643   4.706 -0.0626 -0.0961  0.4716
15232TIP3    H167111   2.015   4.559   4.749  1.4957 -1.8115 -2.9317
15232TIP3    H267112   2.080   4.694   4.727 -1.0521  0.6796  2.6171
15233TIP3   OH267113   0.137   5.335  12.297 -0.1114  0.1090 -0.3819
15233TIP3    H167114   0.094   5.279  12.362 -0.4697  0.1080 -0.6168
15233TIP3    H267115   0.079   5.332  12.221  1.3808 -1.6396 -1.5157
15234TIP3   OH267116   4.377   1.715   2.502 -0.0376 -0.1703  0.3118
15234TIP3    H167117   4.322   1.686   2.574  0.4518 -1.7293  0.0934
15234TIP3    H267118   4.318   1.760   2.442 -1.2561 -2.4647 -0.2926
15235TIP3   OH267119   4.540   6.107  14.032  0.1666 -0.1387 -0.3701
15235TIP3    H167120   4.612   6.055  13.996  1.6770  1.9660 -0.5938
15235TIP3    H267121   4.490   6.135  13.956 -0.5862 -1.1137 -0.2570
15236TIP3   OH267122   3.425   2.712  14.409 -0.4576 -0.2410  0.8922
15236TIP3    H167123   3.404   2.638  14.466  0.0700 -0.3231  0.9857
15236TIP3    H267124   3.344   2.729  14.360 -0.9464 -0.1036  1.7337
15237TIP3   OH267125   0.703   3.425   5.506 -0.1215  0.4727  0.3048
15237TIP3    H167126   0.633   3.487   5.486 -0.4764 -0.1402 -0.3983
15237TIP3    H267127   0.704   3.366   5.431 -0.2963 -0.8374  1.3102
15238TIP3   OH267128   3.009   0.181  17.058 -0.4871 -0.2420  0.0317
15238TIP3    H167129   3.040   0.209  16.972  1.2542 -2.3351 -0.1053
15238TIP3    H267130   3.085   0.193  17.116 -0.6137 -1.7786  0.5633
15239TIP3   OH267131   4.549   1.956   1.626  0.6069  0.1504  0.4009
15239TIP3    H167132   4.517   1.869   1.604 -0.1947 -0.0097  2.0520
15239TIP3    H267133   4.589   1.946   1.713  2.1502  1.0621 -0.1596
15240TIP3   OH267134   0.713   0.594  14.628 -0.0656  0.0872 -0.0997
15240TIP3    H167135   0.781   0.527  14.621  0.5665  0.5818  1.0294
15240TIP3    H267136   0.707   0.612  14.722 -1.2432  0.5824 -0.2539
15241TIP3   OH267137   3.508   2.867  13.258  0.0650  0.1641  0.0391
15241TIP3    H167138   3.482   2.830  13.343  1.2564  0.6207  0.6275
15241TIP3    H267139   3.495   2.962  13.268 -0.4145  0.1637 -0.5255
15242TIP3   OH267140   2.660   0.461  16.734 -0.4313  0.3639 -0.0630
15242TIP3    H167141   2.629   0.515  16.661 -1.1840 -1.6524 -1.2890
15242TIP3    H267142   2.740   0.505  16.763 -1.2987  2.4463 -0.6135
15243TIP3   OH267143   3.421   4.439  16.055  0.5168  0.1315  0.7195
15243TIP3    H167144   3.334   4.400  16.049 -0.2538  1.9567 -1.8201
15243TIP3    H267145   3.481   4.367  16.038 -0.7581 -0.3866 -2.0947
15244TIP3   OH267146   4.970   3.011  16.461  0.5279 -0.6701 -0.3207
15244TIP3    H167147   4.964   3.053  16.546 -0.0606 -1.6309  0.1202
15244TIP3    H267148   4.990   2.920  16.481 -0.5376 -1.1027 -1.1757
15245TIP3   OH267149   3.053   0.876   1.094 -0.3707 -0.4389  0.1876
15245TIP3    H167150   2.978   0.879   1.154 -0.6951 -0.5095 -0.2063
15245TIP3    H267151   3.119   0.931   1.135 -1.1474  0.7859 -0.1418
15246TIP3   OH267152   2.631   6.211  13.435 -0.2270  0.0880  0.2457
15246TIP3    H167153   2.649   6.119  13.453 -0.4173  0.4739  2.8858
15246TIP3    H267154   2.717   6.254  13.444 -0.3505  0.3208  0.3253
15247TIP3   OH267155   5.886   4.161  13.415  0.1514 -0.0900  0.2244
15247TIP3    H167156   5.848   4.166  13.502 -1.4778 -0.2494 -0.4301
15247TIP3    H267157   5.824   4.107  13.365  0.1577  1.3682 -1.4539
15248TIP3   OH267158   6.748   1.421  15.504  0.0536  0.1693 -0.1558
15248TIP3    H167159   6.756   1.376  15.588 -0.4828  1.0520  0.3873
15248TIP3    H267160   6.838   1.425  15.470 -0.0532 -2.7141 -1.0229
15249TIP3   OH267161   1.785   4.854  13.488 -0.4101  0.1877  0.1961
15249TIP3    H167162   1.702   4.808  13.473 -2.0212  2.7163  0.5922
15249TIP3    H267163   1.838   4.834  13.411 -1.8467 -0.6229 -0.6227
15250TIP3   OH267164   4.007   0.191   1.061  0.8448 -0.2405 -0.6622
15250TIP3    H167165   4.059   0.125   1.107 -0.3892 -0.7514  0.0350
15250TIP3    H267166   3.923   0.192   1.107  0.1952  0.4958 -1.8205
15251TIP3   OH267167   1.259   2.250  15.415 -0.2820  0.2860  0.3374
15251TIP3    H167168   1.277   2.157  15.430  3.2506  1.0000  1.6341
15251TIP3    H267169   1.339   2.283  15.374 -2.3877  2.3729 -2.4651
15252TIP3   OH267170   1.856   2.943   5.973 -0.1312  0.4066  0.8185
15252TIP3    H167171   1.764   2.916   5.966 -0.4478  1.4792  0.5599
15252TIP3    H267172   1.884   2.911   6.059  0.1409 -2.4122 -0.2268
15253TIP3   OH267173   5.527   3.819  12.811  0.5949 -0.5971 -0.0548
15253TIP3    H167174   5.435   3.809  12.786  0.3730  0.8966  0.1091
15253TIP3    H267175   5.575   3.771  12.744 -0.0883  1.9261 -2.5537
15254TIP3   OH267176   5.430   3.881  17.037  0.1737 -0.0500  0.3314
15254TIP3    H167177   5.428   3.804  17.094  0.4950  0.1215  0.5744
15254TIP3    H267178   5.454   3.846  16.951  0.6465 -0.1834  0.5113
15255TIP3   OH267179   6.394   0.037   3.022  0.1859 -0.0436 -0.0397
15255TIP3    H167180   6.427   0.085   3.098  1.4051  0.2940 -0.7508
15255TIP3    H267181   6.334  -0.027   3.058  0.0159  0.7432  1.1180
15256TIP3   OH267182   2.615   4.086  13.140 -0.0603  0.1703 -0.0900
15256TIP3    H167183   2.683   4.141  13.179 -0.6650  1.4895 -0.8004
15256TIP3    H267184   2.627   4.000  13.180  0.3414  1.0493  1.7826
15257TIP3   OH267185   3.812   6.499  11.271  0.5558  0.0850 -0.1950
15257TIP3    H167186   3.818   6.458  11.357  2.2747  1.4306  0.3710
15257TIP3    H267187   3.758   6.577  11.286 -0.2582 -0.3768 -0.6473
15258TIP3   OH267188   2.407   5.913   3.390  0.0405  0.2226 -0.5546
15258TIP3    H167189   2.328   5.866   3.414 -0.7680  1.9772  0.4898
15258TIP3    H267190   2.427   5.966   3.468  0.9225  1.5145 -1.6145
15259TIP3   OH267191   6.102   4.536   2.260 -0.1293 -0.2338  0.2935
15259TIP3    H167192   6.078   4.449   2.291  1.1273 -0.8508 -0.4187
15259TIP3    H267193   6.131   4.582   2.339 -1.5501 -0.1511  0.8105
15260TIP3   OH267194   2.233   5.524   0.895  0.5039 -0.5670 -0.2325
15260TIP3    H167195   2.186   5.527   0.812 -1.4160 -2.1324  0.7121
15260TIP3    H267196   2.174   5.565   0.958  1.5301 -0.2493  0.5592
15261TIP3   OH267197   4.161   2.453   3.521 -0.0915  0.3396  0.0932
15261TIP3    H167198   4.078   2.406   3.527  0.3452 -0.3533  0.8524
15261TIP3    H267199   4.223   2.401   3.572  0.1368  2.3765  2.0337
15262TIP3   OH267200   3.343   1.226  12.012 -0.3300  0.0672 -0.0348
15262TIP3    H167201   3.311   1.137  12.027  1.3215 -1.0592 -2.4887
15262TIP3    H267202   3.417   1.235  12.073 -0.6232 -0.1431  0.3586
15263TIP3   OH267203   5.746   6.630  17.132  0.1194 -0.2860 -0.7232
15263TIP3    H167204   5.711   6.660  17.216 -0.7344  1.4299 -1.6446
15263TIP3    H267205   5.834   6.600  17.152  0.0402  0.3921  0.7464
15264TIP3   OH267206   6.334   0.096  13.637 -0.0689 -0.1528 -0.6670
15264TIP3    H167207   6.248   0.076  13.600 -0.3729  0.3317 -0.2503
15264TIP3    H267208   6.387   0.124  13.563  0.2921 -2.2054 -1.2206
15265TIP3   OH267209   2.134   0.596  13.365 -0.0594  0.9262  0.3013
15265TIP3    H167210   2.218   0.578  13.407 -0.3904  1.8144  1.3775
15265TIP3    H267211   2.154   0.596  13.272  0.4449 -2.4303  0.2755
15266TIP3   OH267212   2.422   1.384  12.511  0.2951 -0.2160 -0.7571
15266TIP3    H167213   2.497   1.359  12.457  1.1522 -1.1269  0.7814
15266TIP3    H267214   2.428   1.479  12.518  1.0304 -0.2341 -1.0443
15267TIP3   OH267215   1.717   5.256  14.295 -0.0011 -0.3670  0.2096
15267TIP3    H167216   1.762   5.309  14.360 -2.3240  1.6848  0.2885
15267TIP3    H267217   1.689   5.178  14.343 -1.0014  0.7567  1.5310
15268TIP3   OH267218   2.933   0.785  12.450  0.2654  0.2191 -0.2797
15268TIP3    H167219   2.896   0.715  12.396 -1.0051  0.7831 -0.1690
15268TIP3    H267220   3.020   0.752  12.475 -0.4368 -1.4726  0.0762
15269TIP3   OH267221   2.908   2.014  11.709  0.1876 -0.0610  0.1249
15269TIP3    H167222   2.888   1.959  11.634  1.3974  2.3141 -2.0724
15269TIP3    H267223   2.833   2.073  11.715  1.9358  2.6509 -2.1706
15270TIP3   OH267224   5.250   4.390   1.076  0.4793  0.4956  0.6970
15270TIP3    H167225   5.338   4.359   1.055  0.4577  1.1988 -0.5849
15270TIP3    H267226   5.192   4.318   1.052  0.6495  0.3341  0.7731
15271TIP3   OH267227   4.215   4.499   6.381 -0.0486 -0.9186 -0.0120
15271TIP3    H167228   4.136   4.461   6.418 -1.1649  0.3100 -1.0528
15271TIP3    H267229   4.233   4.575   6.438 -0.8320  0.0121 -0.9701
15272TIP3   OH267230   3.403   3.684  14.573 -0.1241  0.0407 -0.0738
15272TIP3    H167231   3.444   3.622  14.633  0.5618 -1.4329 -1.9755
15272TIP3    H267232   3.424   3.770  14.610  1.9755 -0.7524  0.7510
15273TIP3   OH267233   5.535   5.272  15.168 -0.0481 -0.5612  0.0336
15273TIP3    H167234   5.533   5.250  15.075 -0.7661 -1.0629  0.1548
15273TIP3    H267235   5.445   5.299  15.188 -0.5296 -2.6364  1.0572
15274TIP3   OH267236   4.602   4.935  13.058  0.0593  0.3054 -0.3167
15274TIP3    H167237   4.550   4.886  12.994  1.3470  0.7546 -1.7549
15274TIP3    H267238   4.593   4.885  13.139 -0.7583 -0.8592 -1.0866
15275TIP3   OH267239   6.140   4.666   2.491  0.2063  0.6246  0.6845
15275TIP3    H167240   6.117   4.759   2.493 -3.1406  0.0003 -0.8067
15275TIP3    H267241   6.197   4.653   2.566 -1.9116  3.2817  2.9665
15276TIP3   OH267242   3.330   3.773  12.581  0.1088 -0.1391 -0.0301
15276TIP3    H167243   3.375   3.850  12.546  1.1663 -0.3998  0.7243
15276TIP3    H267244   3.280   3.738  12.506 -0.2307  1.1502 -0.4279
15277TIP3   OH267245   4.622   1.711   3.159  0.2486  1.2163 -0.2704
15277TIP3    H167246   4.696   1.744   3.106  1.3038  0.8291  0.9074
15277TIP3    H267247   4.636   1.617   3.163 -1.0288  0.9809 -1.0568
15278TIP3   OH267248   3.900   0.656   3.288  0.7334 -0.0171  0.2025
15278TIP3    H167249   3.866   0.709   3.216 -0.6621  0.8225  1.3966
15278TIP3    H267250   3.900   0.567   3.254  0.8070  0.4480 -1.0704
15279TIP3   OH267251   1.240   5.893   0.209  0.2846 -0.1808  0.3903
15279TIP3    H167252   1.204   5.976   0.241 -1.8536 -0.5102 -1.0038
15279TIP3    H267253   1.307   5.870   0.273 -1.3484  0.9541  2.6372
15280TIP3   OH267254   4.345   1.000  13.890  0.2799  0.1809 -0.4009
15280TIP3    H167255   4.256   0.966  13.883  1.0295 -1.8173 -1.0919
15280TIP3    H267256   4.337   1.094  13.874 -1.8651  0.2860  0.9860
15281TIP3   OH267257   4.875   5.437   0.050  0.4505 -0.4188  0.2983
15281TIP3    H167258   4.864   5.343   0.056  0.5656 -0.4456  0.1180
15281TIP3    H267259   4.787   5.473   0.060  0.2218 -0.6091 -0.8313
15282TIP3   OH267260   6.457   0.900   3.075 -0.0842 -0.7291  0.0560
15282TIP3    H167261   6.413   0.873   2.994 -2.1425  0.4627  0.7057
15282TIP3    H267262   6.416   0.848   3.144 -1.0673  0.9086  0.7718
15283TIP3   OH267263   4.044   5.618   0.439  0.2903 -0.9948 -0.4500
15283TIP3    H167264   4.120   5.583   0.393 -0.1273 -1.9924 -0.4078
15283TIP3    H267265   4.079   5.688   0.494  0.9778 -0.6224 -1.3555
15284TIP3   OH267266   5.672   1.969   0.117  0.5936 -0.1339  0.3429
15284TIP3    H167267   5.706   1.911   0.048  0.4615 -0.7763  0.8042
15284TIP3    H267268   5.739   2.037   0.126  1.6926 -1.2613  1.0964
15285TIP3   OH267269   4.474   1.765  15.860 -0.7995  0.0726  0.0325
15285TIP3    H167270   4.562   1.795  15.881 -1.5141  1.3980  1.2757
15285TIP3    H267271   4.429   1.843  15.827 -1.5582 -0.5520 -0.4438
15286TIP3   OH267272   0.150   4.741  15.002 -0.0626  0.0270  0.4918
15286TIP3    H167273   0.091   4.668  14.983 -1.9648  0.4288  4.0138
15286TIP3    H267274   0.226   4.701  15.043 -0.7066 -0.0960  1.5988
15287TIP3   OH267275   4.608   1.577  12.766 -0.1553  0.3163 -0.0375
15287TIP3    H167276   4.579   1.628  12.691  0.8132  0.0933 -0.5763
15287TIP3    H267277   4.646   1.641  12.826 -1.0755  0.5160  0.3549
15288TIP3   OH267278   5.442   6.753  10.476 -0.2559  0.1728  0.3341
15288TIP3    H167279   5.478   6.687  10.536  0.2578 -0.7741 -0.9890
15288TIP3    H267280   5.374   6.706  10.427 -0.3121  0.8060 -0.2004
15289TIP3   OH267281   1.297   2.121  13.844 -0.5018  0.1058 -0.4055
15289TIP3    H167282   1.351   2.089  13.916 -2.2455  0.9207  1.3372
15289TIP3    H267283   1.359   2.168  13.787  0.6232  1.2705  1.6593
15290TIP3   OH267284   4.947   1.451   2.443  0.5213 -0.3496  0.5249
15290TIP3    H167285   4.863   1.492   2.460  0.3369  0.2127 -1.4718
15290TIP3    H267286   4.948   1.374   2.500 -0.9259  0.1294  1.2465
15291TIP3   OH267287   4.097   4.012   1.015  0.6192  0.1964 -0.2039
15291TIP3    H167288   4.084   3.997   0.922  1.7527  0.9402 -0.4932
15291TIP3    H267289   4.109   4.106   1.023  0.4584  0.1500  0.7138
15292TIP3   OH267290   1.562   4.579   1.688 -0.0674  0.3681 -0.3687
15292TIP3    H167291   1.489   4.598   1.746  0.6656  1.8536  0.1370
15292TIP3    H267292   1.607   4.505   1.729  0.1763  1.1026  0.7513
15293TIP3   OH267293   2.222   4.553   2.477 -0.4150  0.2696  0.4546
15293TIP3    H167294   2.255   4.631   2.522 -0.5370 -0.0107  1.0400
15293TIP3    H267295   2.171   4.507   2.543  0.8362 -1.0558  0.5620
15294TIP3   OH267296   0.529   5.255   2.784 -0.0675  0.0792 -0.2432
15294TIP3    H167297   0.559   5.206   2.707  2.5387  0.1954  0.6034
15294TIP3    H267298   0.607   5.300   2.816 -0.9950 -0.0725  2.5537
15295TIP3   OH267299   5.857   4.472  13.065  0.4077 -0.5119 -0.3435
15295TIP3    H167300   5.899   4.474  13.151  0.6270  0.1703 -0.4622
15295TIP3    H267301   5.773   4.427  13.080 -0.0600  0.5796  0.4578
15296TIP3   OH267302   1.150   5.281  17.264 -0.2232 -0.2612 -0.4106
15296TIP3    H167303   1.109   5.263  17.179  1.6312  0.1968 -1.4808
15296TIP3    H267304   1.092   5.345  17.305 -1.0025 -0.2420 -1.4843
15297TIP3   OH267305   1.558   2.307  15.057 -0.4003 -0.0057  0.7184
15297TIP3    H167306   1.500   2.382  15.047  0.6366  0.9973  1.9800
15297TIP3    H267307   1.633   2.325  15.000 -1.3866 -1.4477 -1.1545
15298TIP3   OH267308   2.575   3.141   0.349 -0.1427  0.2762 -0.0301
15298TIP3    H167309   2.583   3.103   0.261 -0.5470 -0.1475  0.1105
15298TIP3    H267310   2.606   3.231   0.339  0.4125  0.0458 -0.4676
15299TIP3   OH267311   4.509   2.691   4.060  0.2830 -0.4577  0.2619
15299TIP3    H167312   4.490   2.668   4.152 -2.3168  1.2137  0.2681
15299TIP3    H267313   4.426   2.674   4.014  1.3049 -0.5249 -1.6412
15300TIP3   OH267314   5.336   4.213  16.759  0.7294 -0.4516 -0.0441
15300TIP3    H167315   5.266   4.189  16.698  0.1104  0.4590  0.3000
15300TIP3    H267316   5.404   4.146  16.745  1.3553  0.6549 -2.9381
15301TIP3   OH267317   0.141   0.100  13.468  0.0658 -0.0661  0.7531
15301TIP3    H167318   0.146   0.122  13.561  1.2606  0.0798  0.6664
15301TIP3    H267319   0.213   0.038  13.454  0.3874  0.5122 -0.2371
15302TIP3   OH267320   3.055   2.156  12.737  0.5237  0.2407  0.4143
15302TIP3    H167321   3.085   2.072  12.704  0.7983  0.4519  0.1149
15302TIP3    H267322   3.106   2.171  12.817  1.5130  0.7717 -0.2945
15303TIP3   OH267323   5.387   6.054  17.192 -0.2305  0.5191 -0.1265
15303TIP3    H167324   5.365   6.079  17.103 -1.1549 -1.7917 -0.6290
15303TIP3    H267325   5.304   6.055  17.239 -0.2145 -0.7605 -0.0137
15304TIP3   OH267326   2.773   5.412  14.945 -0.3184  0.4689 -0.0158
15304TIP3    H167327   2.679   5.398  14.961 -0.1411  0.1820  0.8310
15304TIP3    H267328   2.814   5.330  14.972  0.3615  1.2406  1.4017
15305TIP3   OH267329   5.007   6.026  14.107 -0.2075 -0.4594 -0.5122
15305TIP3    H167330   4.953   6.094  14.067 -0.0538  0.6808  1.1431
15305TIP3    H267331   4.976   5.945  14.066 -1.6377  0.3898 -1.2171
15306TIP3   OH267332   5.957   2.184  11.960  0.4535 -0.1034 -0.6192
15306TIP3    H167333   5.868   2.169  11.993  0.1591  0.1085 -1.3117
15306TIP3    H267334   6.003   2.222  12.035 -0.0741 -0.0948 -0.2928
15307TIP3   OH267335   4.929   0.595  16.615  0.0534 -0.2443 -0.3124
15307TIP3    H167336   4.846   0.621  16.655  1.1155  1.2809  1.0513
15307TIP3    H267337   4.910   0.589  16.522 -1.4991  0.4634 -0.0786
15308TIP3   OH267338   3.181   5.078   1.216 -0.5535  0.1574  0.1015
15308TIP3    H167339   3.268   5.051   1.245  0.3763  2.2943 -0.4957
15308TIP3    H267340   3.123   5.058   1.290  0.7902  0.4614  1.2631
15309TIP3   OH267341   2.309   3.009  14.183  0.1319  0.0959 -0.3410
15309TIP3    H167342   2.233   2.988  14.237  0.4881 -1.0331 -0.2559
15309TIP3    H267343   2.274   3.067  14.114 -0.6580  0.1480  0.0907
15310TIP3   OH267344   6.563   0.663   2.640  0.5831 -0.4242  0.0143
15310TIP3    H167345   6.474   0.643   2.611  0.0132  1.4111  0.3934
15310TIP3    H267346   6.607   0.698   2.563  1.2433 -1.9861 -0.3625
15311TIP3   OH267347   2.378   2.239  16.413 -0.2767  0.6241  0.0413
15311TIP3    H167348   2.383   2.156  16.364 -0.3248  1.1196 -0.8341
15311TIP3    H267349   2.464   2.247  16.455  0.7496  1.4066 -2.0487
15312TIP3   OH267350   1.652   4.889   5.746 -0.1892  0.0044 -0.2510
15312TIP3    H167351   1.677   4.981   5.752 -0.5300  0.2307 -1.9152
15312TIP3    H267352   1.735   4.843   5.732 -0.3488  0.5277 -3.5614
15313TIP3   OH267353   2.790   1.239  13.084  0.3808 -0.6259  0.0981
15313TIP3    H167354   2.824   1.191  13.008  2.2863  0.0538  0.4689
15313TIP3    H267355   2.748   1.317  13.047  2.1177  0.1818 -0.2470
15314TIP3   OH267356   6.203   0.086   3.273  0.3100 -1.1061 -0.6765
15314TIP3    H167357   6.147   0.144   3.323 -0.7390 -1.7591 -1.0581
15314TIP3    H267358   6.288   0.129   3.272  0.7147 -1.5623  2.5606
15315TIP3   OH267359   0.110   0.342  14.384  0.0116 -0.5795 -0.1662
15315TIP3    H167360   0.122   0.436  14.371  0.2240 -0.5105  0.4928
15315TIP3    H267361   0.175   0.318  14.450 -0.5564 -1.0300  0.2479
15316TIP3   OH267362   2.419   3.164   5.485 -0.2722 -0.0597  0.1733
15316TIP3    H167363   2.353   3.204   5.542 -1.6738 -0.9024 -0.7731
15316TIP3    H267364   2.448   3.235   5.428  0.2853  0.5126  1.1385
15317TIP3   OH267365   6.209   5.095  13.824 -0.1152 -0.1911  0.0205
15317TIP3    H167366   6.143   5.043  13.778 -0.3280 -1.2909  1.4839
15317TIP3    H267367   6.159   5.145  13.889  0.3742 -0.1998  0.4104
15318TIP3   OH267368   0.929   6.706   3.975  0.2566 -0.3734  0.5834
15318TIP3    H167369   0.975   6.718   3.892 -1.0149 -1.0748 -0.2508
15318TIP3    H267370   0.996   6.675   4.035  0.5780 -3.2177 -1.0853
15319TIP3   OH267371   2.413   6.533   1.486  0.7319  0.0510  0.3449
15319TIP3    H167372   2.480   6.484   1.535  0.9771 -0.2303 -0.2588
15319TIP3    H267373   2.409   6.489   1.401  0.2767  0.5047  0.1280
15320TIP3   OH267374   1.977   3.436   0.194 -0.7469  0.5637 -0.6529
15320TIP3    H167375   2.038   3.404   0.127 -1.7330 -1.6448 -0.5553
15320TIP3    H267376   2.029   3.438   0.274 -0.3481  0.3951 -0.9028
15321TIP3   OH267377   2.674   1.251   5.602  0.2117  0.5100 -0.1721
15321TIP3    H167378   2.749   1.310   5.605  0.6357  0.0148 -0.7644
15321TIP3    H267379   2.711   1.166   5.578 -0.5412  0.2609 -0.4880
15322TIP3   OH267380   4.409   1.985  11.640 -0.6711 -0.0674  0.0451
15322TIP3    H167381   4.401   1.962  11.547  0.5120  1.5767 -0.5044
15322TIP3    H267382   4.333   2.040  11.658 -0.5006  0.2408 -0.1649
15323TIP3   OH267383   5.512   0.456   4.303 -0.2301  0.0143 -0.0718
15323TIP3    H167384   5.451   0.529   4.290  1.2528  1.4485  0.6384
15323TIP3    H267385   5.599   0.497   4.306  0.7393 -1.8796 -0.4228
15324TIP3   OH267386   4.507   5.192   6.731 -0.4667  0.4864 -0.4838
15324TIP3    H167387   4.565   5.133   6.780  1.0790  1.1173 -1.4668
15324TIP3    H267388   4.476   5.140   6.657 -2.6398 -0.4027  0.9433
15325TIP3   OH267389   1.989   2.402   2.648  0.5490 -0.0872 -0.2151
15325TIP3    H167390   1.948   2.318   2.627 -0.7176  0.3172  0.5302
15325TIP3    H267391   1.946   2.465   2.590  1.1839  0.1288 -0.4635
15326TIP3   OH267392   0.810   2.687   5.759 -0.0912  0.2564 -0.2153
15326TIP3    H167393   0.731   2.662   5.805 -0.5431  0.7258 -0.7204
15326TIP3    H267394   0.865   2.730   5.825 -0.4523  0.3369  0.0314
15327TIP3   OH267395   4.293   5.538  14.265 -0.1706  0.0570  0.5690
15327TIP3    H167396   4.266   5.598  14.195 -1.0045 -1.0704 -0.1216
15327TIP3    H267397   4.211   5.511  14.306  0.3482  1.2106  2.4642
15328TIP3   OH267398   6.261   3.618  15.677 -0.5972  0.2537  0.8293
15328TIP3    H167399   6.168   3.625  15.656 -1.3284  3.0994  4.0674
15328TIP3    H267400   6.270   3.535  15.723 -1.7357  0.3817  1.3035
15329TIP3   OH267401   1.394   4.788   5.806 -0.0897 -0.0012  0.0362
15329TIP3    H167402   1.478   4.826   5.781 -0.7705  0.5617 -1.5579
15329TIP3    H267403   1.350   4.856   5.856 -0.1947  0.2839 -0.4377
15330TIP3   OH267404   0.150   5.880   1.915 -0.4384 -0.1129 -0.2881
15330TIP3    H167405   0.238   5.852   1.890  0.1413 -0.7652  2.1512
15330TIP3    H267406   0.162   5.926   1.998 -2.4586 -1.1856  0.6942
15331TIP3   OH267407   5.847   4.972   5.404  0.5754 -0.5361 -0.6562
15331TIP3    H167408   5.843   4.886   5.363  1.6779 -0.5126 -0.8440
15331TIP3    H267409   5.880   5.030   5.335  0.6559 -0.1304 -0.2855
15332TIP3   OH267410   2.813   3.342  15.442  0.1466  0.0020  0.0939
15332TIP3    H167411   2.829   3.369  15.351 -1.6178 -0.1308 -0.3031
15332TIP3    H267412   2.841   3.251  15.445 -1.4467 -0.5621 -0.8619
15333TIP3   OH267413   2.082   1.579   0.839  0.1268 -0.0327 -0.0886
15333TIP3    H167414   2.145   1.511   0.816  1.0871  1.2038 -1.3190
15333TIP3    H267415   2.106   1.653   0.784 -0.6046  1.4616  1.4968
15334TIP3   OH267416   4.910   4.366  14.107 -0.1690 -0.1690 -0.3300
15334TIP3    H167417   4.927   4.321  14.190  0.6714 -0.8771 -0.8590
15334TIP3    H267418   4.967   4.443  14.109 -1.8523  1.1138  0.7198
15335TIP3   OH267419   4.946   3.855   4.350 -0.2228 -0.1750 -0.2002
15335TIP3    H167420   4.888   3.904   4.409 -1.1917 -2.3535  0.7722
15335TIP3    H267421   5.024   3.837   4.403  0.5137  0.9888 -0.8406
15336TIP3   OH267422   4.987   2.936  14.972  0.1553  0.1525 -0.1831
15336TIP3    H167423   5.040   2.950  15.051 -1.4963 -2.7678  1.6484
15336TIP3    H267424   5.037   2.873  14.921 -0.4723 -0.9313  0.4905
15337TIP3   OH267425   0.174   6.526  15.860 -0.2702 -0.1415 -0.6986
15337TIP3    H167426   0.234   6.512  15.787  0.4374  0.1188 -0.1831
15337TIP3    H267427   0.158   6.439  15.895 -0.0125 -0.1904 -0.7024
15338TIP3   OH267428   3.805   0.987   5.707 -0.5033  0.3517  0.1380
15338TIP3    H167429   3.715   1.019   5.701  0.0825  2.1936  0.6086
15338TIP3    H267430   3.838   0.991   5.618 -0.7135  0.1665  0.0494
15339TIP3   OH267431   0.323   5.432   0.055  0.1050  0.6156 -0.4127
15339TIP3    H167432   0.415   5.406   0.064  0.0164  0.7356  1.0537
15339TIP3    H267433   0.293   5.388  -0.025  1.8992  1.9478 -1.9272
15340TIP3   OH267434   5.341   4.425  12.345  0.0794  0.2452  0.6541
15340TIP3    H167435   5.411   4.427  12.410 -0.7424  1.8299  1.5309
15340TIP3    H267436   5.381   4.385  12.268  1.1639 -1.4185  2.0046
15341TIP3   OH267437   6.349   4.573   5.040 -0.0292 -0.2044  0.7540
15341TIP3    H167438   6.313   4.510   5.102 -1.2626 -0.7420 -0.4479
15341TIP3    H267439   6.439   4.587   5.070  0.0124 -1.8848  1.5595
15342TIP3   OH267440   6.365   0.972   5.256  0.1527 -0.0807 -0.1401
15342TIP3    H167441   6.327   1.060   5.254  1.1638  0.3681 -1.3272
15342TIP3    H267442   6.293   0.914   5.231 -0.4359  0.4509  0.3144
15343TIP3   OH267443   3.835   2.116   4.421  0.1120  0.1386  0.5554
15343TIP3    H167444   3.927   2.138   4.404 -0.2251  0.8943 -0.4177
15343TIP3    H267445   3.787   2.196   4.398 -0.8138 -0.3324  0.7992
15344TIP3   OH267446   1.892   3.231  14.091  0.1557  0.3783  0.0315
15344TIP3    H167447   1.904   3.322  14.065 -0.4823  0.9348  1.6199
15344TIP3    H267448   1.955   3.217  14.161  0.8622 -0.6874 -0.7795
15345TIP3   OH267449   4.451   0.771  16.489  0.5950  0.4917  0.2991
15345TIP3    H167450   4.464   0.858  16.528 -0.3045 -0.0558  1.9338
15345TIP3    H267451   4.516   0.716  16.532 -0.9805 -0.3087  1.7453
15346TIP3   OH267452   6.277   5.298  12.588 -0.3281 -0.2670  0.3798
15346TIP3    H167453   6.308   5.365  12.650 -0.5499  1.1034 -0.9268
15346TIP3    H267454   6.355   5.273  12.539 -0.5083  0.0724 -0.0799
15347TIP3   OH267455   3.504   6.300   4.201 -0.2477  0.5602 -0.8288
15347TIP3    H167456   3.559   6.223   4.213 -0.4747  0.5665  0.3114
15347TIP3    H267457   3.541   6.367   4.259 -1.4840  0.5346  0.0370
15348TIP3   OH267458   5.738   5.096   1.179  0.0550  0.7105  0.1383
15348TIP3    H167459   5.736   5.000   1.188  1.7690  0.3702 -2.1914
15348TIP3    H267460   5.828   5.120   1.202 -0.2242  1.7187  0.2263
15349TIP3   OH267461   5.543   3.881  11.692 -0.2363  0.2959  0.2940
15349TIP3    H167462   5.552   3.840  11.606  1.0618 -0.2926  0.6819
15349TIP3    H267463   5.633   3.889  11.724 -0.5585  2.1270  0.8656
15350TIP3   OH267464   5.405   4.557   5.362 -0.1149 -0.2943 -0.3506
15350TIP3    H167465   5.491   4.591   5.384 -0.0736 -0.6931  0.1162
15350TIP3    H267466   5.372   4.519   5.443  0.7772 -3.4054 -1.3020
15351TIP3   OH267467   1.224   3.214   3.891  0.2962  0.3800 -0.3731
15351TIP3    H167468   1.174   3.217   3.972 -0.1076 -0.1126 -0.6022
15351TIP3    H267469   1.299   3.272   3.907  1.6452 -1.6896  1.2947
15352TIP3   OH267470   5.211   0.481  13.092 -0.7871 -0.7179  0.5723
15352TIP3    H167471   5.205   0.402  13.038  0.6243 -0.7917  0.4906
15352TIP3    H267472   5.266   0.540  13.041 -1.6323  0.2426  0.7458
15353TIP3   OH267473   3.172   2.563   6.011 -0.0952 -0.7559 -0.4991
15353TIP3    H167474   3.153   2.543   6.103  0.3309 -0.6533 -0.3907
15353TIP3    H267475   3.097   2.526   5.964 -1.3796  0.9778  0.0497
15354TIP3   OH267476   0.487   4.077  12.938  0.1069  0.1378 -0.3122
15354TIP3    H167477   0.482   3.998  12.991 -1.0653 -0.2263 -0.9220
15354TIP3    H267478   0.525   4.048  12.855  0.3133  0.3514 -0.2937
15355TIP3   OH267479   2.004   6.731  12.525 -0.7429  0.2103 -0.9402
15355TIP3    H167480   1.996   6.697  12.436 -1.0749  0.0359 -0.8469
15355TIP3    H267481   2.096   6.755  12.533 -0.7006  0.1833 -1.3151
15356TIP3   OH267482   2.497   1.301   4.511 -0.0683  1.2696 -0.0456
15356TIP3    H167483   2.431   1.342   4.456  0.9939  0.1573 -2.3008
15356TIP3    H267484   2.452   1.228   4.552 -0.7606  1.8050  0.1625
15357TIP3   OH267485   2.775   0.835   6.237 -0.2046  0.0948 -0.4751
15357TIP3    H167486   2.764   0.832   6.142  1.6264 -1.9706 -0.7083
15357TIP3    H267487   2.705   0.779   6.271 -0.6287  0.5292 -0.6266
15358TIP3   OH267488   1.144   5.122  14.886  0.5546  0.2537  0.0680
15358TIP3    H167489   1.101   5.058  14.942 -0.3239  0.7867  0.0246
15358TIP3    H267490   1.201   5.070  14.829 -0.0079 -0.4774  0.1513
15359TIP3   OH267491   2.959   1.350   3.245 -0.1172  0.0161 -0.2969
15359TIP3    H167492   2.971   1.329   3.337 -0.6398 -0.5406 -0.3489
15359TIP3    H267493   3.018   1.290   3.199  1.1531  1.2021 -0.2736
15360TIP3   OH267494   1.381   5.196  16.437 -0.7240  0.0520 -0.5240
15360TIP3    H167495   1.343   5.281  16.462  0.0494 -0.0883  1.2811
15360TIP3    H267496   1.412   5.209  16.348 -1.8692  1.2291 -0.7846
15361TIP3   OH267497   2.234   2.586  14.296 -0.6035 -0.0057  0.7721
15361TIP3    H167498   2.263   2.528  14.225  1.2008  0.2237  1.2723
15361TIP3    H267499   2.299   2.657  14.296 -0.3568 -0.1918  2.8724
15362TIP3   OH267500   1.272   0.056  12.176 -0.5194  0.5973  0.3294
15362TIP3    H167501   1.362   0.062  12.144 -0.1659  1.7834  1.4728
15362TIP3    H267502   1.274   0.099  12.261 -1.8944 -0.5627  0.9909
15363TIP3   OH267503   1.923   4.879  11.881 -0.9510  0.0055 -0.2047
15363TIP3    H167504   1.961   4.966  11.867  0.0620 -0.4596 -0.4610
15363TIP3    H267505   1.979   4.839  11.948  0.1507 -1.3491 -1.8472
15364TIP3   OH267506   1.587   3.621   5.258  0.5637 -0.1710 -0.0449
15364TIP3    H167507   1.538   3.614   5.340  1.9685 -2.3724  0.7091
15364TIP3    H267508   1.531   3.576   5.194  1.1684 -1.9679  0.6337
15365TIP3   OH267509   5.125   0.018   1.207 -0.0542 -0.2575  0.0040
15365TIP3    H167510   5.129   0.106   1.168 -1.2328 -1.4993 -3.3026
15365TIP3    H267511   5.051  -0.024   1.164  0.5528 -2.9570  1.3586
15366TIP3   OH267512   3.451   1.472  12.843  0.0866  0.6071 -0.1620
15366TIP3    H167513   3.510   1.440  12.911 -1.0651 -1.3407  0.0070
15366TIP3    H267514   3.480   1.427  12.764 -1.1016 -0.3407 -0.0821
15367TIP3   OH267515   5.778   3.895   4.668  0.5257  0.6080  0.2682
15367TIP3    H167516   5.754   3.823   4.609 -1.4841 -0.2847  2.0337
15367TIP3    H267517   5.796   3.969   4.610 -3.8696  0.5441 -1.5744
15368TIP3   OH267518   2.545   5.811  11.566 -0.0200  0.4153  0.0720
15368TIP3    H167519   2.527   5.807  11.660  0.1749  0.1305  0.0991
15368TIP3    H267520   2.616   5.874  11.557  1.5916 -1.2696  0.3763
15369TIP3   OH267521   1.394   4.615  12.398 -0.0118 -0.5053 -0.2475
15369TIP3    H167522   1.362   4.568  12.321  0.4384 -2.0759  0.4972
15369TIP3    H267523   1.327   4.682  12.414 -1.1933 -1.5287 -0.7537
15370TIP3   OH267524   5.782   6.078   3.390 -0.0271  0.0641 -0.0747
15370TIP3    H167525   5.716   6.079   3.459 -0.1536  0.0253 -0.1936
15370TIP3    H267526   5.735   6.105   3.311 -0.1057 -0.7979 -0.3356
15371TIP3   OH267527   5.151   5.343  12.091 -0.0376  0.0795 -0.1259
15371TIP3    H167528   5.073   5.397  12.097 -0.3469 -0.3870  0.1160
15371TIP3    H267529   5.156   5.317  11.999 -0.4677 -0.3265 -0.0359
15372TIP3   OH267530   4.807   2.103  13.644  0.7706 -0.7959  0.1200
15372TIP3    H167531   4.747   2.177  13.643  1.1704 -0.4522 -1.3728
15372TIP3    H267532   4.803   2.070  13.734  0.4631  0.9201  0.7803
15373TIP3   OH267533   3.392   0.130  12.807  0.6199  0.0512  0.1795
15373TIP3    H167534   3.434   0.129  12.721  1.4084 -0.1569  0.5562
15373TIP3    H267535   3.376   0.038  12.827 -3.1788  0.1595 -1.4203
15374TIP3   OH267536   5.816   3.411  16.135 -0.5740  0.0695  0.1280
15374TIP3    H167537   5.821   3.473  16.062  0.7652 -1.7399 -1.4238
15374TIP3    H267538   5.726   3.419  16.167 -0.5650  2.4502 -0.2911
15375TIP3   OH267539   6.297   0.704  15.652 -0.4968  0.0007  0.1924
15375TIP3    H167540   6.213   0.668  15.623 -0.8043  1.4551 -0.8029
15375TIP3    H267541   6.291   0.704  15.747 -1.0921 -1.1017  0.1775
15376TIP3   OH267542   2.332   1.912  11.691 -0.2964  0.6988  0.7246
15376TIP3    H167543   2.246   1.891  11.654 -0.4470 -0.6271  1.7310
15376TIP3    H267544   2.323   1.895  11.785  1.2935 -0.4055  0.7356
15377TIP3   OH267545   3.538   5.198   0.783 -0.2816 -0.3317 -0.1453
15377TIP3    H167546   3.525   5.108   0.751 -0.5532 -0.2025 -0.4083
15377TIP3    H267547   3.538   5.190   0.878 -1.4731 -0.4608 -0.1451
15378TIP3   OH267548   2.589   4.497   4.618 -0.1563  0.0336  0.0033
15378TIP3    H167549   2.568   4.459   4.532  0.8860 -1.6059  0.4377
15378TIP3    H267550   2.678   4.465   4.637  0.8093  2.7278  0.4137
15379TIP3   OH267551   1.896   4.749  12.338  0.3075 -0.3810 -0.3668
15379TIP3    H167552   1.834   4.713  12.274  1.2225 -1.6746 -0.5588
15379TIP3    H267553   1.916   4.676  12.396 -0.9410  0.9140  1.8136
15380TIP3   OH267554   5.061   6.013  17.134 -0.9886  0.1448 -0.6672
15380TIP3    H167555   4.991   5.954  17.161  0.3631 -0.8136  0.9811
15380TIP3    H267556   5.115   5.961  17.074 -1.6420  0.8789 -1.9320
15381TIP3   OH267557   3.690   0.022   5.593  0.3975  0.0211  0.6098
15381TIP3    H167558   3.774   0.040   5.550  0.8972  1.4473  2.0819
15381TIP3    H267559   3.670  -0.069   5.570  1.3889  0.2436 -1.3095
15382TIP3   OH267560   4.762   4.371   5.698 -0.0354 -0.1029  0.6320
15382TIP3    H167561   4.795   4.460   5.683 -1.9132  0.9336  2.1994
15382TIP3    H267562   4.690   4.361   5.636  1.8040 -1.6234 -1.4151
15383TIP3   OH267563   1.648   5.828  12.063 -0.1107 -0.3731  0.4281
15383TIP3    H167564   1.644   5.900  11.999 -1.7511 -1.0639 -0.3222
15383TIP3    H267565   1.646   5.749  12.009 -2.3888 -0.9845  1.2902
15384TIP3   OH267566   1.076   3.949   3.794  0.0311 -0.8050  0.0357
15384TIP3    H167567   1.136   3.888   3.750  1.1895 -0.6978  1.3903
15384TIP3    H267568   1.132   4.021   3.823 -0.9432 -0.1743  0.3988
15385TIP3   OH267569   0.522   4.042   4.013  0.0974  0.1652  0.0304
15385TIP3    H167570   0.530   3.977   4.083  0.6400  0.0270 -0.1539
15385TIP3    H267571   0.612   4.070   3.997 -0.2270  1.8102  0.8920
15386TIP3   OH267572   0.612   4.532   0.135  0.2499  0.0238  0.1633
15386TIP3    H167573   0.637   4.528   0.227 -2.3671 -2.0820  0.9121
15386TIP3    H267574   0.667   4.468   0.091  0.0790 -0.4777  0.6772
15387TIP3   OH267575   6.510   4.301   2.269  0.2241  0.4920 -0.0398
15387TIP3    H167576   6.519   4.226   2.211 -3.4961 -0.7420  0.6854
15387TIP3    H267577   6.517   4.377   2.212  0.4035 -0.5261 -1.4162
15388TIP3   OH267578   1.962   1.172   0.637 -0.4310  0.0788  0.0992
15388TIP3    H167579   2.007   1.117   0.573 -2.1343 -0.7642 -0.4259
15388TIP3    H267580   1.996   1.260   0.621 -0.2166 -0.2506 -1.4098
15389TIP3   OH267581   5.090   4.278  11.882 -0.6688  0.0191 -0.0835
15389TIP3    H167582   5.146   4.239  11.949 -0.8557  0.7627  0.5140
15389TIP3    H267583   5.113   4.371  11.881 -0.0322 -0.1158 -1.6914
15390TIP3   OH267584   1.423   2.807  12.623  0.1755  0.4736 -0.1120
15390TIP3    H167585   1.413   2.717  12.592 -1.1577  0.3528  0.6138
15390TIP3    H267586   1.518   2.823  12.620  0.3381 -0.5886 -1.2226
15391TIP3   OH267587   0.404   6.706  15.368  0.1253  0.0225 -0.0008
15391TIP3    H167588   0.308   6.715  15.369  0.0788 -0.2818  1.6763
15391TIP3    H267589   0.434   6.779  15.314 -0.9795  1.3219  1.0483
15392TIP3   OH267590   1.025   6.621   3.565  1.1152 -0.4279  0.7564
15392TIP3    H167591   1.026   6.526   3.556 -0.2431 -0.4090  0.1920
15392TIP3    H267592   1.055   6.654   3.481 -1.9411 -0.3710 -0.4591
15393TIP3   OH267593   4.317   0.741   0.861  0.0099  0.3256 -0.0788
15393TIP3    H167594   4.280   0.787   0.937  0.8442  0.5148  0.2242
15393TIP3    H267595   4.383   0.683   0.897  0.3171  0.3102 -0.6459
15394TIP3   OH267596   4.093   0.292  11.787  0.1326 -0.0429  0.4074
15394TIP3    H167597   4.033   0.360  11.757  2.1914  1.7351  0.1201
15394TIP3    H267598   4.077   0.287  11.882 -0.3567  0.5222  0.3614
15395TIP3   OH267599   2.198   3.776   2.006 -0.1440 -0.5694 -0.1155
15395TIP3    H167600   2.288   3.745   1.996  1.3309  2.8389  1.1035
15395TIP3    H267601   2.169   3.796   1.917  1.6678  1.4674 -0.3427
15396TIP3   OH267602   3.707   4.239  11.648  0.1651 -0.3694  0.3041
15396TIP3    H167603   3.728   4.203  11.562  0.8822  0.9876 -0.1256
15396TIP3    H267604   3.751   4.182  11.710  2.2029  0.3346 -0.4105
15397TIP3   OH267605   2.906   6.107   5.215  0.4087 -0.0312 -0.5465
15397TIP3    H167606   2.866   6.155   5.143  0.1822 -0.8018 -0.9563
15397TIP3    H267607   3.000   6.114   5.200  0.3480 -0.8607 -1.3919
15398TIP3   OH267608   1.048   2.248   4.165 -0.3050 -0.4022 -0.7538
15398TIP3    H167609   1.127   2.195   4.169 -0.4476 -0.6418 -1.0558
15398TIP3    H267610   1.069   2.328   4.213  0.3630 -0.1457 -1.4540
15399TIP3   OH267611   3.420   4.798  11.244 -0.2765 -0.0974 -0.0074
15399TIP3    H167612   3.502   4.795  11.294 -1.0693 -2.7932  1.3246
15399TIP3    H267613   3.448   4.807  11.153  1.2896  2.8754  0.6377
15400TIP3   OH267614   4.515   0.737  14.184  0.0936  0.0703  0.0337
15400TIP3    H167615   4.489   0.645  14.188  2.2682 -0.5930  0.9429
15400TIP3    H267616   4.609   0.734  14.165  0.0332  2.1555 -0.8470
15401TIP3   OH267617   2.399   1.047   4.939 -0.2034 -0.9080 -0.3469
15401TIP3    H167618   2.347   0.986   4.990 -1.7506 -0.0788 -0.8807
15401TIP3    H267619   2.340   1.080   4.872  0.7602  0.6732 -0.4896
15402TIP3   OH267620   2.435   1.766   3.646 -0.0237  0.4495  0.0213
15402TIP3    H167621   2.411   1.674   3.653 -0.1870  0.2830 -2.0246
15402TIP3    H267622   2.353   1.811   3.629  0.5246  0.2463 -4.0838
15403TIP3   OH267623   3.180   2.767   5.467 -0.0264 -0.3374  0.3810
15403TIP3    H167624   3.273   2.757   5.490  0.3410  2.3505  0.4174
15403TIP3    H267625   3.174   2.733   5.377  1.8601  2.5293 -0.9841
15404TIP3   OH267626   4.436   6.176  13.069 -0.5291  0.4810 -0.0861
15404TIP3    H167627   4.390   6.143  13.146 -0.6937 -1.0989 -0.8245
15404TIP3    H267628   4.381   6.248  13.038 -0.3514  1.2831  1.3626
15405TIP3   OH267629   2.775   0.855   1.988  0.0852  0.4763  0.0873
15405TIP3    H167630   2.686   0.854   1.953  0.1501 -1.2639 -0.1390
15405TIP3    H267631   2.816   0.931   1.948 -1.7958  2.3923  1.5714
15406TIP3   OH267632   3.087   3.083   1.875  0.3705  0.7495  0.0331
15406TIP3    H167633   3.078   3.176   1.852 -1.3507  0.3925 -0.9781
15406TIP3    H267634   3.133   3.083   1.959  0.5347  2.5077 -0.0156
15407TIP3   OH267635   2.235   1.819   4.441 -0.1420  0.2013  0.3180
15407TIP3    H167636   2.142   1.801   4.455 -0.3171  0.9317  0.1391
15407TIP3    H267637   2.246   1.910   4.470  0.4311  0.2503 -0.0412
15408TIP3   OH267638   2.073   4.542  11.808  0.7819  0.2748 -0.0593
15408TIP3    H167639   2.099   4.621  11.761  1.8496 -0.2326 -0.3544
15408TIP3    H267640   2.150   4.520  11.861  0.0507  0.1196  0.9665
15409TIP3   OH267641   6.755   6.244  15.235 -0.0845 -0.1974 -0.2563
15409TIP3    H167642   6.671   6.204  15.212  0.0626 -0.5956 -0.1130
15409TIP3    H267643   6.734   6.335  15.254 -0.5111 -0.3295 -0.0821
15410TIP3   OH267644   6.756   4.436   4.073  0.3679  0.2281 -0.3975
15410TIP3    H167645   6.851   4.429   4.064  0.3982  1.4717 -1.3700
15410TIP3    H267646   6.721   4.399   3.991  0.1417  1.6793 -1.0009
15411TIP3   OH267647   1.338   3.815  14.936  0.1184 -0.7221 -0.9404
15411TIP3    H167648   1.384   3.896  14.956 -0.1772  0.1204 -3.2901
15411TIP3    H267649   1.254   3.822  14.981  1.1817 -1.0537  1.1772
15412TIP3   OH267650   0.602   5.628  11.231  0.3275 -0.0414  0.2509
15412TIP3    H167651   0.596   5.638  11.136 -0.5103 -3.1023 -0.1449
15412TIP3    H267652   0.696   5.617  11.248  0.4066 -0.3823 -0.3738
15413TIP3   OH267653   6.092   2.686   1.373 -0.6502  0.4725  0.1492
15413TIP3    H167654   6.184   2.687   1.347 -0.7508 -2.6611 -0.6409
15413TIP3    H267655   6.090   2.731   1.457  2.4713 -3.2025  2.4963
15414TIP3   OH267656   3.698   1.527  14.839 -0.8886 -0.2447 -0.4537
15414TIP3    H167657   3.765   1.579  14.795 -0.3585  0.2829  0.9114
15414TIP3    H267658   3.620   1.583  14.838  0.2920  1.7508  3.0936
15415TIP3   OH267659   2.223   5.752  12.199  0.4078  1.2803  0.0450
15415TIP3    H167660   2.304   5.705  12.176  0.1794  1.3565 -0.9366
15415TIP3    H267661   2.168   5.686  12.240  0.6136  1.0067 -0.1148
15416TIP3   OH267662   5.925   5.953   1.176 -0.7314  0.3443  0.5942
15416TIP3    H167663   5.931   5.881   1.113 -0.4981 -0.0459  1.0471
15416TIP3    H267664   5.998   5.936   1.236 -0.8086  0.8432  0.8252
15417TIP3   OH267665   1.115   1.949  11.864 -0.8252 -0.3033  0.3798
15417TIP3    H167666   1.152   2.031  11.896  0.6180 -1.1305  0.8863
15417TIP3    H267667   1.058   1.975  11.792 -0.0585  1.0973  0.2538
15418TIP3   OH267668   5.537   5.606  14.988  0.1263 -0.1573 -0.2857
15418TIP3    H167669   5.563   5.695  14.965 -0.5166  0.1804  0.2385
15418TIP3    H267670   5.603   5.578  15.053  0.5055 -0.1853 -0.6787
15419TIP3   OH267671   4.301   0.742   4.000  1.1784 -0.3685  0.1363
15419TIP3    H167672   4.346   0.657   4.007  2.5890  0.3221 -0.2339
15419TIP3    H267673   4.212   0.719   3.972  0.7683 -1.8857  2.4468
15420TIP3   OH267674   5.766   2.778  12.583 -0.3226 -0.2319  0.4603
15420TIP3    H167675   5.707   2.769  12.659  1.3316 -0.6733  1.7428
15420TIP3    H267676   5.748   2.866  12.550 -1.8647 -0.4384  0.6599
15421TIP3   OH267677   2.529   3.478   1.837  0.0848  0.6289  0.3803
15421TIP3    H167678   2.575   3.412   1.785  0.1841  1.1381 -0.1842
15421TIP3    H267679   2.596   3.513   1.895  0.6936  2.0754 -1.1230
15422TIP3   OH267680   3.042   0.586   0.973 -0.1223  0.2445  0.0823
15422TIP3    H167681   3.022   0.637   0.894 -1.4483  1.4661  1.1389
15422TIP3    H267682   3.058   0.653   1.040 -1.5134 -0.7237  1.4306
15423TIP3   OH267683   2.203   5.500   3.581  0.6000 -0.2815  0.2221
15423TIP3    H167684   2.115   5.513   3.545  1.1748  1.9796 -0.5537
15423TIP3    H267685   2.260   5.499   3.505  1.1945 -3.5784  0.5506
15424TIP3   OH267686   5.040   6.091   4.842  0.5090 -0.2967  0.3650
15424TIP3    H167687   5.011   6.048   4.762  2.9720  2.2200 -2.0969
15424TIP3    H267688   5.051   6.019   4.905  0.4630 -2.6936 -2.1561
15425TIP3   OH267689   1.374   1.523   4.469 -0.0032  0.0378 -0.4910
15425TIP3    H167690   1.341   1.445   4.514  1.2306 -0.3578 -0.2371
15425TIP3    H267691   1.296   1.578   4.457 -1.1527 -1.7198 -1.7439
15426TIP3   OH267692   2.611   3.785  17.101 -0.1331 -0.4494  0.2874
15426TIP3    H167693   2.553   3.858  17.083  0.0252  0.3119  2.4953
15426TIP3    H267694   2.656   3.810  17.183  1.8921 -1.8333 -0.3143
15427TIP3   OH267695   3.957   0.143   2.581 -0.2935 -0.0370 -0.4620
15427TIP3    H167696   4.016   0.201   2.629  0.5333 -0.8761 -0.4276
15427TIP3    H267697   3.894   0.113   2.646  0.8604 -1.2221  0.1420
15428TIP3   OH267698   3.503   6.066   3.360 -0.3707 -0.1863  0.1782
15428TIP3    H167699   3.567   5.997   3.376  0.3702  0.1252 -1.2537
15428TIP3    H267700   3.476   6.096   3.447  0.5689 -1.0996  0.7977
15429TIP3   OH267701   3.875   4.314  15.094 -0.3985  0.4985  0.0326
15429TIP3    H167702   3.860   4.393  15.042  0.1632  0.1050 -0.7563
15429TIP3    H267703   3.902   4.346  15.179  0.4225  1.1645 -0.4662
15430TIP3   OH267704   4.984   6.052  16.835  0.1432 -0.1941 -0.2573
15430TIP3    H167705   5.033   6.086  16.760 -0.4305  1.6655  0.1728
15430TIP3    H267706   5.049   6.047  16.905  0.3002 -0.2837 -0.4061
15431TIP3   OH267707   4.815   6.775  16.484  0.3184 -0.3093 -0.5041
15431TIP3    H167708   4.787   6.795  16.573 -0.3120 -0.7672 -0.5948
15431TIP3    H267709   4.746   6.719  16.449  0.5178 -0.0675 -1.3078
15432TIP3   OH267710   5.118   2.709  11.462  0.0868  0.0683 -0.6226
15432TIP3    H167711   5.105   2.743  11.373  0.7665  0.0986 -0.7119
15432TIP3    H267712   5.069   2.627  11.463 -1.5289  1.0030 -0.4221
15433TIP3   OH267713   3.505   0.430  10.987  0.6799 -0.1091 -0.4411
15433TIP3    H167714   3.534   0.441  10.896  1.5088 -1.0747 -0.3163
15433TIP3    H267715   3.437   0.496  10.999  0.3641 -0.1467 -1.8524
15434TIP3   OH267716   0.327   5.644  14.939 -0.1803  0.3631  0.1918
15434TIP3    H167717   0.295   5.679  14.856  1.1264  0.2917 -0.3641
15434TIP3    H267718   0.423   5.644  14.930  0.0294  0.9880  1.9410
15435TIP3   OH267719   1.223   4.782  14.467  0.1774 -0.0747  0.1159
15435TIP3    H167720   1.136   4.767  14.502  0.0358  0.2057 -0.1105
15435TIP3    H267721   1.215   4.863  14.417  0.6955  0.2511  0.5458
15436TIP3   OH267722   2.029   1.284   4.383 -0.6726 -0.0895  0.4036
15436TIP3    H167723   2.070   1.221   4.441 -1.2415 -0.2928  0.5941
15436TIP3    H267724   2.061   1.369   4.412 -2.2430 -0.0282  2.1325
15437TIP3   OH267725   6.459   1.832  11.875  0.6430  0.4639  0.7626
15437TIP3    H167726   6.365   1.846  11.872  0.4877 -0.6676 -0.0655
15437TIP3    H267727   6.497   1.913  11.840 -0.1534 -0.2633 -2.0427
15438TIP3   OH267728   6.480   0.166  11.888  0.3484 -0.1611 -0.0202
15438TIP3    H167729   6.575   0.159  11.882  0.4553 -0.8634  1.9426
15438TIP3    H267730   6.456   0.112  11.963 -1.6702 -0.4384 -0.8055
15439TIP3   OH267731   4.203   5.232  11.634  0.3206 -0.1640  0.0309
15439TIP3    H167732   4.124   5.277  11.662 -1.8792 -1.1965 -3.7827
15439TIP3    H267733   4.179   5.139  11.635  1.1865 -0.4613 -1.7714
15440TIP3   OH267734   2.499   0.600  16.510  0.3486  0.3746  0.4703
15440TIP3    H167735   2.540   0.621  16.426  0.7139  0.3903  0.6494
15440TIP3    H267736   2.483   0.684  16.552  3.2783  0.3762  1.8842
15441TIP3   OH267737   0.462   4.867   6.008 -0.0338 -0.0396  0.1286
15441TIP3    H167738   0.529   4.834   5.949 -1.6704  0.3122 -2.0395
15441TIP3    H267739   0.511   4.898   6.084  2.0594 -1.5458 -0.5123
15442TIP3   OH267740   4.507   0.894   4.032 -0.2979  0.4918 -0.1773
15442TIP3    H167741   4.506   0.947   3.952 -2.4291  1.2289  0.2790
15442TIP3    H267742   4.430   0.838   4.025  0.3430 -0.5263  0.6737
15443TIP3   OH267743   2.120   6.211   0.443  0.0969  0.0538 -0.0055
15443TIP3    H167744   2.165   6.294   0.425 -0.0245  0.1489  0.1241
15443TIP3    H267745   2.177   6.166   0.505 -0.6940  0.8298  1.3389
15444TIP3   OH267746   6.308   1.892  11.346 -0.1201  0.1153 -1.0509
15444TIP3    H167747   6.273   1.970  11.303  1.5515  0.4812 -1.8312
15444TIP3    H267748   6.277   1.819  11.292 -2.4882  0.0757  0.2116
15445TIP3   OH267749   4.593   0.470   0.619  0.5130 -0.8255 -0.1525
15445TIP3    H167750   4.686   0.490   0.623  0.2545  0.3488  0.6583
15445TIP3    H267751   4.588   0.382   0.583  1.9745 -1.2928  0.7302
15446TIP3   OH267752   5.804   0.693  13.173 -0.2965 -0.6799  0.3923
15446TIP3    H167753   5.824   0.780  13.139  0.9037 -1.7182 -1.7721
15446TIP3    H267754   5.881   0.641  13.150 -3.1759 -3.7246 -3.8741
15447TIP3   OH267755   1.928   0.951   1.857 -0.1515  0.2176 -0.3509
15447TIP3    H167756   1.956   1.028   1.807  0.7779 -0.2540 -0.5866
15447TIP3    H267757   1.982   0.880   1.823 -0.1205 -0.2918  0.7162
15448TIP3   OH267758   6.753   2.616   3.059 -0.3512  0.2239  0.3303
15448TIP3    H167759   6.812   2.660   2.997  1.5909 -1.7942  0.5962
15448TIP3    H267760   6.702   2.556   3.005  1.4652 -1.6651  0.5381
15449TIP3   OH267761   1.712   5.857  12.502  0.3356 -0.2961  0.2551
15449TIP3    H167762   1.658   5.780  12.518 -0.7466  0.3082 -0.3201
15449TIP3    H267763   1.764   5.835  12.425 -0.7905 -0.0747 -0.5985
15450TIP3   OH267764   2.765   2.597   5.537  0.0167  0.9347  0.4087
15450TIP3    H167765   2.825   2.552   5.478 -0.2029  0.4641  0.5425
15450TIP3    H267766   2.678   2.565   5.512  0.0728 -1.0788  2.4969
15451TIP3   OH267767   5.019   6.573   5.240  0.2327 -0.2240  0.5626
15451TIP3    H167768   5.023   6.478   5.232  0.1813 -0.1605 -0.2997
15451TIP3    H267769   4.959   6.601   5.171  0.4655  0.4608  0.6268
15452TIP3   OH267770   6.200   5.555  14.020 -0.1942 -0.6776  0.2185
15452TIP3    H167771   6.244   5.568  14.104  1.6269 -3.4303 -0.1525
15452TIP3    H267772   6.268   5.516  13.964 -1.3168  1.1400 -2.6004
15453TIP3   OH267773   4.673   5.804  11.747  0.1345  0.0857  0.0184
15453TIP3    H167774   4.607   5.856  11.793  0.3962  0.0892  0.3955
15453TIP3    H267775   4.731   5.772  11.817 -0.1948 -0.9677 -0.1656
15454TIP3   OH267776   5.931   0.472   1.883  0.2772  0.2945 -0.1591
15454TIP3    H167777   5.947   0.478   1.977 -0.4193 -0.1467  0.0036
15454TIP3    H267778   5.964   0.385   1.858 -4.1432 -1.9782  0.7655
15455TIP3   OH267779   4.516   1.008  11.312  0.4477 -0.3784 -0.5985
15455TIP3    H167780   4.453   0.984  11.245 -0.0659 -0.1210 -0.2201
15455TIP3    H267781   4.465   1.009  11.393  1.2076 -1.3568 -0.0939
15456TIP3   OH267782   2.401   4.898  13.129 -0.7960  0.0363 -0.2859
15456TIP3    H167783   2.344   4.971  13.106  0.0790  1.8050  2.6055
15456TIP3    H267784   2.357   4.821  13.093 -3.4092  1.6370 -0.7819
15457TIP3   OH267785   0.864   0.727  14.226  0.1774 -0.0017  0.1937
15457TIP3    H167786   0.904   0.686  14.150  0.7661 -2.8839  1.9191
15457TIP3    H267787   0.934   0.779  14.265  0.9014 -1.2275  0.5814
15458TIP3   OH267788   1.021   5.103   1.618  0.6726 -0.0872  0.3383
15458TIP3    H167789   1.103   5.068   1.583  1.2984  0.2143  1.4753
15458TIP3    H267790   1.001   5.048   1.693 -1.5037 -1.7378 -1.2985
15459TIP3   OH267791   3.685   0.561   3.896  0.3231  0.3763 -0.0519
15459TIP3    H167792   3.758   0.507   3.865 -1.0632 -1.2541 -0.6227
15459TIP3    H267793   3.607   0.519   3.861 -0.9817  1.5592  1.2731
15460TIP3   OH267794   6.502   2.654   5.792  0.2981  0.7669  0.1971
15460TIP3    H167795   6.560   2.600   5.737 -0.0057  0.0548  0.5648
15460TIP3    H267796   6.532   2.744   5.777  1.4828  0.4190  0.3619
15461TIP3   OH267797   4.719   1.147   3.594 -0.1157  0.1819  0.4936
15461TIP3    H167798   4.628   1.168   3.571 -0.2437 -1.2789 -0.4958
15461TIP3    H267799   4.713   1.097   3.675 -0.1179  0.7557  0.8521
15462TIP3   OH267800   5.688   5.206  14.055  0.4182 -0.1554 -0.0610
15462TIP3    H167801   5.611   5.154  14.033  0.1282 -0.0070  0.5633
15462TIP3    H267802   5.654   5.274  14.114  0.9465  0.1894 -0.1525
15463TIP3   OH267803   1.512   6.418  16.007  0.1572 -0.6004  0.4622
15463TIP3    H167804   1.581   6.357  15.980 -0.0599 -2.0741  2.9736
15463TIP3    H267805   1.449   6.363  16.054 -0.8478  1.3128  1.4383
15464TIP3   OH267806   6.468   2.684  16.344 -0.1576  0.1743  0.0864
15464TIP3    H167807   6.493   2.606  16.394  0.6394  0.3213 -0.0586
15464TIP3    H267808   6.541   2.696  16.283 -2.4560 -1.8455 -3.3837
15465TIP3   OH267809   4.268   1.400   4.040  0.5646 -0.1388 -0.0775
15465TIP3    H167810   4.203   1.331   4.033 -0.7266  0.7771  1.9182
15465TIP3    H267811   4.227   1.477   4.001  1.4585 -0.1253 -1.0491
15466TIP3   OH267812   5.394   4.064  12.442  0.0198 -0.1216  0.0476
15466TIP3    H167813   5.406   4.055  12.536  0.3424 -0.7197 -0.0448
15466TIP3    H267814   5.303   4.094  12.432  0.3517  1.1375  0.5981
15467TIP3   OH267815   0.747   2.001  16.946 -0.4651  0.7014 -0.3715
15467TIP3    H167816   0.757   1.907  16.961 -2.4769  0.6066  0.7609
15467TIP3    H267817   0.806   2.042  17.010 -0.9070  0.1917  0.3826
15468TIP3   OH267818   2.599   4.696   1.205  0.0619  0.0885 -0.2402
15468TIP3    H167819   2.544   4.678   1.281 -0.8295  0.2287 -0.8397
15468TIP3    H267820   2.557   4.648   1.133  0.7511  0.1619 -0.7009
15469TIP3   OH267821   6.430   1.247  11.586  0.1238  0.5848 -0.2751
15469TIP3    H167822   6.379   1.168  11.601  0.2376  0.7061  0.8547
15469TIP3    H267823   6.497   1.221  11.523 -0.3855  0.0234 -0.5942
15470TIP3   OH267824   4.569   5.023   5.895 -0.1868  0.3565 -0.4132
15470TIP3    H167825   4.557   5.086   5.966 -1.0828  0.5721 -0.7462
15470TIP3    H267826   4.481   4.995   5.872  0.1485 -0.3722 -0.8580
15471TIP3   OH267827   6.690   4.930   1.528  0.6329  0.0149  0.3082
15471TIP3    H167828   6.683   4.976   1.611  0.8936 -0.5074  0.6233
15471TIP3    H267829   6.661   4.841   1.547 -1.6369  0.4761 -0.7077
15472TIP3   OH267830   3.777   0.213  14.614 -0.2748  0.1436  0.3728
15472TIP3    H167831   3.766   0.156  14.690  1.7379  1.1983  1.5382
15472TIP3    H267832   3.693   0.259  14.605 -1.3574 -1.7258  0.4249
15473TIP3   OH267833   1.079   0.528   2.492 -0.5446 -0.8338  0.3936
15473TIP3    H167834   1.135   0.565   2.423  0.2147 -2.7176 -0.0570
15473TIP3    H267835   1.081   0.594   2.562 -2.1646  1.6453 -1.6854
15474TIP3   OH267836   4.636   1.249  11.121  0.3798 -0.2721 -0.2531
15474TIP3    H167837   4.720   1.258  11.076  0.5904 -0.4401  0.1023
15474TIP3    H267838   4.582   1.197  11.061  0.1288  0.8357 -1.0064
15475TIP3   OH267839   1.613   5.820  15.201 -0.3293 -0.2963 -0.2496
15475TIP3    H167840   1.690   5.858  15.244 -0.8787  1.6764 -0.8774
15475TIP3    H267841   1.584   5.889  15.141  0.3762 -2.8243 -3.8247
15476TIP3   OH267842   0.188   0.476  11.653  0.5521 -0.1303 -0.1551
15476TIP3    H167843   0.254   0.434  11.598  0.8271  1.2500 -0.9087
15476TIP3    H267844   0.123   0.407  11.668  0.0822 -0.3716 -2.8640
15477TIP3   OH267845   6.042   1.564  14.359  0.3441 -0.0663  0.3220
15477TIP3    H167846   5.969   1.519  14.401  1.0158 -0.6930  0.8463
15477TIP3    H267847   6.112   1.499  14.354 -0.1967 -0.6201 -3.3376
15478TIP3   OH267848   4.999   3.847  14.664  0.2856  0.2898  0.5307
15478TIP3    H167849   5.074   3.829  14.608 -0.2391 -2.0621  0.4827
15478TIP3    H267850   4.925   3.808  14.619 -0.4865  0.0928  1.9137
15479TIP3   OH267851   1.198   1.015   0.823 -0.7077 -0.1815 -0.5412
15479TIP3    H167852   1.195   1.111   0.817 -1.2678  0.0826  2.4060
15479TIP3    H267853   1.290   0.995   0.841 -0.8062 -0.0635  0.1164
15480TIP3   OH267854   2.203   0.791  15.669 -0.3704  0.1141  0.1068
15480TIP3    H167855   2.123   0.760  15.712 -1.1538  0.6646 -0.9191
15480TIP3    H267856   2.261   0.814  15.742 -1.4111  0.3711  0.8867
15481TIP3   OH267857   2.321   0.145  12.183 -0.0675 -0.3354  0.6674
15481TIP3    H167858   2.330   0.194  12.265 -0.1086 -0.1122  0.5397
15481TIP3    H267859   2.248   0.187  12.138  0.2708 -0.1408  0.2966
15482TIP3   OH267860   4.638   3.165   6.649 -0.5132  0.2459 -0.1672
15482TIP3    H167861   4.574   3.227   6.683  0.6432  0.6751  1.3558
15482TIP3    H267862   4.611   3.080   6.685 -0.5208  0.3453  0.0652
15483TIP3   OH267863   4.455   0.114  11.585 -0.3884  0.0589  0.5795
15483TIP3    H167864   4.547   0.131  11.605 -0.1345 -0.1130 -0.3962
15483TIP3    H267865   4.457   0.044  11.519 -1.3124 -1.6914  2.3069
15484TIP3   OH267866   4.464   3.454   3.926  0.3523 -0.0421 -0.1099
15484TIP3    H167867   4.509   3.538   3.914 -0.0668  0.0793 -0.8885
15484TIP3    H267868   4.535   3.392   3.943  0.9387 -0.0083 -2.1281
15485TIP3   OH267869   4.702   6.666  11.169 -0.1155 -0.2676  0.1056
15485TIP3    H167870   4.615   6.643  11.136  0.2136 -1.8075  0.1962
15485TIP3    H267871   4.700   6.641  11.262  0.0316  0.8735  0.4251
15486TIP3   OH267872   3.714   2.914  16.905 -0.0080  0.0816 -0.4642
15486TIP3    H167873   3.799   2.876  16.925 -1.2503 -1.2396  2.9398
15486TIP3    H267874   3.709   2.992  16.961 -1.5238 -0.6360  0.4501
15487TIP3   OH267875   3.702   4.879   2.739  0.3779 -0.0186  0.6069
15487TIP3    H167876   3.690   4.818   2.812  1.3532 -1.0181 -0.0243
15487TIP3    H267877   3.676   4.829   2.661  0.2073  0.7273  0.1706
15488TIP3   OH267878   3.813   1.256  14.472 -0.2973 -0.1493  0.7826
15488TIP3    H167879   3.726   1.259  14.430 -0.4646 -0.0961  1.1302
15488TIP3    H267880   3.798   1.211  14.555  0.4062 -2.1214 -0.0971
15489TIP3   OH267881   6.234   3.368   4.948 -0.1247  0.6034  0.4472
15489TIP3    H167882   6.279   3.355   4.865 -1.6562 -0.5842 -0.2260
15489TIP3    H267883   6.293   3.426   4.998  0.8536  1.2676 -1.3949
15490TIP3   OH267884   2.358   0.502  12.040 -0.2995  0.1479  0.5718
15490TIP3    H167885   2.424   0.455  11.988 -1.0505 -1.9668  1.4577
15490TIP3    H267886   2.298   0.538  11.974 -0.7393 -1.7229 -0.1084
15491TIP3   OH267887   0.261   5.819  12.636 -0.1443 -0.4652  0.9705
15491TIP3    H167888   0.293   5.909  12.628 -1.0230 -0.3155 -1.6977
15491TIP3    H267889   0.174   5.820  12.595  1.2410 -3.1907 -2.6401
15492TIP3   OH267890   5.573   3.350  11.398  0.6906  0.2410 -0.2482
15492TIP3    H167891   5.495   3.294  11.396  1.8398 -1.3957 -1.2537
15492TIP3    H267892   5.571   3.390  11.485 -1.3952  0.4451 -0.3476
15493TIP3   OH267893   0.762   6.397   3.381 -0.4802 -0.1667  0.1180
15493TIP3    H167894   0.681   6.360   3.345 -0.2808 -0.0222 -0.4868
15493TIP3    H267895   0.795   6.455   3.312  1.8314 -2.6054 -0.9755
15494TIP3   OH267896   4.569   6.171  11.700  0.2314 -0.2679 -0.8626
15494TIP3    H167897   4.614   6.101  11.749 -0.7687 -0.9443 -0.8755
15494TIP3    H267898   4.543   6.234  11.767  1.7528  0.4770 -0.9259
15495TIP3   OH267899   0.768   3.950   0.714  0.5835 -0.1894 -0.1313
15495TIP3    H167900   0.748   3.893   0.640 -1.1912  0.3477 -0.1019
15495TIP3    H267901   0.751   3.896   0.791  1.3112 -0.3811 -0.0960
15496TIP3   OH267902   5.399   1.717  12.828  0.7282 -0.0301  0.4197
15496TIP3    H167903   5.407   1.643  12.889 -2.6626 -0.3826  0.6254
15496TIP3    H267904   5.430   1.793  12.878 -0.2732 -0.5990  1.9784
15497TIP3   OH267905   0.910   3.632   1.794  0.0448  0.2931  0.7686
15497TIP3    H167906   0.819   3.649   1.819 -0.2526  0.7506 -0.5996
15497TIP3    H267907   0.913   3.644   1.699  1.5889  0.5115  0.8094
15498TIP3   OH267908   0.152   2.281  14.085 -0.1799 -0.4356  0.2907
15498TIP3    H167909   0.130   2.292  13.993 -0.0591 -0.5016  0.2538
15498TIP3    H267910   0.071   2.251  14.126 -0.4767  0.4378  0.3633
15499TIP3   OH267911   6.783   3.759   2.434 -0.5736  0.2717 -0.6805
15499TIP3    H167912   6.744   3.759   2.521  1.3700  0.6919  0.2427
15499TIP3    H267913   6.768   3.847   2.401 -0.0587  0.5645 -0.1526
15500TIP3   OH267914   0.697   0.909   4.649  0.2021 -0.7529 -0.0425
15500TIP3    H167915   0.751   0.986   4.669  1.1133 -1.0088 -1.4082
15500TIP3    H267916   0.758   0.835   4.651 -0.8798 -1.6994  2.5013
15501TIP3   OH267917   3.015   0.947  16.164  0.2747 -0.9586  0.0185
15501TIP3    H167918   2.950   0.878  16.180 -0.4063  0.0952  2.1584
15501TIP3    H267919   3.085   0.929  16.227  0.7956 -0.5157 -0.4182
15502TIP3   OH267920   0.888   5.257  13.644  0.9103  0.3122 -0.0467
15502TIP3    H167921   0.850   5.170  13.630  1.0800  0.2683 -0.2349
15502TIP3    H267922   0.874   5.274  13.737 -0.5219  0.7596 -0.3231
15503TIP3   OH267923   1.939   4.957  14.511 -0.1620 -0.4469  0.9321
15503TIP3    H167924   1.869   4.958  14.445  0.2480 -3.1800  0.3301
15503TIP3    H267925   2.019   4.974  14.462  0.0040 -1.2534  0.9055
15504TIP3   OH267926   0.707   3.906  12.286  0.1120 -0.6564  0.1637
15504TIP3    H167927   0.747   3.871  12.366  0.9745  1.1462  0.5607
15504TIP3    H267928   0.615   3.920  12.310  0.3519 -0.1715  0.8370
15505TIP3   OH267929   2.147   0.818   2.365  0.0618 -0.3591 -0.7606
15505TIP3    H167930   2.163   0.752   2.298  1.0550 -0.9672  0.0488
15505TIP3    H267931   2.144   0.769   2.447  0.5163  0.5616 -0.1738
15506TIP3   OH267932   4.316   3.712   2.319 -0.7606 -0.4592  0.0303
15506TIP3    H167933   4.286   3.719   2.229 -0.6205 -0.4998 -0.0200
15506TIP3    H267934   4.369   3.791   2.333  0.9003 -1.4252 -0.5700
15507TIP3   OH267935   3.534   1.510   4.737  0.4283  0.4183  0.2838
15507TIP3    H167936   3.600   1.568   4.775  0.0235 -0.1804  1.9808
15507TIP3    H267937   3.566   1.422   4.756 -0.2957  0.1092  0.1085
15508TIP3   OH267938   2.624   4.215  16.976  0.3345  0.3515 -0.0870
15508TIP3    H167939   2.569   4.185  16.903 -0.5595 -1.2933  1.2085
15508TIP3    H267940   2.713   4.191  16.950  0.2780  1.4632 -1.4308
15509TIP3   OH267941   2.349   2.630   5.996  0.0475 -0.2212 -0.4423
15509TIP3    H167942   2.340   2.586   6.081  0.9775  1.0399  0.3410
15509TIP3    H267943   2.302   2.713   6.007 -0.7800 -0.5142 -1.5506
15510TIP3   OH267944   5.593   2.693  16.622  0.8424 -0.1481 -0.1762
15510TIP3    H167945   5.519   2.725  16.571  0.3708  0.6697  0.9806
15510TIP3    H267946   5.576   2.599  16.633 -0.5777  0.1997  0.9175
15511TIP3   OH267947   1.756   4.714   2.890  0.2662 -0.2357  0.1459
15511TIP3    H167948   1.766   4.621   2.909 -0.1353 -0.3952 -0.3937
15511TIP3    H267949   1.763   4.720   2.795 -0.9920  0.1096  0.0549
15512TIP3   OH267950   2.131   5.514  11.409  0.1880  0.0253 -0.3945
15512TIP3    H167951   2.200   5.468  11.361 -0.1628 -1.0214  0.0704
15512TIP3    H267952   2.168   5.527  11.497 -0.3131 -0.8505 -0.0390
15513TIP3   OH267953   3.728   0.693  13.747  0.0282  0.2388 -0.0054
15513TIP3    H167954   3.720   0.598  13.733 -0.0826  0.2266  0.1341
15513TIP3    H267955   3.772   0.725  13.668  0.8698 -0.0535  0.3338
15514TIP3   OH267956   3.271   6.351   4.527 -0.3036 -0.2962  0.4201
15514TIP3    H167957   3.360   6.315   4.519 -0.0085  0.2963  0.9447
15514TIP3    H267958   3.216   6.274   4.543  0.1160 -0.6649  0.1280
15515TIP3   OH267959   4.516   0.113   1.450 -0.0842  0.5123  0.7134
15515TIP3    H167960   4.574   0.082   1.520 -1.3077 -2.4033  0.5921
15515TIP3    H267961   4.556   0.078   1.370 -2.2231 -2.2243  0.6941
15516TIP3   OH267962   5.902   5.967   2.629  0.6403  1.0906 -0.5150
15516TIP3    H167963   5.889   6.005   2.716  1.4505 -0.0308  0.1048
15516TIP3    H267964   5.842   6.017   2.573 -3.0407 -0.8279  1.3688
15517TIP3   OH267965   6.590   0.243   1.095 -0.3707 -0.8179 -0.2008
15517TIP3    H167966   6.545   0.317   1.135  0.4654  1.5085 -3.1846
15517TIP3    H267967   6.651   0.283   1.032  1.3074 -4.0202 -0.8355
15518TIP3   OH267968   4.401   4.774   0.901  0.1864  0.0212 -0.1604
15518TIP3    H167969   4.325   4.718   0.915  0.3504 -0.0324  0.5345
15518TIP3    H267970   4.364   4.859   0.878 -0.1443  0.4679  1.8548
15519TIP3   OH267971   4.176   1.011  13.155 -0.0399  0.1357  1.0459
15519TIP3    H167972   4.214   0.923  13.145 -0.2588  0.2239 -1.0212
15519TIP3    H267973   4.111   1.017  13.084  1.5344  2.7517 -0.3374
15520TIP3   OH267974   6.660   2.414   2.573 -0.2783  0.0868 -0.2475
15520TIP3    H167975   6.607   2.459   2.507 -1.2859 -0.2842  0.2770
15520TIP3    H267976   6.643   2.321   2.558  3.1521 -0.3310 -2.4631
15521TIP3   OH267977   5.094   6.495   2.846  0.8735  0.3531 -0.6384
15521TIP3    H167978   5.127   6.583   2.828 -0.0373  0.8522  0.0591
15521TIP3    H267979   5.121   6.477   2.936  0.5894  0.1333 -0.5944
15522TIP3   OH267980   1.684   2.503   4.590 -0.5202  0.2658 -0.1267
15522TIP3    H167981   1.613   2.553   4.631  0.3995  0.6876  1.0242
15522TIP3    H267982   1.642   2.422   4.560 -1.3666  0.1910  1.1594
15523TIP3   OH267983   4.017   2.454  15.482 -0.2560  0.0855 -0.0657
15523TIP3    H167984   4.110   2.459  15.458 -0.1087  0.7844  0.6082
15523TIP3    H267985   4.017   2.447  15.577 -0.9007  0.4187 -0.0339
15524TIP3   OH267986   4.436   0.694   0.599  0.0614  0.0760 -0.0910
15524TIP3    H167987   4.494   0.620   0.582  0.4825  0.9595 -2.9895
15524TIP3    H267988   4.397   0.675   0.684  2.5464 -1.8684  0.7196
15525TIP3   OH267989   2.768   0.616  17.003  0.0191  0.1878  0.1616
15525TIP3    H167990   2.697   0.677  16.984  0.6692  0.4111 -1.8644
15525TIP3    H267991   2.823   0.619  16.924  0.8132 -1.9912  0.5772
15526TIP3   OH267992   6.545   2.457   1.945 -0.1602 -0.7347  0.5414
15526TIP3    H167993   6.495   2.383   1.979  1.7415 -2.6588 -0.5920
15526TIP3    H267994   6.626   2.418   1.911  0.4138  1.7196 -1.1842
15527TIP3   OH267995   4.709   1.867  15.944  0.1796 -0.2785  0.2045
15527TIP3    H167996   4.795   1.832  15.918 -0.3757 -1.1573 -0.5254
15527TIP3    H267997   4.729   1.939  16.003  1.4714  0.7612 -1.4312
15528TIP3   OH267998   5.761   6.671   5.211 -0.9962 -0.2513  0.4844
15528TIP3    H167999   5.675   6.656   5.251 -0.7560 -0.5072  0.9098
15528TIP3    H268000   5.796   6.747   5.257 -0.0510 -1.4774  1.8938
15529TIP3   OH268001   4.459   1.297   1.278  0.2039  0.4439  0.5830
15529TIP3    H168002   4.396   1.356   1.321  0.6873 -0.2850  2.3580
15529TIP3    H268003   4.496   1.350   1.207 -2.7942  0.7237 -0.9461
15530TIP3   OH268004   6.251   0.891  14.541  0.5866  0.0600 -0.5128
15530TIP3    H168005   6.308   0.825  14.502 -0.6456 -0.7805 -0.9331
15530TIP3    H268006   6.204   0.844  14.610  0.4201  0.7557 -0.1411
15531TIP3   OH268007   4.146   3.378   2.380 -0.3307  0.1126 -0.0422
15531TIP3    H168008   4.179   3.362   2.292 -2.1224 -1.1859 -0.5319
15531TIP3    H268009   4.052   3.359   2.375 -0.3540 -0.7854  2.3257
15532TIP3   OH268010   5.804   0.742  12.472  0.3328 -0.3570  0.7257
15532TIP3    H168011   5.806   0.787  12.556  1.5947 -0.5939  0.8340
15532TIP3    H268012   5.738   0.673  12.483  1.7786 -1.5938  2.1659
15533TIP3   OH268013   3.256   3.423   4.675 -0.8053 -0.7407  0.3436
15533TIP3    H168014   3.176   3.421   4.622  0.3426  1.3059 -1.6165
15533TIP3    H268015   3.237   3.488   4.743 -0.2579  1.1438 -1.2228
15534TIP3   OH268016   4.383   3.784  12.159  0.1918 -0.4112 -0.4777
15534TIP3    H168017   4.316   3.727  12.198 -0.9269  1.4229  0.4243
15534TIP3    H268018   4.443   3.801  12.231  0.0496  0.1957 -0.4972
15535TIP3   OH268019   1.589   0.458  14.254  0.3650 -0.4324  0.5816
15535TIP3    H168020   1.614   0.463  14.161  0.3218  1.4740  0.6379
15535TIP3    H268021   1.661   0.500  14.301 -1.5667  2.7086  0.9722
15536TIP3   OH268022   0.795   1.332  14.444 -0.6484 -0.6940 -0.8824
15536TIP3    H168023   0.871   1.277  14.460 -0.0957 -0.1778 -1.6583
15536TIP3    H268024   0.765   1.307  14.356 -1.9546 -1.5576 -0.2188
15537TIP3   OH268025   5.153   0.694   6.316 -0.3179  0.4977 -0.3157
15537TIP3    H168026   5.069   0.727   6.286  0.0078  0.7951 -0.9141
15537TIP3    H268027   5.218   0.737   6.260  0.3011  1.0258  0.7520
15538TIP3   OH268028   2.587   4.381  16.448  0.1830  0.6401  0.2777
15538TIP3    H168029   2.530   4.389  16.371  0.7377 -1.2335 -0.4006
15538TIP3    H268030   2.676   4.381  16.412  0.5239  1.4081  1.0997
15539TIP3   OH268031   3.914   5.244   1.790  0.1145  0.1233 -0.7038
15539TIP3    H168032   3.945   5.290   1.712  0.2206  0.0984 -0.6758
15539TIP3    H268033   3.938   5.153   1.776  1.1833  0.3014 -0.1123
15540TIP3   OH268034   2.768   3.863  14.190 -0.3629  0.0289 -0.1478
15540TIP3    H168035   2.737   3.787  14.142 -0.1007  1.1797 -2.2387
15540TIP3    H268036   2.836   3.901  14.134 -0.4202  1.7454  0.8722
15541TIP3   OH268037   2.097   0.445   3.799  0.1157 -0.1464  0.8009
15541TIP3    H168038   2.191   0.432   3.786  0.6721  3.7126 -0.5873
15541TIP3    H268039   2.056   0.408   3.721  0.6146 -0.8065  0.8512
15542TIP3   OH268040   3.257   6.014  14.559 -0.2044  0.0599  0.1446
15542TIP3    H168041   3.327   6.072  14.592  0.3175  0.2571 -1.2364
15542TIP3    H268042   3.225   6.058  14.480 -0.3855 -1.1110 -0.4581
15543TIP3   OH268043   5.479   6.575   2.886  0.0293 -0.1501  0.2165
15543TIP3    H168044   5.490   6.515   2.811  0.6403  0.3026 -0.0668
15543TIP3    H268045   5.517   6.657   2.856  0.1472  0.0756  0.9816
15544TIP3   OH268046   2.833   2.265  12.201 -0.4787 -0.0838  0.7956
15544TIP3    H168047   2.918   2.299  12.229 -0.4078 -0.9542  1.6733
15544TIP3    H268048   2.833   2.174  12.229 -1.4777 -0.2535  0.2814
15545TIP3   OH268049   2.603   2.198   0.188  0.2965  0.1803  0.2692
15545TIP3    H168050   2.685   2.168   0.227  0.9484  0.8483 -0.5396
15545TIP3    H268051   2.540   2.129   0.210  0.8857  0.0151  1.5364
15546TIP3   OH268052   1.538   1.662   1.787 -0.0412  0.6610 -0.2700
15546TIP3    H168053   1.462   1.720   1.784  0.1258  0.9140  0.2602
15546TIP3    H268054   1.599   1.699   1.722 -0.3653  0.4580 -0.6945
15547TIP3   OH268055   5.698   4.845  11.580  0.4571  0.0115  0.0819
15547TIP3    H168056   5.706   4.806  11.492  2.7391  0.9531 -0.2045
15547TIP3    H268057   5.639   4.919  11.568 -0.6331 -0.8665 -0.2381
15548TIP3   OH268058   5.423   0.782   1.749 -0.2448 -0.0836  0.2806
15548TIP3    H168059   5.492   0.720   1.772 -1.7082 -1.1185  2.1670
15548TIP3    H268060   5.400   0.825   1.831 -1.1916  0.9255 -0.4806
15549TIP3   OH268061   0.494   5.446  12.077 -0.1594 -0.1010  0.2342
15549TIP3    H168062   0.548   5.523  12.061 -0.5728  0.1047 -0.1745
15549TIP3    H268063   0.407   5.469  12.043 -0.0131 -1.1473 -0.9231
15550TIP3   OH268064   4.505   5.182  11.407 -0.4031 -0.1761  0.2238
15550TIP3    H168065   4.468   5.267  11.382 -0.8975  0.3110  2.3938
15550TIP3    H268066   4.595   5.186  11.377  0.2905  2.1219  2.2427
15551TIP3   OH268067   4.292   0.127  14.914 -0.0202  0.5613 -0.1373
15551TIP3    H168068   4.321   0.095  14.999 -0.5410  0.0208 -0.1536
15551TIP3    H268069   4.304   0.053  14.854 -0.2783  0.7200 -0.3907
15552TIP3   OH268070   5.519   2.488   3.082 -0.2798 -0.4605 -0.6777
15552TIP3    H168071   5.603   2.530   3.060 -0.8590  1.2666  0.2080
15552TIP3    H268072   5.459   2.518   3.013 -0.7711  0.4730  0.1294
15553TIP3   OH268073   3.170   5.683  16.610  0.1353 -0.5004  0.1151
15553TIP3    H168074   3.207   5.704  16.696 -0.3290 -1.6658  0.6363
15553TIP3    H268075   3.191   5.590  16.597  1.1682 -0.0646 -1.5604
15554TIP3   OH268076   4.083   5.477  12.984  0.5516 -0.2885 -0.3132
15554TIP3    H168077   4.164   5.431  13.008  0.1757 -0.3346  0.9702
15554TIP3    H268078   4.111   5.542  12.919  1.8246  0.3963  0.8538
15555TIP3   OH268079   3.528   5.780  14.039 -0.6413  0.2011  0.1399
15555TIP3    H168080   3.465   5.727  13.991 -0.8490 -0.6132  1.2754
15555TIP3    H268081   3.476   5.850  14.078 -0.7318 -0.0605  0.4904
15556TIP3   OH268082   3.937   3.776  17.160 -0.2669  0.2285 -0.1859
15556TIP3    H168083   4.028   3.751  17.179 -1.1312 -1.6308  2.0757
15556TIP3    H268084   3.917   3.732  17.078  1.0273  1.1760 -1.0554
15557TIP3   OH268085   6.399   3.592   1.882 -0.1030 -0.2332  0.5869
15557TIP3    H168086   6.478   3.625   1.841 -0.9256  0.9592 -0.0995
15557TIP3    H268087   6.425   3.572   1.972  0.1505  3.8679  1.6248
15558TIP3   OH268088   2.300   2.712  16.662 -0.0474 -0.5377  0.1763
15558TIP3    H168089   2.350   2.707  16.581  0.4088  0.4901  0.3799
15558TIP3    H268090   2.303   2.623  16.698  0.4642 -0.7988 -0.4976
15559TIP3   OH268091   0.779   0.614   3.071  0.1682 -0.5250 -0.1625
15559TIP3    H168092   0.709   0.603   3.135 -0.8892  1.8261 -0.7991
15559TIP3    H268093   0.743   0.580   2.989  1.3790 -3.1750  0.3175
15560TIP3   OH268094   1.833   2.073  15.389 -0.1869 -0.0678 -0.0578
15560TIP3    H168095   1.763   2.067  15.454 -0.2602 -1.1357 -0.2249
15560TIP3    H268096   1.837   2.166  15.367 -0.5806  0.2080  1.0058
15561TIP3   OH268097   0.349   3.766   2.501 -0.3820  0.1863 -0.3076
15561TIP3    H168098   0.274   3.706   2.501  0.0326 -0.3347 -0.2780
15561TIP3    H268099   0.311   3.851   2.480 -0.8698 -0.2191 -1.1157
15562TIP3   OH268100   4.545   4.026  13.732 -0.6019 -0.2676 -0.3280
15562TIP3    H168101   4.557   4.071  13.649 -0.0663 -0.6306 -0.4559
15562TIP3    H268102   4.525   3.936  13.708 -1.8063 -0.0816 -0.0763
15563TIP3   OH268103   6.189   0.295  13.095  0.5081  0.3950  0.1998
15563TIP3    H168104   6.251   0.235  13.052  0.1636 -0.9252  1.4513
15563TIP3    H268105   6.147   0.241  13.162 -1.2662  1.5497  0.0613
15564TIP3   OH268106   1.856   1.188  15.955 -0.5647 -0.0823  0.1251
15564TIP3    H168107   1.869   1.150  15.868 -0.5649 -0.3916  0.2570
15564TIP3    H268108   1.779   1.142  15.989 -0.0916 -0.5319  0.6020
15565TIP3   OH268109   4.461   2.440  11.233  0.6292 -0.0306  0.6217
15565TIP3    H168110   4.536   2.462  11.288 -0.0078 -0.4122  1.6587
15565TIP3    H268111   4.406   2.518  11.234  1.2625  0.4761 -0.6315
15566TIP3   OH268112   6.169   5.262  14.777  0.1683 -0.5696  0.6365
15566TIP3    H168113   6.174   5.328  14.847 -0.3786 -0.3452  0.4694
15566TIP3    H268114   6.244   5.282  14.720  0.5746 -0.7108  1.1165
15567TIP3   OH268115   0.622   1.948   1.451  0.1038  0.0810 -0.2138
15567TIP3    H168116   0.592   1.909   1.369  0.3873  1.3472 -0.9453
15567TIP3    H268117   0.558   1.918   1.516 -1.5104  0.9175 -1.3342
15568TIP3   OH268118   3.369   4.957   5.539  0.2443 -0.1358  0.5373
15568TIP3    H168119   3.426   4.977   5.464  0.2837  2.2042  1.1294
15568TIP3    H268120   3.283   4.990   5.513 -0.0854 -0.6486  0.9597
15569TIP3   OH268121   4.142   6.499   3.899  0.2338  0.3736 -0.0659
15569TIP3    H168122   4.137   6.455   3.984 -0.2427 -0.7529 -0.6630
15569TIP3    H268123   4.053   6.530   3.882 -0.4309 -2.1112 -1.5299
15570TIP3   OH268124   0.262   3.409  12.439  0.7485 -0.2389  0.0769
15570TIP3    H168125   0.226   3.322  12.453 -2.3502  1.1516  1.5491
15570TIP3    H268126   0.244   3.428  12.346 -0.9454 -0.2132  0.3891
15571TIP3   OH268127   1.469   5.663   4.109  0.1479  0.3225  0.6115
15571TIP3    H168128   1.561   5.661   4.082  0.0527  1.3960  0.1643
15571TIP3    H268129   1.420   5.662   4.027 -0.2114  0.8868  0.8213
15572TIP3   OH268130   2.526   3.021   4.738 -0.7590 -0.0006  0.2636
15572TIP3    H168131   2.500   3.070   4.660  0.4829 -0.8348 -0.7056
15572TIP3    H268132   2.544   3.088   4.804  0.7545  0.8831 -0.9858
15573TIP3   OH268133   5.341   5.012  13.707  0.2341  0.2914 -0.2441
15573TIP3    H168134   5.395   5.018  13.628  0.3767  1.7488 -0.0665
15573TIP3    H268135   5.267   4.958  13.681  0.5840  0.2482 -1.2089
15574TIP3   OH268136   2.894   3.997  13.868 -0.3509  0.0015 -0.1134
15574TIP3    H168137   2.843   4.077  13.881  0.2207  0.8265 -2.4206
15574TIP3    H268138   2.950   3.990  13.945 -1.1208  1.2738  0.5814
15575TIP3   OH268139   5.046   2.258   2.121  0.1661 -0.1497 -0.3211
15575TIP3    H168140   5.115   2.282   2.059 -0.4162  0.9714 -0.5670
15575TIP3    H268141   5.012   2.175   2.088  0.4139  0.0240 -1.0348
15576TIP3   OH268142   3.829   2.258  11.571  0.1383  0.2419 -0.0710
15576TIP3    H168143   3.798   2.241  11.659 -2.5683 -2.7885 -1.4249
15576TIP3    H268144   3.802   2.348  11.553  1.9137  1.4189  2.4757
15577TIP3   OH268145   2.365   3.695  16.659  0.1664 -0.0759 -0.2983
15577TIP3    H168146   2.372   3.790  16.648 -0.0881 -0.0727 -0.4461
15577TIP3    H268147   2.443   3.659  16.618 -0.5572 -0.0420 -1.7549
15578TIP3   OH268148   6.364   4.498  14.619  0.6433  0.4155 -0.0796
15578TIP3    H168149   6.349   4.413  14.660  2.7899  0.6393  1.3119
15578TIP3    H268150   6.449   4.490  14.577  0.1656  1.4095 -1.2784
15579TIP3   OH268151   2.084   2.804   1.237 -0.3526 -0.1676 -0.0387
15579TIP3    H168152   2.131   2.759   1.167 -1.2719 -0.4961 -0.4546
15579TIP3    H268153   2.139   2.788   1.315  1.8054  1.9960 -0.9923
15580TIP3   OH268154   0.577   5.200   1.928  0.1226  0.5054  0.6403
15580TIP3    H168155   0.672   5.202   1.945  0.3212 -1.9139  0.0960
15580TIP3    H268156   0.538   5.183   2.014  0.1585  1.5190  0.8685
15581TIP3   OH268157   2.234   4.896  12.808  0.2380  0.1195  0.4511
15581TIP3    H168158   2.140   4.900  12.826 -0.3099  1.0460 -2.1307
15581TIP3    H268159   2.243   4.829  12.741  1.3660  0.3097  0.3935
15582TIP3   OH268160   3.429   6.178   2.006  0.2347  0.1491 -0.5944
15582TIP3    H168161   3.428   6.146   2.096 -0.7031  0.7579 -0.3749
15582TIP3    H268162   3.519   6.161   1.975  0.8604  0.8220  0.7698
15583TIP3   OH268163   5.649   5.590   4.932  0.0723 -0.4953  0.6355
15583TIP3    H168164   5.583   5.596   4.864  0.6708 -0.0663  0.0717
15583TIP3    H268165   5.646   5.499   4.961 -2.1238 -0.0419  2.0444
15584TIP3   OH268166   2.940   2.387  16.949  0.0464  0.6111 -0.4235
15584TIP3    H168167   2.975   2.407  17.036 -1.6236 -1.1489  0.7542
15584TIP3    H268168   2.904   2.470  16.918  0.9523  1.3443  0.4115
15585TIP3   OH268169   0.051   4.170   0.964  0.4887 -0.1261 -0.2138
15585TIP3    H168170   0.022   4.109   1.032  0.5914 -0.5532 -0.5503
15585TIP3    H268171  -0.026   4.182   0.909  0.3496  0.3675  0.0768
15586TIP3   OH268172   2.899   3.031  11.323  0.0022  0.4337 -0.2302
15586TIP3    H168173   2.989   3.004  11.303  1.0301  1.8296  2.0951
15586TIP3    H268174   2.872   2.974  11.396 -0.7557  0.4828 -0.4600
15587TIP3   OH268175   5.198   6.157  14.571  0.1922 -0.2867 -0.1479
15587TIP3    H168176   5.255   6.080  14.566  2.1957  1.1470 -0.7896
15587TIP3    H268177   5.252   6.228  14.537  0.2967  2.4568  4.7387
15588TIP3   OH268178   5.753   3.439   2.595 -0.3280  0.1506 -0.0586
15588TIP3    H168179   5.745   3.458   2.689  1.3903  0.2242  0.1096
15588TIP3    H268180   5.839   3.474   2.571 -0.1164 -1.1619 -1.3374
15589TIP3   OH268181   4.725   3.593   5.429 -0.1037  0.3895 -0.3416
15589TIP3    H168182   4.732   3.654   5.503 -1.3471  0.2017 -0.0470
15589TIP3    H268183   4.631   3.579   5.418  0.1471 -2.3938  0.3455
15590TIP3   OH268184   3.653   6.064   1.919 -0.2918  0.5691  0.0701
15590TIP3    H168185   3.734   6.043   1.873  0.3765  0.2237  1.3362
15590TIP3    H268186   3.586   6.009   1.879  0.6250 -1.0464  0.6929
15591TIP3   OH268187   5.661   1.146  13.338 -0.0661  0.0166 -0.3021
15591TIP3    H168188   5.736   1.108  13.294  0.3532  0.9181 -0.3881
15591TIP3    H268189   5.596   1.075  13.341  0.1465 -0.2755 -1.7407
15592TIP3   OH268190   4.355   1.532   1.442  0.2904 -0.1145  0.0692
15592TIP3    H168191   4.318   1.454   1.485 -0.2962 -0.1650 -0.5107
15592TIP3    H268192   4.335   1.604   1.502 -1.1848 -0.0660 -0.4347
15593TIP3   OH268193   0.804   2.308  16.023  0.2008  0.2333 -0.2381
15593TIP3    H168194   0.797   2.286  15.930  2.0140 -1.1631 -0.0904
15593TIP3    H268195   0.890   2.350  16.032  0.6824 -0.9300  1.0068
15594TIP3   OH268196   5.728   6.673  11.275 -0.3914 -0.3750 -0.1263
15594TIP3    H168197   5.748   6.583  11.250  0.9926 -0.5788  1.5159
15594TIP3    H268198   5.649   6.667  11.328  0.0452 -0.7193  0.4933
15595TIP3   OH268199   3.856   1.791  12.174 -0.1594  0.1344  0.7800
15595TIP3    H168200   3.797   1.763  12.244  0.6561  0.5912  1.6656
15595TIP3    H268201   3.806   1.857  12.127 -0.4922  0.2717  1.3143
15596TIP3   OH268202   4.068   3.740  16.766  0.4390 -0.2565 -0.1175
15596TIP3    H168203   4.024   3.819  16.734  1.1673 -0.1353 -0.8480
15596TIP3    H268204   4.159   3.752  16.741  0.7695 -0.8126  0.7948
15597TIP3   OH268205   6.618   0.827  16.938  0.0404  0.0189 -0.2683
15597TIP3    H168206   6.597   0.766  16.868  1.0207  0.2570 -0.7842
15597TIP3    H268207   6.658   0.772  17.006 -0.7582 -0.1840  0.0590
15598TIP3   OH268208   1.940   3.725  15.534 -0.1980 -0.0829  0.0800
15598TIP3    H168209   1.992   3.647  15.556  1.1809  0.5574 -0.8389
15598TIP3    H268210   1.853   3.690  15.514 -0.8778 -0.9898  3.7689
15599TIP3   OH268211   1.432   5.246   4.871 -0.3937  0.6456 -0.6362
15599TIP3    H168212   1.428   5.220   4.779  0.3595 -0.1068 -0.4624
15599TIP3    H268213   1.524   5.235   4.896 -0.3621  1.9190 -0.0930
15600TIP3   OH268214   3.245   0.182  17.205  0.0071 -0.0718  0.8476
15600TIP3    H168215   3.335   0.172  17.235  0.6676  2.0107 -0.2343
15600TIP3    H268216   3.195   0.200  17.285  0.7090 -0.2934  1.3451
15601TIP3   OH268217   2.535   2.795  16.159 -0.2255 -0.6133  0.3233
15601TIP3    H168218   2.577   2.874  16.126 -0.6556 -0.4843  0.0750
15601TIP3    H268219   2.608   2.740  16.188  0.1404 -0.5135 -0.3729
15602TIP3   OH268220   1.260   1.232  14.331  0.8905 -0.0270 -0.1920
15602TIP3    H168221   1.236   1.237  14.239  1.0994 -0.9083 -0.3060
15602TIP3    H268222   1.335   1.291  14.339  0.0728  1.0646 -0.2907
15603TIP3   OH268223   0.198   1.601   3.144  0.0781  0.0450 -0.0884
15603TIP3    H168224   0.227   1.510   3.155  2.1124  0.4586 -1.3689
15603TIP3    H268225   0.245   1.649   3.213  0.6024  0.3914 -0.6789
15604TIP3   OH268226   4.464   5.709   0.560 -0.0313 -0.2879 -0.2767
15604TIP3    H168227   4.503   5.783   0.516  2.1934 -0.7390  0.8185
15604TIP3    H268228   4.411   5.666   0.493 -0.1265  1.3732 -1.3160
15605TIP3   OH268229   3.955   3.718   1.713  0.2854 -0.4048 -0.5171
15605TIP3    H168230   4.000   3.761   1.785  1.1220 -3.0025  0.6556
15605TIP3    H268231   3.862   3.725   1.736  0.4363  0.2838 -0.0944
15606TIP3   OH268232   4.343   2.257   4.989 -0.2083 -0.4100 -0.3417
15606TIP3    H168233   4.360   2.177   4.939  1.5191  0.2131 -0.8392
15606TIP3    H268234   4.425   2.274   5.035 -1.3777 -0.2907  1.7991
15607TIP3   OH268235   1.947   0.069   3.942  0.2227  0.0571  0.2965
15607TIP3    H168236   1.866   0.029   3.911 -0.1297  1.4670 -0.7286
15607TIP3    H268237   2.016   0.015   3.904 -0.2248  0.9268 -1.9393
15608TIP3   OH268238   4.089   0.038  10.859  0.2751  0.5978 -0.3444
15608TIP3    H168239   4.057   0.127  10.874 -0.3701  0.5472 -1.3397
15608TIP3    H268240   4.120   0.038  10.768  1.7994  0.2419  0.1386
15609TIP3   OH268241   4.891   6.575  12.726 -0.3637 -0.0717 -0.0844
15609TIP3    H168242   4.928   6.487  12.719 -0.2450  0.0318 -0.8028
15609TIP3    H268243   4.934   6.625  12.657 -0.0719  0.6813  0.6226
15610TIP3   OH268244   1.577   5.122   5.278  0.0295  0.1683 -0.6264
15610TIP3    H168245   1.650   5.098   5.334  1.2829  0.2288 -2.1696
15610TIP3    H268246   1.610   5.110   5.188 -1.5533  1.0641 -1.3747
15611TIP3   OH268247   3.894   5.941  14.340  0.6922  0.2812 -0.2460
15611TIP3    H168248   3.840   5.976  14.411  2.2211  0.9472  0.6412
15611TIP3    H268249   3.929   6.019  14.296  0.6192 -0.1385 -1.0747
15612TIP3   OH268250   1.001   1.660  13.046 -0.1941  0.6463 -0.0450
15612TIP3    H168251   0.945   1.601  13.096  1.1919  1.0977  2.1849
15612TIP3    H268252   0.946   1.736  13.027  0.0358  2.0492  3.9383
15613TIP3   OH268253   1.733   3.404  12.609 -0.4408  0.3179  0.1829
15613TIP3    H168254   1.681   3.421  12.688 -0.0738  2.0729  0.0776
15613TIP3    H268255   1.798   3.339  12.638  0.2664  1.5901  1.6105
15614TIP3   OH268256   6.408   6.341   1.452  0.3631  0.3213  0.0911
15614TIP3    H168257   6.502   6.331   1.438  0.4603  0.0303  0.9146
15614TIP3    H268258   6.376   6.383   1.372  0.7371 -2.1301 -1.4718
15615TIP3   OH268259   0.819   3.944   5.225  0.0779  0.5580  0.5234
15615TIP3    H168260   0.746   3.914   5.171 -1.6220  1.6623  2.0966
15615TIP3    H268261   0.779   3.968   5.309  2.2483  1.2520  1.4366
15616TIP3   OH268262   6.764   5.095   4.042 -0.0977 -0.1705 -0.3824
15616TIP3    H168263   6.799   5.051   3.964  0.8324 -1.1607  0.5643
15616TIP3    H268264   6.810   5.055   4.115 -0.0329  1.6336  0.6149
15617TIP3   OH268265   5.424   5.912  11.132 -0.6492 -0.1966 -0.3573
15617TIP3    H168266   5.409   5.827  11.172 -0.8225 -0.0130 -0.0274
15617TIP3    H268267   5.501   5.946  11.177 -1.4805  0.4784  0.6009
15618TIP3   OH268268   2.700   0.449   6.021 -0.1534 -0.1178 -0.5891
15618TIP3    H168269   2.606   0.432   6.014 -0.4488  1.1937 -0.1108
15618TIP3    H268270   2.741   0.363   6.011 -1.4271 -0.7734 -0.3461
15619TIP3   OH268271   0.094   5.989  16.060  0.4686  0.1301  0.2302
15619TIP3    H168272   0.004   5.963  16.082  0.0540  0.9307 -0.4736
15619TIP3    H268273   0.141   5.985  16.144  0.3799 -2.5440  0.2442
15620TIP3   OH268274   3.788   0.418  12.671 -1.1497 -0.0320  0.1825
15620TIP3    H168275   3.843   0.349  12.708 -0.6517 -0.0283 -0.5151
15620TIP3    H268276   3.840   0.498  12.678 -1.7755  0.3170  1.1035
15621TIP3   OH268277   4.704   2.857   3.706 -0.3258 -0.2999  0.3222
15621TIP3    H168278   4.716   2.907   3.787  1.0905 -0.8439  0.4868
15621TIP3    H268279   4.787   2.811   3.694 -0.5493 -0.3249 -1.3885
15622TIP3   OH268280   2.642   2.744   0.958 -0.4227  0.2466  0.1408
15622TIP3    H168281   2.640   2.734   0.863 -3.4596  0.4726  0.0989
15622TIP3    H268282   2.676   2.832   0.972  1.4876 -0.3170 -0.6093
15623TIP3   OH268283   5.096   2.596   4.856 -0.4569 -0.1305  0.7687
15623TIP3    H168284   5.070   2.668   4.799  2.4584  0.2917 -0.1721
15623TIP3    H268285   5.080   2.517   4.804 -0.7472  0.0407  0.5958
15624TIP3   OH268286   3.529   0.730  14.125 -0.1381  0.2878 -0.5211
15624TIP3    H168287   3.554   0.782  14.049 -0.5243  2.4275  0.7511
15624TIP3    H268288   3.601   0.667  14.136  0.2983  0.4581 -2.1606
15625TIP3   OH268289   1.593   0.246  11.576  0.5664  0.3845  0.0774
15625TIP3    H168290   1.613   0.158  11.605 -0.6557 -0.5893 -1.8172
15625TIP3    H268291   1.665   0.300  11.609  3.0050 -1.8465 -1.2604
15626TIP3   OH268292   0.508   4.036   3.373 -0.3630 -0.5318  0.1350
15626TIP3    H168293   0.423   4.081   3.373 -1.2565 -2.0687  1.6674
15626TIP3    H268294   0.558   4.078   3.303 -2.5453  0.1193 -1.1229
15627TIP3   OH268295   4.744   3.590   4.011  0.2785  0.0828  0.3325
15627TIP3    H168296   4.764   3.579   4.104 -0.0280  0.5489  0.4521
15627TIP3    H268297   4.826   3.621   3.973  0.5039 -0.4398  0.3844
15628TIP3   OH268298   6.735   0.458   0.968 -0.0805 -0.1018  0.5300
15628TIP3    H168299   6.816   0.475   1.016 -0.3548  1.6245  0.4549
15628TIP3    H268300   6.687   0.540   0.973 -1.0286 -0.5222 -0.9663
15629TIP3   OH268301   6.182   0.040   4.738  0.0398 -0.3119  0.3992
15629TIP3    H168302   6.138   0.010   4.659  1.1801  0.6362 -0.6287
15629TIP3    H268303   6.112   0.050   4.803 -1.0066 -0.4297 -0.6869
15630TIP3   OH268304   1.267   1.036  16.174  0.6071  0.2128 -0.6755
15630TIP3    H168305   1.203   0.968  16.196  0.8757  0.3272  0.5540
15630TIP3    H268306   1.350   1.000  16.205  0.7586  1.0507 -0.0801
15631TIP3   OH268307   1.027   0.589   4.302 -0.4474  0.5801 -0.0821
15631TIP3    H168308   0.979   0.655   4.251  0.3935  0.9706 -0.3863
15631TIP3    H268309   0.992   0.505   4.271 -1.1989  0.8645 -0.0212
15632TIP3   OH268310   3.363   2.885  11.410 -0.5017 -0.0717 -0.4006
15632TIP3    H168311   3.412   2.810  11.443 -0.0974  0.4021  0.0942
15632TIP3    H268312   3.429   2.942  11.371 -0.6466  0.5656  0.2669
15633TIP3   OH268313   6.201   3.642  13.125  0.8275 -0.0357  0.2323
15633TIP3    H168314   6.290   3.612  13.142 -0.0831 -2.9010  0.5244
15633TIP3    H268315   6.153   3.622  13.206 -0.7172 -1.5017 -0.9766
15634TIP3   OH268316   4.894   5.143   4.706  0.2065  0.1410 -0.2319
15634TIP3    H168317   4.920   5.171   4.619 -0.1253  0.1821 -0.3217
15634TIP3    H268318   4.960   5.181   4.764  0.4580  0.0668 -0.4683
15635TIP3   OH268319   6.172   1.631  12.661  0.8208  0.1771  0.1895
15635TIP3    H168320   6.167   1.711  12.714  1.2032 -0.3943  1.1182
15635TIP3    H268321   6.266   1.613  12.654  0.7307 -0.2800  0.1392
15636TIP3   OH268322   3.359   5.310   5.554  0.0376 -0.1836  0.2110
15636TIP3    H168323   3.299   5.288   5.625 -1.1825 -1.3746 -1.1153
15636TIP3    H268324   3.315   5.380   5.506 -0.0597 -0.6756 -0.4395
15637TIP3   OH268325   3.534   4.338   5.222 -0.0655 -0.1668 -0.3916
15637TIP3    H168326   3.544   4.358   5.315 -2.5980  0.5021 -0.1833
15637TIP3    H268327   3.563   4.417   5.177 -2.6330  1.1436  0.0861
15638TIP3   OH268328   4.441   5.371  14.643 -0.0069 -0.0309  0.0047
15638TIP3    H168329   4.520   5.337  14.684  0.8208  0.7580 -0.8725
15638TIP3    H268330   4.416   5.305  14.579 -0.3219 -0.4807  0.5827
15639TIP3   OH268331   6.508   3.319   3.843 -0.3435 -0.2692  0.3408
15639TIP3    H168332   6.596   3.313   3.879 -0.8903  1.4795  2.1591
15639TIP3    H268333   6.481   3.228   3.831  1.2453 -0.8535  0.9221
15640TIP3   OH268334   1.570   5.785   1.237  0.3833 -0.5357 -0.1002
15640TIP3    H168335   1.533   5.698   1.222 -3.0545  0.7057  0.2814
15640TIP3    H268336   1.500   5.834   1.280  2.1835  2.4528 -0.2580
15641TIP3   OH268337   3.330   1.260   3.944 -0.3517 -0.3631  0.8384
15641TIP3    H168338   3.318   1.314   3.866 -1.8443 -2.6858 -0.6657
15641TIP3    H268339   3.424   1.244   3.948 -0.3156 -0.7815 -0.9362
15642TIP3   OH268340   5.165   2.739   1.221  0.0911 -0.3938 -0.2149
15642TIP3    H168341   5.259   2.751   1.233  0.0101 -0.5664  0.6789
15642TIP3    H268342   5.136   2.699   1.303 -0.4532 -2.1059 -1.1992
15643TIP3   OH268343   2.753   0.904  11.755  0.3385 -0.1235  0.1194
15643TIP3    H168344   2.786   0.814  11.758  0.0045 -0.3090 -1.1633
15643TIP3    H268345   2.745   0.929  11.846  0.2311 -1.4732  0.5079
15644TIP3   OH268346   6.552   0.647  14.759  0.1130 -0.0435 -0.2642
15644TIP3    H168347   6.471   0.653  14.808  0.4559 -2.1786  0.6776
15644TIP3    H268348   6.604   0.721  14.789 -1.2579  1.0490 -0.5004
15645TIP3   OH268349   5.616   6.185   3.184 -0.5995 -0.2324 -0.3210
15645TIP3    H168350   5.589   6.232   3.105  0.5283  0.1293 -0.4962
15645TIP3    H268351   5.578   6.236   3.256 -1.1870 -0.2711 -0.5927
15646TIP3   OH268352   5.864   4.848  15.223  0.2003  0.2554 -0.0532
15646TIP3    H168353   5.785   4.835  15.275  0.9665 -1.4073  0.7755
15646TIP3    H268354   5.832   4.867  15.135 -1.1030  1.1923  0.5893
15647TIP3   OH268355   1.367   1.033  15.092  0.3476 -0.2177 -0.2597
15647TIP3    H168356   1.276   1.012  15.111  0.3641  0.0255  0.0947
15647TIP3    H268357   1.418   0.966  15.137  0.3843  0.3224  0.5225
15648TIP3   OH268358   5.130   1.127   5.665 -0.6314  0.0195  0.3629
15648TIP3    H168359   5.193   1.066   5.702 -2.8417 -2.2418  0.6534
15648TIP3    H268360   5.117   1.192   5.735  0.7360  0.0970  0.5797
15649TIP3   OH268361   4.992   6.315   5.223 -0.0369 -0.3736  0.3186
15649TIP3    H168362   4.942   6.293   5.144  1.6607 -2.8733 -0.1738
15649TIP3    H268363   4.953   6.260   5.292  2.1723 -2.7603 -0.1857
15650TIP3   OH268364   2.771   1.043  14.401  0.2071 -0.2462 -0.1778
15650TIP3    H168365   2.777   1.137  14.413  0.7739 -0.3785  0.6683
15650TIP3    H268366   2.856   1.017  14.367 -0.9862 -0.0412 -3.7358
15651TIP3   OH268367   1.319   5.186   5.339 -0.1232  0.0299 -0.0699
15651TIP3    H168368   1.408   5.216   5.323  0.4369 -1.3203  0.3471
15651TIP3    H268369   1.292   5.145   5.256 -1.4721  2.8850 -1.1838
15652TIP3   OH268370   3.118   1.267  17.024 -0.1128  0.2904  0.3675
15652TIP3    H168371   3.069   1.349  17.014  0.1379  0.4559  0.5004
15652TIP3    H268372   3.210   1.292  17.019  0.0088 -0.4098 -3.1139
15653TIP3   OH268373   3.889   1.988   5.221  0.3139  0.3621  0.0352
15653TIP3    H168374   3.801   2.024   5.225  0.2282  0.0855  0.7283
15653TIP3    H268375   3.928   2.008   5.307  0.1896 -1.3579  0.5162
15654TIP3   OH268376   4.609   4.667   0.116  0.1237  0.3594  0.3598
15654TIP3    H168377   4.540   4.693   0.176 -0.2795 -0.3099  0.1896
15654TIP3    H268378   4.584   4.580   0.085 -0.0179  0.9363 -1.2665
15655TIP3   OH268379   0.624   0.421  12.307 -0.8535 -0.0984  0.0684
15655TIP3    H168380   0.597   0.461  12.390  0.3374  1.3710 -0.1965
15655TIP3    H268381   0.673   0.343  12.333  1.2351  1.4015  0.8981
15656TIP3   OH268382   5.471   4.745   3.523  0.4110 -0.2782  0.6868
15656TIP3    H168383   5.485   4.651   3.513  2.9321 -0.3070  3.0542
15656TIP3    H268384   5.393   4.764   3.471  1.9006 -2.9582 -2.9634
15657TIP3   OH268385   0.471   2.324  11.294  0.1022  0.0565  0.9535
15657TIP3    H168386   0.402   2.384  11.322  0.8580  1.2664  0.2798
15657TIP3    H268387   0.425   2.243  11.271 -1.3265  1.3870 -1.1757
15658TIP3   OH268388   0.693   2.894  11.062  0.2330  0.1702 -0.0287
15658TIP3    H168389   0.781   2.905  11.026 -0.6737 -0.8230 -2.8185
15658TIP3    H268390   0.706   2.843  11.142  2.1112 -0.9329 -0.9570
15659TIP3   OH268391   2.223   4.782   4.691 -0.3271 -0.1767  0.7511
15659TIP3    H168392   2.252   4.827   4.611 -1.4017 -0.9378 -0.0904
15659TIP3    H268393   2.272   4.825   4.761  0.3675  0.7622 -0.2686
15660TIP3   OH268394   2.565   3.695   4.028  0.3762  0.4542 -0.3741
15660TIP3    H168395   2.627   3.628   4.057 -0.7505  0.1045  1.4163
15660TIP3    H268396   2.552   3.677   3.935 -0.6365 -2.5030  0.2280
15661TIP3   OH268397   5.789   1.200   5.494 -0.2402  0.2896  0.3713
15661TIP3    H168398   5.854   1.264   5.524 -0.6543  1.0568 -0.3184
15661TIP3    H268399   5.734   1.249   5.434 -0.1527 -0.9085 -0.7173
15662TIP3   OH268400   5.659   5.955   4.878  0.5974  0.4069 -0.5038
15662TIP3    H168401   5.725   6.021   4.857  2.0474 -0.8481 -0.0420
15662TIP3    H268402   5.654   5.901   4.799 -0.8663  1.2521 -1.0254
15663TIP3   OH268403   5.028   3.029   1.449 -0.3949 -0.2840 -0.0604
15663TIP3    H168404   5.116   3.031   1.486 -0.4813 -0.9010  0.1930
15663TIP3    H268405   5.015   3.116   1.412  0.2729 -0.1529  0.0136
15664TIP3   OH268406   4.222   5.039   1.390  0.0795  0.4609  0.0184
15664TIP3    H168407   4.271   4.962   1.359 -0.6086  0.5367 -1.3566
15664TIP3    H268408   4.281   5.082   1.452  0.5245 -1.1072  0.7324
15665TIP3   OH268409   4.335   2.571   4.418  0.1642  0.3975  0.1374
15665TIP3    H168410   4.355   2.520   4.340  0.7574 -0.2073  0.6732
15665TIP3    H268411   4.261   2.526   4.458 -0.3797  0.9195 -0.2570
15666TIP3   OH268412   1.664   0.302  12.772  0.3740 -0.1689  0.7554
15666TIP3    H168413   1.701   0.390  12.775  0.3740 -0.1201 -0.1562
15666TIP3    H268414   1.724   0.253  12.716 -0.6785 -0.1888 -0.4215
15667TIP3   OH268415   0.190   4.988   4.970  0.4947 -0.2924 -0.1932
15667TIP3    H168416   0.252   4.920   4.996 -1.6672 -1.6242  1.9191
15667TIP3    H268417   0.231   5.070   4.997  2.0602 -0.9431 -0.4801
15668TIP3   OH268418   1.729   2.885  13.201  0.0730 -0.6382  0.7411
15668TIP3    H168419   1.673   2.848  13.133  0.1725 -2.2795  1.5027
15668TIP3    H268420   1.695   2.849  13.283  1.1790 -0.3073  1.3707
15669TIP3   OH268421   0.555   5.538  16.235 -0.2904 -0.0087 -0.3911
15669TIP3    H168422   0.645   5.535  16.203 -0.2631  0.6306 -0.4025
15669TIP3    H268423   0.520   5.620  16.199 -1.3226 -0.9176 -1.5590
15670TIP3   OH268424   5.267   4.944  15.951 -0.5377 -0.1264  0.2255
15670TIP3    H168425   5.354   4.947  15.991 -0.1027  0.8992 -0.7625
15670TIP3    H268426   5.279   4.896  15.870 -0.8990 -0.0190  0.1059
15671TIP3   OH268427   1.172   3.900   2.903  0.5677 -0.6446  0.7780
15671TIP3    H168428   1.187   3.952   2.981 -0.2066  0.9852 -0.1176
15671TIP3    H268429   1.232   3.935   2.837 -0.6836 -0.1553 -0.1413
15672TIP3   OH268430   4.303   4.715  13.399  0.1203 -0.1769 -0.3510
15672TIP3    H168431   4.329   4.721  13.307 -1.0067  2.2955 -0.5912
15672TIP3    H268432   4.384   4.691  13.445  0.8070 -1.0153 -1.9121
15673TIP3   OH268433   0.290   0.644   4.454  0.2512 -0.4274 -0.0202
15673TIP3    H168434   0.326   0.677   4.536  1.4947 -1.8044  0.0411
15673TIP3    H268435   0.291   0.719   4.395  2.0356 -0.0665  0.3973
15674TIP3   OH268436   2.001   0.226  15.417 -0.6308  0.3657 -0.6283
15674TIP3    H168437   1.962   0.311  15.437 -1.2325 -0.3233  1.4283
15674TIP3    H268438   2.069   0.215  15.484 -0.8556 -0.9372 -0.5869
15675TIP3   OH268439   2.739   5.290  12.125  0.6774  0.2678 -0.4186
15675TIP3    H168440   2.659   5.238  12.123  1.3722 -0.9091  0.2873
15675TIP3    H268441   2.795   5.250  12.059  1.5350 -0.4737  0.7044
15676TIP3   OH268442   6.136   1.132   0.726  0.0456 -0.4241 -0.5002
15676TIP3    H168443   6.109   1.129   0.818 -1.1266  0.3095 -0.7879
15676TIP3    H268444   6.068   1.083   0.680 -0.3397  0.6886 -1.1591
15677TIP3   OH268445   4.434   6.766   2.172 -0.3282  0.0846 -0.1405
15677TIP3    H168446   4.514   6.795   2.128 -1.1739  1.3993 -0.8642
15677TIP3    H268447   4.391   6.708   2.108 -0.2827 -0.1036 -0.0033
15678TIP3   OH268448   0.374   5.097   3.795  0.3272  0.2231 -0.7827
15678TIP3    H168449   0.445   5.085   3.732  1.6301 -2.3832  1.0398
15678TIP3    H268450   0.311   5.028   3.774 -0.6299  1.1182 -0.9538
15679TIP3   OH268451   5.393   4.895   2.174  0.1153 -0.3924 -0.2154
15679TIP3    H168452   5.485   4.919   2.177 -0.0826  0.2932  1.9114
15679TIP3    H268453   5.391   4.804   2.202  0.2102 -0.7249 -1.2442
15680TIP3   OH268454   5.511   5.657  12.321 -0.4311  0.4966 -0.2796
15680TIP3    H168455   5.556   5.690  12.398  0.4997 -0.0909 -0.5486
15680TIP3    H268456   5.438   5.606  12.355 -1.1891  1.8268  0.1569
15681TIP3   OH268457   1.722   4.653   3.708  0.3259  0.4346  0.3763
15681TIP3    H168458   1.659   4.601   3.758  0.2310  0.0556 -0.1275
15681TIP3    H268459   1.807   4.612   3.727  0.0717 -1.1223 -1.4429
15682TIP3   OH268460   6.249   0.463   4.554 -0.0983  0.0735 -0.4401
15682TIP3    H168461   6.324   0.408   4.578  0.7092  1.3677  0.1160
15682TIP3    H268462   6.173   0.409   4.571  0.6714 -0.8901  0.0526
15683TIP3   OH268463   3.411   2.979  15.922 -0.0475  0.1145  0.2174
15683TIP3    H168464   3.473   3.052  15.926  0.3736 -0.1548 -1.0005
15683TIP3    H268465   3.326   3.021  15.909  0.0647  0.4224  0.4485
15684TIP3   OH268466   1.380   2.548   0.320  0.4942  0.7449  0.2480
15684TIP3    H168467   1.376   2.576   0.411 -0.7615  1.3129  0.0352
15684TIP3    H268468   1.289   2.533   0.295  0.8413  0.3383 -0.8354
15685TIP3   OH268469   3.715   4.323  14.689  0.1293 -0.3164 -0.7144
15685TIP3    H168470   3.736   4.246  14.742  0.6720 -0.3252 -0.9359
15685TIP3    H268471   3.786   4.384  14.707  1.5697 -1.1737 -3.1343
15686TIP3   OH268472   3.907   4.017  13.199 -0.4246 -0.3745 -0.3766
15686TIP3    H168473   3.891   4.034  13.292 -0.7469  2.7832 -0.8998
15686TIP3    H268474   3.819   4.011  13.161 -0.3481  1.1344 -0.8526
15687TIP3   OH268475   6.289   3.131   4.482 -0.3222  0.0801  0.2071
15687TIP3    H168476   6.315   3.133   4.574  0.8548 -1.9173 -0.0352
15687TIP3    H268477   6.370   3.142   4.433 -0.9441  1.1756 -0.6250
15688TIP3   OH268478   0.380   1.450   2.321  0.0259 -0.6136  0.7223
15688TIP3    H168479   0.297   1.491   2.346 -0.4211 -1.7220  1.1534
15688TIP3    H268480   0.431   1.450   2.402  1.9767  3.3472 -0.3029
15689TIP3   OH268481   5.611   0.903  17.126 -0.0556  0.2619 -0.2480
15689TIP3    H168482   5.545   0.883  17.060  0.2320  0.9085 -0.7455
15689TIP3    H268483   5.690   0.925  17.076  1.0418 -1.9970  0.3400
15690TIP3   OH268484   4.388   6.347   5.254 -0.1474  0.0224 -0.3865
15690TIP3    H168485   4.423   6.338   5.165 -1.9612 -1.2823 -1.0276
15690TIP3    H268486   4.465   6.351   5.310  1.0242  0.0912 -1.9502
15691TIP3   OH268487   1.384   1.789   2.611 -0.9388  0.4398  0.2102
15691TIP3    H168488   1.337   1.863   2.651 -0.2081  0.9832  0.0867
15691TIP3    H268489   1.320   1.718   2.610 -1.6378  1.0522  0.3871
15692TIP3   OH268490   5.541   5.344   4.432  0.2824 -0.0807  0.3445
15692TIP3    H168491   5.538   5.408   4.504 -0.8420  0.1118  0.1334
15692TIP3    H268492   5.614   5.373   4.377  0.8269  0.0640  1.1184
15693TIP3   OH268493   5.074   3.500  15.707  0.3881 -0.4422  0.1806
15693TIP3    H168494   5.122   3.579  15.682  1.3261 -1.1894 -0.4419
15693TIP3    H268495   4.988   3.532  15.733  1.3824  1.0017  1.9366
15694TIP3   OH268496   2.390   6.781   4.977 -0.4895 -0.2524 -0.1198
15694TIP3    H168497   2.316   6.747   5.027 -0.8771 -0.9991 -1.1656
15694TIP3    H268498   2.360   6.779   4.886 -0.5272  2.8628 -0.2917
15695TIP3   OH268499   6.720   0.259   4.097 -0.2505  0.2360 -0.0544
15695TIP3    H168500   6.777   0.331   4.070  1.4101 -0.2715  1.8294
15695TIP3    H268501   6.701   0.211   4.017  1.3161  0.8929 -0.8517
15696TIP3   OH268502   3.095   4.658   1.758  0.4319  0.3505  0.2729
15696TIP3    H168503   3.076   4.752   1.767  0.5491  0.3540  0.4907
15696TIP3    H268504   3.010   4.616   1.763  0.3680  0.4507  0.0794
15697TIP3   OH268505   0.200   0.543  13.448 -0.3166 -0.2328  0.5875
15697TIP3    H168506   0.146   0.621  13.450  2.1131  1.5513  0.8980
15697TIP3    H268507   0.199   0.510  13.538  0.7040  0.9963  1.0754
15698TIP3   OH268508   6.112   1.578   6.322 -0.1237  0.0191 -0.1691
15698TIP3    H168509   6.033   1.531   6.350 -0.5795  1.3783  0.9590
15698TIP3    H268510   6.160   1.515   6.268 -1.0768 -1.4585  0.6386
15699TIP3   OH268511   6.455   2.491  11.361 -0.3920 -0.3316 -0.0359
15699TIP3    H168512   6.516   2.451  11.423 -1.4122  0.0299  1.2254
15699TIP3    H268513   6.483   2.582  11.355  0.2807 -0.5819 -0.8458
15700TIP3   OH268514   0.048   1.427   5.130 -0.1988 -0.4509 -0.4099
15700TIP3    H168515   0.076   1.415   5.040 -0.6218 -1.5600 -0.4075
15700TIP3    H268516  -0.030   1.373   5.139 -0.3241 -0.1427  0.5475
15701TIP3   OH268517   2.794   1.801  16.884  0.7174  0.4975  0.2713
15701TIP3    H168518   2.766   1.773  16.971  1.5955 -0.4651  0.2597
15701TIP3    H268519   2.889   1.799  16.887  0.7556 -0.0174 -0.8518
15702TIP3   OH268520   6.067   0.171  15.041  0.0731  0.1062  0.0443
15702TIP3    H168521   6.044   0.190  15.132 -1.5047 -2.3561  0.2774
15702TIP3    H268522   6.056   0.254  14.995  0.5352  1.3220  1.9856
15703TIP3   OH268523   0.473   1.130   4.073  0.1675 -0.8161 -0.0062
15703TIP3    H168524   0.449   1.040   4.050 -0.7342 -0.8327  0.9015
15703TIP3    H268525   0.458   1.180   3.993 -1.2034 -1.1495  0.0147
15704TIP3   OH268526   3.469   5.353   4.625  0.1553 -0.6783 -0.8089
15704TIP3    H168527   3.425   5.350   4.540  0.1477 -1.0812 -0.7920
15704TIP3    H268528   3.519   5.272   4.629 -1.8434 -1.9343  0.6360
15705TIP3   OH268529   2.259   0.884  12.644  0.1781 -0.6583  0.2096
15705TIP3    H168530   2.234   0.828  12.570 -0.9638  1.3378 -1.0024
15705TIP3    H268531   2.351   0.905  12.627  0.7117 -2.3187  0.8386
15706TIP3   OH268532   6.452   3.731  16.966 -0.3138  0.0548 -0.5529
15706TIP3    H168533   6.382   3.722  17.031  0.9067 -0.2992  0.7644
15706TIP3    H268534   6.530   3.700  17.011  0.9970  1.8655 -1.4540
15707TIP3   OH268535   1.577   3.125  10.450  0.5331  0.2375 -0.2167
15707TIP3    H168536   1.630   3.049  10.427  1.8524  0.5920  1.4793
15707TIP3    H268537   1.502   3.120  10.391 -0.3129 -3.3095  0.9212
15708TIP3   OH268538   5.276   1.301   0.695  0.4667 -0.1495  0.3382
15708TIP3    H168539   5.216   1.293   0.620 -0.2389 -1.1914  0.9820
15708TIP3    H268540   5.251   1.229   0.753  2.8834 -1.1512  0.2692
15709TIP3   OH268541   6.063   1.060  14.070 -0.3442 -0.0693  0.3969
15709TIP3    H168542   6.064   1.080  14.163 -0.5156  0.9134  0.2010
15709TIP3    H268543   5.980   1.014  14.056 -0.7869  0.6638  0.5648
15710TIP3   OH268544   1.012   2.067   4.456 -0.1707  0.5602 -0.9028
15710TIP3    H168545   0.920   2.090   4.473  0.1354  0.7505  0.6043
15710TIP3    H268546   1.008   2.008   4.380 -1.7475 -1.0284  0.3159
15711TIP3   OH268547   6.443   6.174   5.703  0.2341  0.4357 -0.7716
15711TIP3    H168548   6.525   6.200   5.745  0.4226  0.9258 -1.4335
15711TIP3    H268549   6.421   6.090   5.744 -0.3905  1.5835  1.3896
15712TIP3   OH268550   1.867   5.746  14.533  0.1183 -0.5022  0.0278
15712TIP3    H168551   1.937   5.729  14.469 -0.4940  0.9697 -1.1012
15712TIP3    H268552   1.871   5.840  14.548 -0.2221 -0.7273  1.6558
15713TIP3   OH268553   2.436   4.581   1.011  0.0449  0.2011  0.3644
15713TIP3    H168554   2.344   4.590   1.037  0.1845  1.0905  0.5719
15713TIP3    H268555   2.437   4.599   0.917 -0.0710 -0.4104  0.2382
15714TIP3   OH268556   4.008   4.081   6.032  0.5824  0.2336 -0.4127
15714TIP3    H168557   4.073   4.013   6.014 -0.0075 -0.7817  1.1091
15714TIP3    H268558   3.926   4.033   6.046 -0.8311  1.5231 -3.3214
15715TIP3   OH268559   3.225   0.527  12.823  0.5074  0.2355 -0.3254
15715TIP3    H168560   3.312   0.488  12.834  0.5033  0.1111 -0.7113
15715TIP3    H268561   3.219   0.592  12.893  0.9695  0.3503 -0.3852
15716TIP3   OH268562   5.175   5.302  13.534 -0.6713 -0.4025  0.0407
15716TIP3    H168563   5.119   5.373  13.565 -0.3044  0.4990 -1.2707
15716TIP3    H268564   5.184   5.244  13.609 -0.1085  1.4864  1.5165
15717TIP3   OH268565   3.831   5.016   3.519  0.1045 -0.4553 -0.3732
15717TIP3    H168566   3.819   5.008   3.424 -0.2455  0.6622 -0.4372
15717TIP3    H268567   3.917   5.057   3.528 -0.4062  0.6173 -0.2632
15718TIP3   OH268568   1.310   6.488   1.846  0.4560  0.4740  0.0753
15718TIP3    H168569   1.330   6.396   1.864 -0.7283  0.2294  0.2183
15718TIP3    H268570   1.368   6.511   1.773  1.0696 -0.2519  0.3135
15719TIP3   OH268571   1.338   2.077   2.864  0.3170  0.5868 -0.1396
15719TIP3    H168572   1.416   2.124   2.895  0.5232 -0.3958  0.8697
15719TIP3    H268573   1.353   1.986   2.889 -1.0829  0.3511 -0.0923
15720TIP3   OH268574   5.055   4.122  11.194  0.1112 -0.2424 -0.0520
15720TIP3    H168575   5.050   4.091  11.284  0.7846  0.3919  0.2189
15720TIP3    H268576   5.131   4.077  11.157  0.1327 -0.1306 -0.1461
15721TIP3   OH268577   0.450   2.331  16.658  0.8937  0.3715  0.0634
15721TIP3    H168578   0.476   2.302  16.745  0.1132 -1.0083 -0.1330
15721TIP3    H268579   0.356   2.349  16.665  0.9759  0.9822 -0.3128
15722TIP3   OH268580   6.289   4.997   2.253  0.1123 -0.5086 -0.4016
15722TIP3    H168581   6.202   4.964   2.277 -0.3616  0.1469 -1.1690
15722TIP3    H268582   6.345   4.972   2.326 -0.3915 -2.2985 -0.5786
15723TIP3   OH268583   5.277   6.492  10.148 -0.8334  0.2162 -0.3207
15723TIP3    H168584   5.363   6.455  10.168 -0.2630  0.5945 -1.9782
15723TIP3    H268585   5.239   6.511  10.234  0.4425 -0.5949  0.4577
15724TIP3   OH268586   4.633   3.581   0.683  0.2950  0.0559 -0.0622
15724TIP3    H168587   4.717   3.561   0.642  0.3821  1.5515 -0.6717
15724TIP3    H268588   4.646   3.667   0.723 -1.0150  0.4352 -0.3958
15725TIP3   OH268589   1.899   5.588  12.115  0.5215 -0.3117 -0.6465
15725TIP3    H168590   1.944   5.553  12.192  1.0047  0.5583 -0.5191
15725TIP3    H268591   1.873   5.511  12.065 -2.7043 -1.1051  1.9243
15726TIP3   OH268592   4.082   2.059   2.176 -0.5654  0.1330  0.0748
15726TIP3    H168593   4.113   2.025   2.093 -1.7366 -0.3518 -0.1787
15726TIP3    H268594   3.992   2.028   2.184 -1.1412  1.7813  0.6082
15727TIP3   OH268595   5.561   5.924   1.682 -0.5022 -0.1982  0.3287
15727TIP3    H168596   5.638   5.948   1.734 -0.6426  1.3082 -0.1053
15727TIP3    H268597   5.582   5.954   1.593 -0.7055 -1.7630 -0.2740
15728TIP3   OH268598   3.911   1.168   4.211  0.1396 -0.3409  0.2545
15728TIP3    H168599   3.949   1.141   4.295  1.6342 -1.3419 -0.6871
15728TIP3    H268600   3.832   1.115   4.203  0.8654 -1.4780  0.3058
15729TIP3   OH268601   4.458   5.062  12.172 -0.3478  0.3038 -0.2352
15729TIP3    H168602   4.507   5.133  12.131 -1.4144  1.4063  0.3314
15729TIP3    H268603   4.417   5.015  12.099 -2.2017  2.2217 -0.5086
15730TIP3   OH268604   3.764   6.284  14.349  0.3026 -0.2381  0.5791
15730TIP3    H168605   3.715   6.206  14.325 -0.6874 -0.1644  2.2033
15730TIP3    H268606   3.849   6.273  14.307  0.0440 -1.9812  0.4471
15731TIP3   OH268607   4.343   2.183  11.168  0.2392  0.0522  0.2457
15731TIP3    H168608   4.254   2.205  11.196  0.7423  0.2523  1.8011
15731TIP3    H268609   4.391   2.265  11.174  1.3483 -0.6739  2.9203
15732TIP3   OH268610   5.921   4.202   5.387 -0.4704 -0.3226 -0.4223
15732TIP3    H168611   5.927   4.111   5.359 -1.0469 -0.7193  0.6746
15732TIP3    H268612   5.995   4.245   5.344  1.9259 -2.0352  1.6228
15733TIP3   OH268613   1.043   0.221  12.140 -0.2890  0.1194 -0.5351
15733TIP3    H168614   1.137   0.206  12.157 -0.0924 -1.0882 -2.4139
15733TIP3    H268615   1.032   0.315  12.146  0.3200  0.1136  3.0059
15734TIP3   OH268616   4.577   0.543  13.821 -0.6249 -0.2269  0.2013
15734TIP3    H168617   4.667   0.518  13.842 -1.4501 -4.1499 -0.1450
15734TIP3    H268618   4.574   0.543  13.725 -1.2616 -1.6267  0.1928
15735TIP3   OH268619   3.521   3.858   4.697  0.2935 -0.2544 -0.4046
15735TIP3    H168620   3.532   3.763   4.688  0.0839 -0.2350 -0.9080
15735TIP3    H268621   3.470   3.869   4.778 -1.2652 -0.6881 -1.2859
15736TIP3   OH268622   3.231   3.414   3.400 -0.8431  0.2676 -0.4306
15736TIP3    H168623   3.167   3.391   3.468  0.9510 -2.1303  0.6205
15736TIP3    H268624   3.298   3.464   3.447  0.8550 -2.1594 -0.1052
15737TIP3   OH268625   3.490   1.214  15.219  0.1563  0.1666 -0.0743
15737TIP3    H168626   3.524   1.303  15.229  2.0471 -0.4050 -0.9345
15737TIP3    H268627   3.408   1.214  15.268  1.6380  1.5017  2.6148
15738TIP3   OH268628   4.355   0.417   3.607 -0.2759 -0.2894  0.1593
15738TIP3    H168629   4.423   0.355   3.633 -1.9559 -1.6785  1.4690
15738TIP3    H268630   4.365   0.426   3.513  2.8047  0.9471  0.4859
15739TIP3   OH268631   4.355   1.255   0.959 -0.4869 -0.6718 -0.2494
15739TIP3    H168632   4.425   1.226   0.900 -0.7805 -0.2391 -0.8179
15739TIP3    H268633   4.393   1.329   1.006 -0.3847 -0.7727 -0.1717
15740TIP3   OH268634   4.636   0.147  16.172 -0.1968 -0.2914 -0.8418
15740TIP3    H168635   4.551   0.141  16.216  0.3725 -0.3608  0.3061
15740TIP3    H268636   4.618   0.194  16.091 -1.3275 -0.2908 -0.6108
15741TIP3   OH268637   0.011   6.408   6.025 -0.3992  0.3070 -0.7313
15741TIP3    H168638   0.048   6.493   6.001  0.0179 -0.0494 -1.3602
15741TIP3    H268639   0.086   6.350   6.036 -0.6654  0.0817 -0.0119
15742TIP3   OH268640   5.828   4.612  11.673  0.0224 -0.0488  0.5917
15742TIP3    H168641   5.804   4.698  11.637  0.6130 -1.1361 -2.7099
15742TIP3    H268642   5.752   4.586  11.725 -1.3581  1.2561 -0.6636
15743TIP3   OH268643   1.720   0.829   3.525 -0.0741  0.3640 -0.0425
15743TIP3    H168644   1.806   0.857   3.554  0.7324 -0.2222 -1.7423
15743TIP3    H268645   1.701   0.750   3.576  0.6124  0.2103 -0.0236
15744TIP3   OH268646   0.414   1.158  13.363 -0.0703 -0.2203  0.4245
15744TIP3    H168647   0.422   1.245  13.325 -2.8476  0.0932  0.3730
15744TIP3    H268648   0.435   1.170  13.456  2.2124 -0.1059 -0.0390
15745TIP3   OH268649   5.558   3.242  14.905 -0.0886  0.2458  0.0411
15745TIP3    H168650   5.479   3.190  14.921 -0.2905  0.1607 -1.1481
15745TIP3    H268651   5.532   3.306  14.839  0.6853  0.5778  0.0511
15746TIP3   OH268652   4.123   1.133   0.128 -0.1202  0.2807  0.4344
15746TIP3    H168653   4.203   1.086   0.104 -0.2104 -0.2985  1.2222
15746TIP3    H268654   4.154   1.219   0.155  0.3531 -0.2191  1.5639
15747TIP3   OH268655   3.744   4.678   0.980  0.2043 -0.4522  0.2822
15747TIP3    H168656   3.758   4.654   1.071 -0.9130 -2.3197 -0.0001
15747TIP3    H268657   3.790   4.762   0.970  3.2035 -1.7729  1.6954
15748TIP3   OH268658   1.489   1.548  11.896 -0.1277  0.1418  0.1256
15748TIP3    H168659   1.543   1.510  11.826 -1.5865 -2.0347  0.0862
15748TIP3    H268660   1.438   1.615  11.852  0.4191  0.1866 -0.4616
15749TIP3   OH268661   2.300   5.132  12.048  0.3418 -0.0876  0.4116
15749TIP3    H168662   2.338   5.174  11.971  0.3794  2.1723  1.5767
15749TIP3    H268663   2.345   5.048  12.055  2.2224  0.7885 -0.5367
15750TIP3   OH268664   5.603   2.032   3.808  0.1724 -0.6233  0.3513
15750TIP3    H168665   5.595   2.023   3.713 -1.0250 -0.5490  0.4284
15750TIP3    H268666   5.693   2.063   3.822 -0.2533  1.3613 -0.9048
15751TIP3   OH268667   5.613   3.609   5.613 -0.5528 -0.1121 -0.4298
15751TIP3    H168668   5.577   3.697   5.628 -2.5376 -1.0755  0.8267
15751TIP3    H268669   5.542   3.561   5.570 -0.6442 -1.9244  1.5850
15752TIP3   OH268670   5.307   4.059   3.868 -0.3153 -0.4726  0.0210
15752TIP3    H168671   5.396   4.093   3.861 -0.0724 -0.8796  0.9882
15752TIP3    H268672   5.252   4.125   3.826  0.6024 -1.0289 -2.1694
15753TIP3   OH268673   2.958   1.841   0.666  0.0784  0.5424 -0.0133
15753TIP3    H168674   2.969   1.878   0.579  1.3820  0.0487 -0.0842
15753TIP3    H268675   3.039   1.863   0.712 -0.5172  0.6489  1.0327
15754TIP3   OH268676   1.802   5.390   4.046 -0.3623  0.2249  0.4769
15754TIP3    H168677   1.843   5.317   4.001  0.4445  0.5583  0.6608
15754TIP3    H268678   1.874   5.437   4.087 -0.8874  1.0629  0.4558
15755TIP3   OH268679   3.129   1.177  16.024  0.2217 -0.5527  0.5338
15755TIP3    H168680   3.069   1.134  16.085  1.9463 -0.9702  2.0216
15755TIP3    H268681   3.132   1.268  16.053  0.5683 -0.6149  0.7059
15756TIP3   OH268682   1.949   2.775   4.241 -0.9672  0.3874  0.4064
15756TIP3    H168683   1.894   2.750   4.314 -0.0309  0.6523  1.2198
15756TIP3    H268684   2.037   2.747   4.266 -0.7402 -0.1923 -0.9444
15757TIP3   OH268685   2.691   6.637  17.061  0.0147  0.7748 -0.1105
15757TIP3    H168686   2.762   6.692  17.093  0.9487 -0.7779  0.5895
15757TIP3    H268687   2.648   6.691  16.993  1.7443  1.8109 -0.4548
15758TIP3   OH268688   2.094   1.660   1.446 -0.1320  0.4054  0.5810
15758TIP3    H168689   2.075   1.706   1.528  0.1808  2.0953 -0.2469
15758TIP3    H268690   2.164   1.600   1.468 -0.8826 -0.0597  1.8271
15759TIP3   OH268691   5.738   1.611   0.878  0.2176  0.2421  0.0917
15759TIP3    H168692   5.763   1.616   0.786 -1.5845 -1.2101 -0.5342
15759TIP3    H268693   5.767   1.524   0.906 -0.6872  0.0357  0.4135
15760TIP3   OH268694   1.053   3.929  11.983  0.3734  0.2696 -0.2838
15760TIP3    H168695   0.963   3.904  12.006  1.0120 -1.2043  0.7626
15760TIP3    H268696   1.061   4.020  12.012 -0.4589  0.0771  0.5973
15761TIP3   OH268697   3.348   1.160   4.262 -0.5159 -0.1628 -0.2447
15761TIP3    H168698   3.321   1.126   4.177  0.5663 -0.4434 -0.4872
15761TIP3    H268699   3.400   1.237   4.242  2.5948 -2.0569 -0.0774
15762TIP3   OH268700   1.899   1.997  12.233 -0.0629 -0.3970  0.3058
15762TIP3    H168701   1.813   1.961  12.257 -0.0884 -1.2119 -0.8764
15762TIP3    H268702   1.900   1.992  12.137  0.5234  1.4774  0.1792
15763TIP3   OH268703   0.685   0.629   2.404  0.4303  0.1790 -0.0775
15763TIP3    H168704   0.758   0.601   2.347 -0.9079 -0.3433 -1.6208
15763TIP3    H268705   0.648   0.705   2.359  1.0485  1.5557  1.6096
15764TIP3   OH268706   1.013   6.560  15.558  0.4599 -0.3415 -0.0496
15764TIP3    H168707   1.081   6.559  15.491  1.0398  0.2452  0.5194
15764TIP3    H268708   1.029   6.482  15.610 -1.1771 -1.8832 -1.7247
15765TIP3   OH268709   4.846   5.365   1.769 -0.5756  0.2648  1.1778
15765TIP3    H168710   4.816   5.275   1.785 -0.4732 -0.4619 -2.0343
15765TIP3    H268711   4.930   5.355   1.726 -0.8020  1.8811  0.2769
15766TIP3   OH268712   2.672   4.960   4.603 -0.1400 -0.4217  0.0901
15766TIP3    H168713   2.697   4.885   4.550  1.1156 -0.2665  0.4251
15766TIP3    H268714   2.743   4.970   4.666  0.4782  1.9344 -0.8743
15767TIP3   OH268715   4.637   4.349  16.312 -0.0912 -0.0362  0.3254
15767TIP3    H168716   4.665   4.440  16.302  1.0072 -0.3120  0.8033
15767TIP3    H268717   4.570   4.352  16.380  2.5126 -0.0004  3.0967
15768TIP3   OH268718   3.927   3.227   3.281 -0.0437 -0.1143 -0.2025
15768TIP3    H168719   3.935   3.241   3.186 -0.0271 -0.6167 -0.2743
15768TIP3    H268720   3.903   3.313   3.315 -0.0978  0.0605 -0.6706
15769TIP3   OH268721   2.321   5.487  15.952  0.3017 -0.7420 -0.6862
15769TIP3    H168722   2.333   5.453  15.864  1.9308  0.7386 -1.1008
15769TIP3    H268723   2.289   5.413  16.003  1.9102 -2.3737 -1.9262
15770TIP3   OH268724   5.031   6.542  11.022  0.2264 -0.2535 -0.5676
15770TIP3    H168725   5.117   6.563  11.056  0.2408  0.3218 -0.9471
15770TIP3    H268726   5.036   6.562  10.928 -0.6464  0.8613 -0.4029
15771TIP3   OH268727   4.152   4.837  16.363 -0.2025  0.0945 -0.1859
15771TIP3    H168728   4.124   4.905  16.424 -0.3643 -0.8216  0.7952
15771TIP3    H268729   4.084   4.834  16.296 -1.4768 -0.7818  1.1088
15772TIP3   OH268730   3.953   4.680   4.143 -0.6595  0.2367  0.4704
15772TIP3    H168731   3.888   4.617   4.113 -0.4132  0.4765 -0.5921
15772TIP3    H268732   3.907   4.763   4.145 -0.9408  0.0731  1.7216
15773TIP3   OH268733   5.689   3.455  13.459  0.4473  0.0392  0.1418
15773TIP3    H168734   5.778   3.428  13.481 -0.2727 -1.0412  2.0039
15773TIP3    H268735   5.701   3.531  13.402  2.5390 -0.7854 -0.6292
15774TIP3   OH268736   5.227   5.377  16.068  0.2782 -0.3539 -0.1506
15774TIP3    H168737   5.147   5.421  16.096 -0.2871 -1.5858  0.2672
15774TIP3    H268738   5.290   5.396  16.137  0.0240 -0.2517  0.0571
15775TIP3   OH268739   6.208   5.744   5.405 -0.4067 -0.0415  0.0585
15775TIP3    H168740   6.198   5.831   5.443  0.4773  1.4658 -2.8232
15775TIP3    H268741   6.254   5.693   5.472  3.3777  3.1344  0.2111
15776TIP3   OH268742   2.675   3.948   5.573 -0.4349 -0.1431 -0.5122
15776TIP3    H168743   2.690   3.854   5.570  0.3121 -0.0175 -0.8260
15776TIP3    H268744   2.737   3.981   5.638  0.0935  0.2744 -1.2204
15777TIP3   OH268745   0.536   3.718  15.973 -0.3885  0.1606  0.5082
15777TIP3    H168746   0.568   3.804  15.999 -0.6116  0.3363  0.2084
15777TIP3    H268747   0.443   3.731  15.955 -0.5297 -0.2510  0.9332
15778TIP3   OH268748   3.506   5.890   1.190 -0.4302  0.2771 -0.1984
15778TIP3    H168749   3.533   5.909   1.100 -1.0938  2.8751  0.0773
15778TIP3    H268750   3.561   5.946   1.244 -1.2456  0.0770  0.8700
15779TIP3   OH268751   1.653   0.962  12.146 -0.2961  0.2152 -0.0135
15779TIP3    H168752   1.673   0.971  12.053  2.9173 -1.3221  0.4296
15779TIP3    H268753   1.611   0.876  12.154 -1.4978  0.7673 -0.1090
15780TIP3   OH268754   1.597   0.654  11.243  0.5430  0.4323  0.1594
15780TIP3    H168755   1.578   0.747  11.232 -1.0350  0.0738 -0.3886
15780TIP3    H268756   1.624   0.646  11.335 -1.3939  1.1341  0.8450
15781TIP3   OH268757   6.756   5.835  13.882  0.1967  0.1005 -0.3197
15781TIP3    H168758   6.765   5.822  13.788 -0.2385  1.4065 -0.5649
15781TIP3    H268759   6.774   5.749  13.920  2.6337  0.0349 -1.4218
15782TIP3   OH268760   5.397   4.247  11.620 -0.3000  0.2015 -0.3607
15782TIP3    H168761   5.472   4.202  11.581  2.3431  3.1733  0.8280
15782TIP3    H268762   5.395   4.332  11.576 -1.5965  1.0287  1.1747
15783TIP3   OH268763   2.900   6.262   4.978 -0.0218  0.4187 -0.2573
15783TIP3    H168764   2.870   6.218   4.898  0.4885 -0.4041 -0.0083
15783TIP3    H268765   2.981   6.306   4.953  1.2156 -1.4490  0.2327
15784TIP3   OH268766   1.259   2.420   0.033  0.4839  0.5842 -0.0557
15784TIP3    H168767   1.252   2.447   0.125  1.0894  0.1739  0.1180
15784TIP3    H268768   1.212   2.337   0.029  1.2557  0.1289  0.0996
15785TIP3   OH268769   4.560   5.451  15.368 -0.0460  0.2694 -0.1071
15785TIP3    H168770   4.644   5.450  15.415  1.5676 -1.4618 -2.7954
15785TIP3    H268771   4.513   5.375  15.403  0.2392  0.2286  0.1997
15786TIP3   OH268772   3.316   6.203  16.347  0.6048 -0.1996  0.1998
15786TIP3    H168773   3.242   6.156  16.387 -0.5500  1.3028 -0.0777
15786TIP3    H268774   3.285   6.293  16.339  2.3676  0.3998 -0.2466
15787TIP3   OH268775   1.674   4.815  15.202 -0.0139 -0.2928 -0.1801
15787TIP3    H168776   1.669   4.911  15.211 -0.3701 -0.1142 -1.9002
15787TIP3    H268777   1.710   4.801  15.115  0.5448 -1.7467  0.2604
15788TIP3   OH268778   1.480   1.283  13.439 -0.2002  0.7568 -0.1083
15788TIP3    H168779   1.395   1.314  13.473 -0.8004 -0.9484  0.0313
15788TIP3    H268780   1.473   1.293  13.344  0.1431  2.2545 -0.0048
15789TIP3   OH268781   6.507   4.872  15.118 -0.0073 -0.6097 -0.5198
15789TIP3    H168782   6.478   4.925  15.044 -1.8707  2.7991  2.3122
15789TIP3    H268783   6.584   4.917  15.151 -0.0179 -1.2351  0.4126
15790TIP3   OH268784   4.822   6.409  11.546  0.7435 -0.4854 -0.2783
15790TIP3    H168785   4.857   6.492  11.513  0.0084 -0.2617 -0.5110
15790TIP3    H268786   4.897   6.349  11.543  1.5111  0.3737  0.6738
15791TIP3   OH268787   3.604   1.103   0.359 -0.0359  0.0702  0.8635
15791TIP3    H168788   3.569   1.173   0.415 -0.0055  0.2096  0.7063
15791TIP3    H268789   3.526   1.061   0.323 -0.0462  0.1922  0.7468
15792TIP3   OH268790   5.715   2.180   2.598 -0.2858  0.3537 -1.0476
15792TIP3    H168791   5.694   2.268   2.565 -1.4188  0.9660  1.1292
15792TIP3    H268792   5.631   2.144   2.625  0.4545 -0.4966  0.1982
15793TIP3   OH268793   0.305   0.754  12.022 -0.3601 -0.1610  0.0085
15793TIP3    H168794   0.230   0.766  11.963 -1.2807 -0.3242  1.1179
15793TIP3    H268795   0.280   0.681  12.078  0.0384  0.6557  1.2973
15794TIP3   OH268796   0.201   0.216   3.047  0.2451  0.3559 -0.2689
15794TIP3    H168797   0.214   0.160   3.123  0.9651  0.1936 -0.5020
15794TIP3    H268798   0.146   0.164   2.988  0.1755  0.2481 -0.1097
15795TIP3   OH268799   4.587   0.178  15.729  0.2730 -0.3044  0.2258
15795TIP3    H168800   4.653   0.117  15.761 -0.2326 -2.0459 -1.7792
15795TIP3    H268801   4.546   0.214  15.808  1.5127 -1.5523  1.4828
15796TIP3   OH268802   2.093   3.905   2.379  0.2580 -0.4396 -0.1287
15796TIP3    H168803   2.113   3.947   2.296  0.7795 -2.1616 -0.9147
15796TIP3    H268804   1.998   3.895   2.379  0.2365 -0.2302 -0.4266
15797TIP3   OH268805   5.163   5.526   3.899  1.2313 -0.0525 -0.0461
15797TIP3    H168806   5.127   5.536   3.811  4.0808  1.3595 -1.1805
15797TIP3    H268807   5.122   5.596   3.950 -1.0209 -1.3570  0.0278
15798TIP3   OH268808   6.573   3.884  14.332 -0.1148 -0.0246 -0.0680
15798TIP3    H168809   6.552   3.924  14.416 -0.4078 -0.8785  0.2683
15798TIP3    H268810   6.646   3.936  14.299 -1.4835  1.8299 -0.4000
15799TIP3   OH268811   4.625   6.351  17.259 -0.7295  0.3694  0.1009
15799TIP3    H168812   4.710   6.380  17.293 -1.4427  1.4446  1.0364
15799TIP3    H268813   4.637   6.348  17.164  0.0869  1.3915  0.1579
15800TIP3   OH268814   2.743   6.563  16.683 -0.2819  0.1820 -0.7112
15800TIP3    H168815   2.830   6.597  16.703 -0.6543  0.0879  1.2761
15800TIP3    H268816   2.695   6.572  16.764 -1.2323 -2.5486 -0.8725
15801TIP3   OH268817   0.951   4.195   5.244  0.3765  0.0223  0.1516
15801TIP3    H168818   1.035   4.157   5.218 -0.5425 -1.3539 -0.9554
15801TIP3    H268819   0.891   4.120   5.246 -0.8658  1.0032  0.7624
15802TIP3   OH268820   3.155   5.842   2.339 -0.5934  0.0500  0.2887
15802TIP3    H168821   3.231   5.794   2.373  0.0975 -0.0963 -1.3760
15802TIP3    H268822   3.080   5.788   2.363 -0.0125 -0.7514  0.3478
15803TIP3   OH268823   4.642   0.927  10.661 -0.0821 -0.2248  0.0700
15803TIP3    H168824   4.662   1.018  10.639  1.3784 -0.4705  0.2842
15803TIP3    H268825   4.635   0.883  10.577  1.0134 -0.2584 -0.0195
15804TIP3   OH268826   4.049   3.178  12.729  0.4048  0.1295  0.4910
15804TIP3    H168827   4.105   3.245  12.768 -1.1575  1.2080  0.9662
15804TIP3    H268828   3.960   3.212  12.738 -0.3180 -1.3296 -0.6297
15805TIP3   OH268829   3.688   4.959  12.530 -0.4526  0.3391 -0.3412
15805TIP3    H168830   3.659   4.990  12.444 -1.2926  0.8109  0.1039
15805TIP3    H268831   3.707   5.039  12.579 -0.7593  0.1019  0.1729
15806TIP3   OH268832   3.676   3.932  15.283  0.5120 -0.0019 -0.2743
15806TIP3    H168833   3.638   3.889  15.359  1.4146 -1.4976 -0.6369
15806TIP3    H268834   3.749   3.982  15.318  0.0917  0.4326  0.0051
15807TIP3   OH268835   2.771   2.266  15.305 -0.4582  0.1855  0.5219
15807TIP3    H168836   2.755   2.340  15.246  0.7150  1.7667  2.0900
15807TIP3    H268837   2.866   2.252  15.301 -0.7488 -2.0361 -0.5762
15808TIP3   OH268838   3.623   0.164   2.299  0.1291  1.1568 -0.1985
15808TIP3    H168839   3.543   0.146   2.249 -0.1759 -0.2817  0.7543
15808TIP3    H268840   3.608   0.249   2.339 -0.7794  1.0622 -0.3191
15809TIP3   OH268841   3.106   4.334  11.169  0.5998 -0.0906  0.3421
15809TIP3    H168842   3.133   4.334  11.077  1.9383  1.8835  0.6715
15809TIP3    H268843   3.057   4.252  11.180  0.7830 -0.5772 -1.9989
15810TIP3   OH268844   6.538   4.522   2.751 -0.0586  0.5948  0.3594
15810TIP3    H168845   6.465   4.461   2.756 -0.2820  0.5529 -2.2703
15810TIP3    H268846   6.603   4.478   2.697  1.8364  0.7886  2.3375
15811TIP3   OH268847   3.680   0.191  13.667  0.3371 -0.4497  0.3531
15811TIP3    H168848   3.722   0.238  13.739  2.5359  0.7444 -1.5905
15811TIP3    H268849   3.590   0.178  13.697  0.6943  1.5219  2.6054
15812TIP3   OH268850   4.706   1.392  14.565  0.3883 -0.8136 -0.6710
15812TIP3    H168851   4.668   1.352  14.644 -0.7944  2.5921  0.6852
15812TIP3    H268852   4.777   1.333  14.540 -0.9814 -3.5036  1.2582
15813TIP3   OH268853   2.539   5.834  15.357 -0.4941  0.3772  0.3618
15813TIP3    H168854   2.586   5.754  15.333  0.7135  1.0716  0.3355
15813TIP3    H268855   2.481   5.850  15.283 -0.8001 -0.5072  0.3987
15814TIP3   OH268856   0.958   1.104  14.769 -0.0681 -0.1809 -0.7585
15814TIP3    H168857   0.969   1.175  14.705 -0.1495  0.5872  0.0476
15814TIP3    H268858   0.937   1.150  14.851  1.9796 -0.9904  0.2816
15815TIP3   OH268859   6.050   1.310   3.474  0.3609  0.4680 -0.2061
15815TIP3    H168860   6.101   1.383   3.439 -0.0120  0.9237  0.1786
15815TIP3    H268861   6.005   1.347   3.550  1.2808 -0.5321  0.8713
15816TIP3   OH268862   1.446   3.535   1.878  0.2175  0.5048  0.2227
15816TIP3    H168863   1.413   3.559   1.965 -1.7705  0.6942 -0.5250
15816TIP3    H268864   1.503   3.460   1.894 -2.4352 -1.4360  1.4731
15817TIP3   OH268865   1.758   3.606   3.787 -0.1909  0.5312  0.4007
15817TIP3    H168866   1.666   3.601   3.811 -0.4199 -0.5940 -0.5867
15817TIP3    H268867   1.766   3.548   3.710  1.3734  0.4237  0.6033
15818TIP3   OH268868   4.257   3.727  12.821  0.4964 -0.5477  0.8313
15818TIP3    H168869   4.200   3.680  12.882  0.5681  0.2604  1.5382
15818TIP3    H268870   4.343   3.728  12.864  0.8399 -0.9836  0.1771
15819TIP3   OH268871   0.670   6.687  14.428  1.0319  0.4719  0.2986
15819TIP3    H168872   0.607   6.725  14.367 -0.4780 -1.2515  0.7091
15819TIP3    H268873   0.617   6.657  14.502  2.4651 -0.1504  1.1098
15820TIP3   OH268874   5.406   6.568  14.619 -0.0368 -0.3034 -0.1804
15820TIP3    H168875   5.342   6.640  14.617  1.1420  0.8383  1.3540
15820TIP3    H268876   5.385   6.516  14.542 -1.6332  1.0734 -0.7374
15821TIP3   OH268877   2.494   0.672  15.198 -0.6412 -0.0944  0.1771
15821TIP3    H168878   2.530   0.731  15.265  0.8959  0.8420 -1.3963
15821TIP3    H268879   2.566   0.612  15.178 -0.1409  1.2301 -2.3747
15822TIP3   OH268880   6.654   0.008   4.860 -0.2172  1.2891 -0.0924
15822TIP3    H168881   6.623   0.021   4.950  0.2996  1.7197  0.0311
15822TIP3    H268882   6.574  -0.005   4.809 -0.4563 -0.2590  0.6165
15823TIP3   OH268883   3.007   1.152   4.563  0.1186 -0.2902  0.2273
15823TIP3    H168884   3.036   1.076   4.613  1.3372  0.9089  1.4315
15823TIP3    H268885   2.914   1.160   4.583  0.1430 -1.0221  0.6684
15824TIP3   OH268886   1.060   4.271  14.039 -0.4319  0.1104 -0.1055
15824TIP3    H168887   0.997   4.236  13.976  0.5332  0.3420 -1.2408
15824TIP3    H268888   1.134   4.210  14.035 -0.7019 -0.3729  1.4883
15825TIP3   OH268889   6.339   5.670  13.024 -0.1667  0.5891 -0.1704
15825TIP3    H168890   6.320   5.744  13.081  1.8264  0.2856  1.0195
15825TIP3    H268891   6.356   5.597  13.084 -1.3477 -0.6686 -1.2876
15826TIP3   OH268892   5.276   0.887  16.066 -0.0305 -0.1507 -0.0246
15826TIP3    H168893   5.233   0.960  16.022 -1.3986 -0.9724 -0.1352
15826TIP3    H268894   5.206   0.822  16.076  1.2439 -1.6238 -0.3453
15827TIP3   OH268895   0.924   6.252  11.562 -0.0912 -0.3159  0.4521
15827TIP3    H168896   0.836   6.287  11.546  0.6625  0.7730 -1.6912
15827TIP3    H268897   0.939   6.192  11.489  1.1213 -0.1801  0.5762
15828TIP3   OH268898   0.810   4.382   1.563 -0.2093  0.0423 -0.1651
15828TIP3    H168899   0.848   4.314   1.619 -0.4205 -0.5121 -0.6904
15828TIP3    H268900   0.725   4.400   1.603  0.4709  1.1354  0.8892
15829TIP3   OH268901   2.751   1.765  13.380 -0.3350  0.0337 -0.1888
15829TIP3    H168902   2.706   1.845  13.408 -1.8265 -0.6440 -0.5488
15829TIP3    H268903   2.768   1.778  13.287 -0.1430  0.1259 -0.1408
15830TIP3   OH268904   2.918   5.068   3.676 -0.4007  0.2064 -0.5230
15830TIP3    H168905   2.990   5.123   3.706  0.9669 -2.0171  0.6215
15830TIP3    H268906   2.941   5.045   3.586 -0.1940  0.3546 -0.5087
15831TIP3   OH268907   1.391   6.334  15.650  0.2354 -0.4072 -0.3248
15831TIP3    H168908   1.329   6.261  15.655 -0.4659  0.2289  0.7249
15831TIP3    H268909   1.465   6.307  15.704  0.7315 -1.0152 -1.2836
15832TIP3   OH268910   6.514   0.423   4.203 -0.6631  0.3535 -0.3134
15832TIP3    H168911   6.437   0.367   4.209  1.3376 -2.4221  1.9251
15832TIP3    H268912   6.584   0.364   4.176  1.1787  2.2708  0.0752
15833TIP3   OH268913   5.645   1.600   2.611  0.6371 -0.7757 -0.1127
15833TIP3    H168914   5.603   1.534   2.667  1.0547 -0.7894  0.1846
15833TIP3    H268915   5.641   1.680   2.663 -1.3945 -0.1469 -1.1356
15834TIP3   OH268916   0.762   0.636   1.703  0.4026 -0.4594  0.2082
15834TIP3    H168917   0.748   0.563   1.763  0.9475 -0.0156  0.9007
15834TIP3    H268918   0.680   0.643   1.654  0.5401 -1.8594 -0.2475
15835TIP3   OH268919   1.152   5.103   4.709 -0.4206 -0.2680 -0.4753
15835TIP3    H168920   1.211   5.099   4.634 -1.0074 -1.5848 -0.8919
15835TIP3    H268921   1.203   5.071   4.782  0.8941  3.0893  0.2704
15836TIP3   OH268922   1.675   0.919  11.365  0.6631 -0.0837 -0.3660
15836TIP3    H168923   1.649   0.842  11.416  2.3992  0.2081  1.0686
15836TIP3    H268924   1.593   0.966  11.348 -0.0608 -0.5123  1.6536
15837TIP3   OH268925   3.269   6.624   3.315 -0.3244 -0.3498 -0.3979
15837TIP3    H168926   3.356   6.663   3.324 -0.7642  0.6323 -0.2584
15837TIP3    H268927   3.240   6.610   3.405 -1.1020  1.1680 -0.3919
15838TIP3   OH268928   0.402   2.771  11.305 -0.3343 -0.1576 -0.2661
15838TIP3    H168929   0.483   2.734  11.268 -1.1409 -1.1241 -1.1405
15838TIP3    H268930   0.357   2.810  11.230 -1.1556 -0.5508  0.0106
15839TIP3   OH268931   5.900   6.777   3.540  0.3643  0.0843 -0.8391
15839TIP3    H168932   5.838   6.714   3.578  1.2835  0.2175  1.0085
15839TIP3    H268933   5.985   6.752   3.577  0.4329  3.8545  2.1986
15840TIP3   OH268934   5.416   4.846   0.427 -0.1178  0.0512 -0.6875
15840TIP3    H168935   5.465   4.804   0.498  0.4150  0.0937 -1.0271
15840TIP3    H268936   5.325   4.819   0.441  0.1498 -0.8575 -0.6388
15841TIP3   OH268937   2.465   5.467  13.168  0.4190 -0.0867 -0.3999
15841TIP3    H168938   2.391   5.523  13.191  1.4057  1.0966 -0.0250
15841TIP3    H268939   2.525   5.524  13.119  2.3559 -0.2350  1.6656
15842TIP3   OH268940   3.776   0.251   4.182  0.1304  0.2044 -0.5170
15842TIP3    H168941   3.723   0.202   4.119  0.6094  0.9743 -1.5477
15842TIP3    H268942   3.861   0.207   4.180  0.2356  0.4134 -0.6350
15843TIP3   OH268943   0.441   1.994  14.569  0.2726 -0.3726 -0.0218
15843TIP3    H168944   0.359   1.973  14.525  1.4965 -1.6981 -1.7964
15843TIP3    H268945   0.499   2.025  14.499  0.4949  3.3395  1.5731
15844TIP3   OH268946   4.173   4.075   2.008  0.1729 -0.1629  0.1825
15844TIP3    H168947   4.217   4.135   1.948 -0.0081  0.4970  0.6964
15844TIP3    H268948   4.080   4.083   1.986  0.1538 -0.2902  0.2171
15845TIP3   OH268949   2.134   3.710  11.983 -0.6269  0.1539 -0.5199
15845TIP3    H168950   2.052   3.684  11.942 -0.7238  0.2655 -0.3989
15845TIP3    H268951   2.187   3.631  11.984 -0.7990  0.0373 -0.4406
15846TIP3   OH268952   5.577   3.020   2.315 -0.5260 -0.1588 -0.4385
15846TIP3    H168953   5.668   3.018   2.284 -0.0352  3.5907  0.1979
15846TIP3    H268954   5.584   3.036   2.409 -1.7553  1.2589 -0.5447
15847TIP3   OH268955   4.969   5.976   0.581 -0.4086 -0.2182  0.4170
15847TIP3    H168956   4.967   6.000   0.674  0.6126  0.2746  0.3240
15847TIP3    H268957   5.060   5.955   0.564 -0.6081 -0.3947 -0.4566
15848TIP3   OH268958   2.810   5.388  16.999 -0.3559  0.2922 -0.0272
15848TIP3    H168959   2.855   5.469  17.025 -2.0749  1.7438 -1.2981
15848TIP3    H268960   2.814   5.388  16.904 -0.1674 -1.2797 -0.0408
15849TIP3   OH268961   1.243   3.667   3.009 -0.0696  0.0529  0.0149
15849TIP3    H168962   1.214   3.747   2.965  0.3227 -0.1933 -0.7078
15849TIP3    H268963   1.333   3.687   3.037 -0.5164  0.4164  1.2435
15850TIP3   OH268964   4.526   1.446   4.118 -0.1011 -1.2344  0.7381
15850TIP3    H168965   4.437   1.434   4.085 -0.7084 -0.8340  2.1558
15850TIP3    H268966   4.515   1.468   4.211  1.4619 -0.9112  0.8829
15851TIP3   OH268967   2.034   2.233  15.675 -0.3644  0.6580  0.2526
15851TIP3    H168968   2.091   2.220  15.599 -1.6425 -1.1819 -0.4667
15851TIP3    H268969   2.058   2.319  15.708  1.2369  0.9009 -1.3730
15852TIP3   OH268970   4.295   2.805   3.328  0.4063 -1.0348 -0.6493
15852TIP3    H168971   4.233   2.877   3.329 -1.3702 -2.4816 -0.3043
15852TIP3    H268972   4.350   2.819   3.405 -0.7490 -0.7000  0.1433
15853TIP3   OH268973   4.346   3.267   5.641 -0.2070 -0.0651 -0.0343
15853TIP3    H168974   4.381   3.355   5.656  1.9520 -0.4640 -2.1638
15853TIP3    H268975   4.423   3.213   5.624 -1.5365 -2.2292  0.4084
15854TIP3   OH268976   5.156   3.632   6.046  0.2803 -0.1482  0.1095
15854TIP3    H168977   5.250   3.620   6.034  0.4409 -0.4021  1.4125
15854TIP3    H268978   5.142   3.620   6.140 -1.1784 -0.9658 -0.1688
15855TIP3   OH268979   3.751   1.311  15.485  0.1354  0.4512 -0.4901
15855TIP3    H168980   3.790   1.241  15.433 -0.3815  1.1162 -1.8198
15855TIP3    H268981   3.825   1.363  15.516  0.4728 -0.1842 -0.2128
15856TIP3   OH268982   5.031   4.828   2.528  0.5506  0.1036 -0.5395
15856TIP3    H168983   4.963   4.888   2.495  0.9060  1.2340  0.7147
15856TIP3    H268984   5.037   4.760   2.461 -0.7126  0.8274 -1.4323
15857TIP3   OH268985   6.508   5.656   6.100  0.5745 -0.4704  0.4242
15857TIP3    H168986   6.573   5.602   6.145  1.6939  0.4809  0.0037
15857TIP3    H268987   6.428   5.648   6.152  1.2399 -1.0974  1.3539
15858TIP3   OH268988   1.133   1.975   6.894  0.3103  0.0636  0.4911
15858TIP3    H168989   1.202   1.941   6.836  0.4270  0.5523  0.3393
15858TIP3    H268990   1.120   1.906   6.959  0.6708 -0.1947  0.2910
15859TIP3   OH268991   5.298   5.896  16.018 -0.0441 -0.1456  0.1493
15859TIP3    H168992   5.383   5.851  16.023 -0.1594 -0.4284 -0.3935
15859TIP3    H268993   5.235   5.826  16.002 -0.2058  0.2065 -0.8497
15860TIP3   OH268994   5.789   2.162  15.028 -0.5535  0.1930 -0.1921
15860TIP3    H168995   5.753   2.220  15.096  1.2062  1.9598 -0.6740
15860TIP3    H268996   5.849   2.105  15.075  0.9348  1.6514 -0.2300
15861TIP3   OH268997   1.822   6.720   0.649 -0.4217  0.5877 -0.0360
15861TIP3    H168998   1.897   6.771   0.620 -0.7765  1.4178  0.4639
15861TIP3    H268999   1.793   6.764   0.730 -0.3409 -0.7959  0.7662
15862TIP3   OH269000   3.082   5.966   0.618  0.1373 -0.6134  0.0023
15862TIP3    H169001   3.041   6.008   0.694  0.8489  2.1172 -1.0308
15862TIP3    H269002   3.088   5.874   0.643 -0.5579  0.0065  2.8532
15863TIP3   OH269003   6.517   0.628  11.319 -0.1735  0.0863  0.1527
15863TIP3    H169004   6.493   0.570  11.247  0.9739  0.0995 -0.2612
15863TIP3    H269005   6.613   0.622  11.324 -0.2078  0.3339  1.4699
15864TIP3   OH269006   4.419   6.327   1.108 -0.6284  0.1523  0.3317
15864TIP3    H169007   4.442   6.237   1.129  0.1361  0.4991  1.0314
15864TIP3    H269008   4.336   6.320   1.060 -1.5145 -0.7944  1.9163
15865TIP3   OH269009   3.376   3.990  11.039  0.0479  0.0151  0.2212
15865TIP3    H169010   3.289   3.957  11.064  0.0116 -0.1833 -0.1556
15865TIP3    H269011   3.393   4.062  11.100 -1.0627  1.0869 -0.6763
15866TIP3   OH269012   4.960   4.840   1.243 -0.0875  0.5133 -0.2693
15866TIP3    H169013   4.954   4.857   1.337 -0.7091  0.5844 -0.3220
15866TIP3    H269014   5.002   4.753   1.237  0.7922  0.9074  0.0447
15867TIP3   OH269015   4.029   4.110  12.075  0.1529  0.0966 -0.0526
15867TIP3    H169016   4.035   4.184  12.136  0.5756 -0.3053  0.4036
15867TIP3    H269017   4.029   4.032  12.131 -1.7813 -0.2367 -0.4324
15868TIP3   OH269018   5.185   6.745   2.775 -0.1981 -0.1385  0.5318
15868TIP3    H169019   5.262   6.790   2.741 -0.1010 -0.5462  0.2138
15868TIP3    H269020   5.115   6.810   2.770 -0.1059 -0.0848 -0.1142
15869TIP3   OH269021   2.729   4.246  13.958 -0.1323 -0.1791  0.1399
15869TIP3    H169022   2.783   4.319  13.927 -0.0678  0.3862  1.5409
15869TIP3    H269023   2.647   4.254  13.908 -0.8471  1.9721  1.5554
15870TIP3   OH269024   4.516   0.525   1.493 -0.9161 -0.5054 -0.0961
15870TIP3    H169025   4.475   0.439   1.504 -0.9126 -0.7102 -1.5376
15870TIP3    H269026   4.582   0.512   1.425 -2.7789  1.1782 -2.4278
15871TIP3   OH269027   6.436   0.951  15.554 -0.0816 -0.4679  0.5521
15871TIP3    H169028   6.512   0.933  15.609  0.7372  0.4391 -0.2495
15871TIP3    H269029   6.404   0.864  15.529  1.1344 -0.8592  0.2984
15872TIP3   OH269030   6.117   4.435  13.609  0.7458  0.5668  0.1522
15872TIP3    H169031   6.053   4.504  13.588 -0.1273 -0.4627 -0.6434
15872TIP3    H269032   6.071   4.379  13.671  0.8270 -0.2419 -0.5070
15873TIP3   OH269033   3.117   2.479  14.150  0.5725 -0.0957  0.5743
15873TIP3    H169034   3.036   2.499  14.104  1.1680 -0.5819 -0.7450
15873TIP3    H269035   3.098   2.399  14.199  0.7826 -1.3050 -1.2508
15874TIP3   OH269036   5.592   4.546  11.829  0.0181  0.0315  0.8332
15874TIP3    H169037   5.545   4.630  11.831 -1.1466 -0.5684 -0.2319
15874TIP3    H269038   5.651   4.550  11.905  3.0734  3.5217 -1.3531
15875TIP3   OH269039   4.407   2.554   5.930  0.1764  0.2018  0.5407
15875TIP3    H169040   4.457   2.527   5.854 -1.0129 -0.1448 -0.1479
15875TIP3    H269041   4.426   2.647   5.940 -0.6875  0.5868 -1.0308
15876TIP3   OH269042   1.417   3.551  10.591 -0.2688 -0.6375 -0.2213
15876TIP3    H169043   1.345   3.596  10.547  0.0257  1.3038  1.1594
15876TIP3    H269044   1.387   3.540  10.682  0.7226 -0.8229  0.0994
15877TIP3   OH269045   3.277   6.599   4.920 -0.4760 -0.4221 -0.2578
15877TIP3    H169046   3.294   6.582   4.827  0.4618  0.3161 -0.2329
15877TIP3    H269047   3.192   6.557   4.937 -1.3149  0.6010 -1.7669
15878TIP3   OH269048   0.756   4.919   3.368 -0.2867 -0.1737  0.1550
15878TIP3    H169049   0.667   4.884   3.368 -0.9221  1.1174  3.0203
15878TIP3    H269050   0.798   4.878   3.444  0.4222  1.6812  0.8337
15879TIP3   OH269051   3.190   4.858   0.502 -0.6142  0.2583  0.3229
15879TIP3    H169052   3.103   4.896   0.491 -0.4142  0.7542  0.4242
15879TIP3    H269053   3.186   4.812   0.586 -0.2109  1.9370  1.3236
15880TIP3   OH269054   0.225   5.907   0.334  0.1291 -0.4033 -0.0362
15880TIP3    H169055   0.193   5.997   0.331  0.9470 -0.1007 -0.0201
15880TIP3    H269056   0.259   5.891   0.245 -2.0095 -1.4700 -0.7240
15881TIP3   OH269057   0.694   3.381  17.248  0.0119 -0.0994 -0.1241
15881TIP3    H169058   0.694   3.377  17.152 -0.1960 -0.4347 -0.1122
15881TIP3    H269059   0.623   3.323  17.274 -2.0690  2.3755  0.1377
15882TIP3   OH269060   4.053   1.934   1.722 -0.0672 -0.0872  0.1163
15882TIP3    H169061   4.052   2.003   1.655 -0.5602 -2.4630 -2.5562
15882TIP3    H269062   3.961   1.907   1.730  0.1714 -0.7521  0.7256
15883TIP3   OH269063   2.316   4.036   1.511  0.0828  0.2590  0.5231
15883TIP3    H169064   2.349   4.125   1.524 -0.7275  0.6359  0.0048
15883TIP3    H269065   2.224   4.047   1.490  0.1669 -0.6542 -0.3917
15884TIP3   OH269066   4.673   2.136  10.542 -0.3643  0.1919 -0.1583
15884TIP3    H169067   4.725   2.057  10.529 -0.9362 -0.7397  2.5921
15884TIP3    H269068   4.737   2.204  10.565 -0.1422 -0.4446  1.1905
15885TIP3   OH269069   4.472   3.267  16.770  0.2496 -0.2166 -0.2004
15885TIP3    H169070   4.556   3.310  16.783  0.8887 -1.5846  0.4507
15885TIP3    H269071   4.411   3.338  16.749  1.4186  0.8742 -0.0120
15886TIP3   OH269072   3.686   5.254   6.270 -0.3842  0.2723 -0.4685
15886TIP3    H169073   3.701   5.306   6.349  1.7477 -0.8023 -0.0850
15886TIP3    H269074   3.685   5.163   6.301 -0.2089 -0.1308 -1.5804
15887TIP3   OH269075   3.229   1.757   0.882  0.3525 -0.2177  0.2851
15887TIP3    H169076   3.252   1.831   0.826  0.8083 -2.3599 -2.6154
15887TIP3    H269077   3.307   1.742   0.935  0.4644  1.0259  0.4827
15888TIP3   OH269078   0.881   5.545  14.025  0.1016  0.3200 -0.0272
15888TIP3    H169079   0.970   5.558  13.991  0.8838  0.3571  1.9249
15888TIP3    H269080   0.842   5.632  14.025  0.3999  0.4542 -0.0314
15889TIP3   OH269081   5.532   2.591  11.357  0.0408  0.0749 -0.1658
15889TIP3    H169082   5.617   2.632  11.373 -0.4054  1.7043 -1.6955
15889TIP3    H269083   5.548   2.497  11.367  2.0200  0.3507 -0.4553
15890TIP3   OH269084   2.426   6.747  16.238  0.2188  0.4727 -0.4205
15890TIP3    H169085   2.459   6.660  16.261  0.4389  1.1736  2.1968
15890TIP3    H269086   2.331   6.739  16.243  0.2668  0.6339  0.8945
15891TIP3   OH269087   3.589   2.941  14.572 -0.7902  0.0031  0.2902
15891TIP3    H169088   3.580   2.868  14.633 -0.4626 -1.4859 -1.3418
15891TIP3    H269089   3.674   2.928  14.531 -0.3231  1.8570  0.5941
15892TIP3   OH269090   1.035   5.740  15.981 -0.7862  0.8983  0.1905
15892TIP3    H169091   1.100   5.775  15.919 -0.3758  2.4185  1.4146
15892TIP3    H269092   1.060   5.648  15.993 -0.4665  0.7582 -1.3484
15893TIP3   OH269093   2.278   3.139   2.764 -0.0705  0.9744  0.2335
15893TIP3    H169094   2.233   3.169   2.685  0.4004 -0.1424 -0.4878
15893TIP3    H269095   2.229   3.062   2.792  1.6851 -0.6400 -0.9297
15894TIP3   OH269096   4.720   4.852   1.135 -0.7916 -0.6553  0.4554
15894TIP3    H169097   4.682   4.935   1.162 -0.2542 -0.4181  0.4838
15894TIP3    H269098   4.811   4.856   1.164 -1.2111 -2.0296  2.1956
15895TIP3   OH269099   6.751   2.663  16.946 -0.1922  0.3860 -0.1143
15895TIP3    H169100   6.783   2.708  17.024 -0.6225  1.9241 -0.7756
15895TIP3    H269101   6.828   2.653  16.890  0.3388 -1.6619  0.8711
15896TIP3   OH269102   0.837   6.634   2.846 -0.1783 -0.1721 -0.0284
15896TIP3    H169103   0.749   6.633   2.881 -0.0005  0.0527  0.4279
15896TIP3    H269104   0.841   6.713   2.792 -0.4010 -0.4354 -0.4419
15897TIP3   OH269105   6.326   2.456   0.456 -0.0054 -0.3203 -0.0642
15897TIP3    H169106   6.343   2.458   0.550 -1.1290 -0.9075  0.1723
15897TIP3    H269107   6.296   2.544   0.434  1.5142  0.2060 -0.1505
15898TIP3   OH269108   1.363   0.459   3.783  0.5799  0.2384  0.2329
15898TIP3    H169109   1.403   0.545   3.793 -0.3985  0.7428 -0.1049
15898TIP3    H269110   1.269   0.476   3.778  0.4759 -0.5489 -2.5881
15899TIP3   OH269111   4.579   4.497   3.212  0.4759 -0.3235 -0.6807
15899TIP3    H169112   4.556   4.586   3.184 -0.7576 -0.4662 -0.1923
15899TIP3    H269113   4.674   4.495   3.209  0.7146  1.9499  2.0124
15900TIP3   OH269114   5.962   6.733   2.317 -0.2442 -0.1070  0.5620
15900TIP3    H169115   5.991   6.648   2.349 -2.2944 -0.9915  0.2500
15900TIP3    H269116   5.972   6.793   2.391  0.1328 -0.8829  1.1422
15901TIP3   OH269117   4.476   2.975   4.725 -0.7980  0.2274  0.3038
15901TIP3    H169118   4.486   3.031   4.648 -1.2466 -2.3118 -1.7441
15901TIP3    H269119   4.560   2.981   4.770 -0.0992  0.8752 -1.0373
15902TIP3   OH269120   4.358   1.032   0.054  0.6215  0.3143  0.1968
15902TIP3    H169121   4.448   1.046   0.084  0.4907  0.1209  0.6880
15902TIP3    H269122   4.362   1.047  -0.041  0.9533  1.3364  0.3661
15903TIP3   OH269123   5.337   2.048   4.115  0.0482 -0.0793 -0.2453
15903TIP3    H169124   5.331   1.959   4.148 -0.1568  0.3335  0.8873
15903TIP3    H269125   5.418   2.050   4.064  1.0723 -0.4276  1.3121
15904TIP3   OH269126   2.914   4.518  16.601 -0.1741  0.2484 -0.4707
15904TIP3    H169127   2.971   4.592  16.576 -0.1384 -0.4406 -2.6161
15904TIP3    H269128   2.952   4.443  16.556 -1.4526 -0.6793 -0.0391
15905TIP3   OH269129   6.460   4.135  16.980  0.1810 -0.1045 -0.1166
15905TIP3    H169130   6.384   4.169  17.027  0.7503  0.0312  0.7261
15905TIP3    H269131   6.462   4.042  17.002  0.0437 -0.1904 -0.4510
15906TIP3   OH269132   0.333   0.726   1.185 -0.3126 -0.0410  0.0078
15906TIP3    H169133   0.428   0.736   1.182 -0.1084 -1.7823 -1.3981
15906TIP3    H269134   0.299   0.810   1.154  0.7290  0.7748  0.9840
15907TIP3   OH269135   3.235   2.767  11.826  0.1684 -0.0162 -0.4265
15907TIP3    H169136   3.210   2.819  11.750 -0.7230  0.2398  0.0263
15907TIP3    H269137   3.273   2.831  11.887 -1.4716  0.2430  0.3731
15908TIP3   OH269138   0.967   4.810   4.631 -0.2310  0.0901 -0.1570
15908TIP3    H169139   0.907   4.872   4.672 -0.8037 -0.8693  0.5004
15908TIP3    H269140   1.020   4.863   4.571 -2.5230  0.8210 -1.6888
15909TIP3   OH269141   2.876   2.408  14.595 -0.2358 -0.3052 -0.4939
15909TIP3    H169142   2.950   2.445  14.548 -1.2924  0.8827 -1.2943
15909TIP3    H269143   2.916   2.357  14.666  1.3495 -0.7133 -1.6177
15910TIP3   OH269144   4.093   1.914  15.821  0.2459  0.2416 -0.1746
15910TIP3    H169145   4.141   1.854  15.764 -1.4989 -1.8717  0.4448
15910TIP3    H269146   4.158   1.943  15.886  0.9621 -1.7077  0.0394
15911TIP3   OH269147   4.440   2.387  12.963  0.2614  0.1492  0.0480
15911TIP3    H169148   4.455   2.435  12.881 -1.3133 -2.3515 -1.8614
15911TIP3    H269149   4.492   2.307  12.953 -0.8920 -0.7357  0.9665
15912TIP3   OH269150   3.737   6.426  17.204 -0.6344  0.3878  0.5740
15912TIP3    H169151   3.731   6.337  17.240 -2.0214  0.1495 -0.1681
15912TIP3    H269152   3.808   6.467  17.253  1.5991 -1.8235 -0.5911
15913TIP3   OH269153   6.124   4.387   2.683  0.2023  0.1076  0.4134
15913TIP3    H169154   6.048   4.329   2.691 -0.8295  1.2947 -0.3061
15913TIP3    H269155   6.105   4.440   2.605  0.6452  2.0356  1.5599
15914TIP3   OH269156   5.872   0.387   5.330  0.1150 -0.4848  0.1033
15914TIP3    H169157   5.865   0.482   5.320 -1.0736 -0.2459  2.5207
15914TIP3    H269158   5.858   0.372   5.423 -0.6131 -3.1259 -0.3620
15915TIP3   OH269159   0.289   1.502  12.199 -0.2086  0.1889  0.3261
15915TIP3    H169160   0.368   1.544  12.232 -1.2748  1.4976  1.3581
15915TIP3    H269161   0.319   1.446  12.127  1.7059  0.1651  1.0888
15916TIP3   OH269162   1.126   3.092   3.077 -0.6827 -0.3502  0.0382
15916TIP3    H169163   1.162   3.181   3.074  0.5314 -0.8353 -0.3042
15916TIP3    H269164   1.054   3.098   3.139 -1.0588  1.0256 -0.4833
15917TIP3   OH269165   5.894   4.136  15.214 -0.0779 -0.6103 -0.0152
15917TIP3    H169166   5.978   4.096  15.236 -0.9201 -2.2152  0.3937
15917TIP3    H269167   5.876   4.108  15.124  0.0843  0.2175 -0.3157
15918TIP3   OH269168   5.809   2.121  13.585 -0.2256 -0.8835  0.0603
15918TIP3    H169169   5.835   2.084  13.670  1.2090  3.0668  1.5609
15918TIP3    H269170   5.759   2.199  13.607 -1.3301 -0.6700 -2.8146
15919TIP3   OH269171   2.950   1.890   0.120 -0.2857 -0.3894 -0.7504
15919TIP3    H169172   2.923   1.979   0.096  1.6436  0.8344  1.2549
15919TIP3    H269173   2.892   1.865   0.192 -0.6792 -0.6862 -1.1637
15920TIP3   OH269174   6.404   6.616  16.818 -0.2144  0.2667 -0.0127
15920TIP3    H169175   6.443   6.595  16.733  0.2009  0.5954  0.0947
15920TIP3    H269176   6.474   6.599  16.881  0.2824  2.3089  0.0470
15921TIP3   OH269177   6.553   0.070   4.294  0.1053  0.3756 -0.1656
15921TIP3    H169178   6.605   0.028   4.226  0.8331  2.0300 -0.6702
15921TIP3    H269179   6.467   0.084   4.253  0.8558  2.3299 -1.1587
15922TIP3   OH269180   6.750   5.256  11.840 -0.0563  0.8834  0.0369
15922TIP3    H169181   6.736   5.162  11.835  0.3524  0.8468 -0.5970
15922TIP3    H269182   6.792   5.278  11.756  2.2657  1.2107  1.2106
15923TIP3   OH269183   2.206   0.288   4.457 -0.3003  0.0205  0.0550
15923TIP3    H169184   2.134   0.347   4.480 -0.8052 -0.9705  1.0611
15923TIP3    H269185   2.268   0.297   4.529 -0.2090 -0.4116  0.0285
15924TIP3   OH269186   3.161   1.527  13.094 -0.5344 -0.1594 -0.2773
15924TIP3    H169187   3.074   1.494  13.119 -0.7928 -1.1737 -2.2970
15924TIP3    H269188   3.178   1.487  13.009  2.0578 -0.1927  0.1722
15925TIP3   OH269189   1.477   4.469   5.400  0.5193 -0.0623 -0.2507
15925TIP3    H169190   1.464   4.433   5.487  0.7578 -0.2699 -0.3006
15925TIP3    H269191   1.490   4.562   5.414 -1.0451  0.1805 -0.1924
15926TIP3   OH269192   5.890   1.868  14.854 -0.0577 -0.5516 -0.3918
15926TIP3    H169193   5.875   1.949  14.806 -0.9817 -0.7502 -0.4677
15926TIP3    H269194   5.981   1.873  14.883 -0.4604  1.1195  0.7387
15927TIP3   OH269195   4.964   3.266   4.661 -0.7822 -0.2393 -0.4630
15927TIP3    H169196   4.876   3.270   4.699  0.1810 -2.7453  2.4484
15927TIP3    H269197   5.011   3.338   4.703 -0.7047 -0.7381  0.3338
15928TIP3   OH269198   6.779   5.557  12.512  0.4586 -0.0911 -0.3112
15928TIP3    H169199   6.748   5.647  12.522 -0.7637  0.0409 -3.8799
15928TIP3    H269200   6.874   5.562  12.527  0.1989  1.4828  0.9437
15929TIP3   OH269201   3.051   0.214   4.863 -0.6123 -0.1678  0.4494
15929TIP3    H169202   3.048   0.305   4.893 -3.2243 -0.0250 -0.0534
15929TIP3    H269203   3.143   0.200   4.839  0.1790  1.7943  2.0848
15930TIP3   OH269204   5.949   3.741   4.077  0.0415 -0.0446  0.1118
15930TIP3    H169205   5.916   3.819   4.122 -1.0799 -0.1133 -0.5457
15930TIP3    H269206   5.872   3.706   4.030  0.7085 -1.0946 -0.2364
15931TIP3   OH269207   3.136   5.834   3.245 -0.3799  0.1432 -0.3160
15931TIP3    H169208   3.049   5.853   3.280 -0.3152 -0.2651  0.0824
15931TIP3    H269209   3.178   5.919   3.235 -0.3266  0.2643  0.8066
15932TIP3   OH269210   3.057   0.867  13.501 -0.8420 -0.0121  0.4034
15932TIP3    H169211   2.991   0.833  13.440 -0.7933  0.9769 -0.2159
15932TIP3    H269212   3.015   0.863  13.587 -1.8512  0.9296 -0.0227
15933TIP3   OH269213   2.929   6.068   4.374  0.2811 -0.0140 -0.4347
15933TIP3    H169214   2.979   6.083   4.294 -0.9231  1.7330 -0.9029
15933TIP3    H269215   2.848   6.027   4.345  0.4924 -0.8405  0.0921
15934TIP3   OH269216   3.281   5.061  14.602  0.4854 -0.1222 -0.4593
15934TIP3    H169217   3.293   4.970  14.631 -1.5948 -0.2826  0.0593
15934TIP3    H269218   3.360   5.080  14.551  1.6747 -1.6992  0.6733
15935TIP3   OH269219   5.948   3.181  12.927 -0.1287  0.7248  0.2404
15935TIP3    H169220   6.005   3.187  12.850 -1.6980  0.3390 -1.0063
15935TIP3    H269221   5.966   3.260  12.976  1.2243  0.7811 -0.2889
15936TIP3   OH269222   5.882   6.524   0.426  0.2101 -0.3397  0.3051
15936TIP3    H169223   5.972   6.493   0.429  0.2601 -0.2680 -0.4939
15936TIP3    H269224   5.886   6.614   0.459  0.3932 -0.4021  0.4576
15937TIP3   OH269225   3.500   1.605  13.702 -0.2841 -0.2697  0.4000
15937TIP3    H169226   3.448   1.623  13.780 -1.4762  0.2346 -0.4895
15937TIP3    H269227   3.437   1.580  13.635  0.8034 -1.6792 -0.1601
15938TIP3   OH269228   4.602   0.301  10.279  0.0014 -0.2408 -0.3329
15938TIP3    H169229   4.581   0.214  10.246 -0.2898  0.1102 -1.1031
15938TIP3    H269230   4.640   0.286  10.366 -0.1942 -1.1171 -0.3944
15939TIP3   OH269231   2.798   6.753  11.266 -1.3963 -0.5983  0.0943
15939TIP3    H169232   2.879   6.776  11.312 -0.2820 -2.6983 -0.6568
15939TIP3    H269233   2.728   6.783  11.324 -0.0703  0.2289  1.3346
15940TIP3   OH269234   3.677   1.894  12.967  0.4681 -0.0577  0.5637
15940TIP3    H169235   3.610   1.828  12.984  1.0687 -0.6369  0.6846
15940TIP3    H269236   3.627   1.972  12.941 -0.3026 -0.1870  1.5777
15941TIP3   OH269237   4.129   4.760   2.758 -0.3349  0.2755 -0.1524
15941TIP3    H169238   4.213   4.757   2.712 -0.8980  0.2348 -1.2187
15941TIP3    H269239   4.081   4.831   2.715 -0.9308  0.1448  0.2876
15942TIP3   OH269240   1.196   0.594  14.178 -0.0807 -0.4725  0.0803
15942TIP3    H169241   1.172   0.504  14.157 -0.0237 -0.2842 -0.8260
15942TIP3    H269242   1.288   0.602  14.151 -0.1841 -0.0509 -0.1665
15943TIP3   OH269243   5.022   2.813  13.211  0.3372  0.3408 -0.9632
15943TIP3    H169244   5.083   2.827  13.139  0.3799  1.3411 -0.7374
15943TIP3    H269245   4.956   2.754  13.174 -0.0419  1.4046 -2.0636
15944TIP3   OH269246   2.944   1.832   3.742 -0.4807  0.1929 -0.2691
15944TIP3    H169247   2.885   1.893   3.784  0.1736  0.0200  0.9383
15944TIP3    H269248   3.032   1.866   3.761 -0.1131 -0.9732  0.2237
15945TIP3   OH269249   4.614   6.225   3.567 -0.2571 -0.1292 -0.0605
15945TIP3    H169250   4.588   6.173   3.491 -0.6675 -0.0752  0.0400
15945TIP3    H269251   4.709   6.212   3.574  0.2446  1.8033 -2.0691
15946TIP3   OH269252   6.715   5.978  13.307 -0.1098  0.2746  0.1792
15946TIP3    H169253   6.775   6.047  13.278  0.5034 -0.3991 -0.1823
15946TIP3    H269254   6.760   5.896  13.286  0.9135 -0.3291  4.1031
15947TIP3   OH269255   6.760   6.407   0.051  0.1989 -0.1153  0.3918
15947TIP3    H169256   6.806   6.343   0.106  0.9859  0.5969  0.5860
15947TIP3    H269257   6.724   6.471   0.113 -0.2662 -0.1669  0.1772
15948TIP3   OH269258   6.753   0.000   1.542 -0.0233  0.3740 -0.2390
15948TIP3    H169259   6.784   0.007   1.452  0.0861 -0.3936 -0.2687
15948TIP3    H269260   6.669  -0.046   1.535  0.7469 -1.1475  0.1717
15949TIP3   OH269261   3.109   2.039   4.401 -0.3778  0.1338 -0.2226
15949TIP3    H169262   3.105   1.952   4.442  0.8109  0.9476  1.7376
15949TIP3    H269263   3.178   2.032   4.336  0.7178 -0.0373  0.9254
15950TIP3   OH269264   6.220   1.342   2.335  0.1294  0.5083 -0.0861
15950TIP3    H169265   6.313   1.320   2.339 -0.1891 -0.8991 -0.0704
15950TIP3    H269266   6.194   1.324   2.245 -0.0627  1.2148 -0.1791
15951TIP3   OH269267   1.687   0.489   2.166 -0.3063 -0.7753 -0.0142
15951TIP3    H169268   1.763   0.529   2.207 -0.6002 -2.0452  1.8886
15951TIP3    H269269   1.692   0.515   2.074  3.6281 -2.6002 -0.4860
15952TIP3   OH269270   5.110   3.356  12.901  0.3618  0.2647  0.8192
15952TIP3    H169271   5.191   3.405  12.887 -0.3447  1.1884 -0.1993
15952TIP3    H269272   5.120   3.278  12.847  0.5068  0.4515  0.5748
15953TIP3   OH269273   1.926   6.307   2.970  0.4526 -0.0590 -0.7545
15953TIP3    H169274   1.910   6.380   2.910  0.6046  0.7108  0.1091
15953TIP3    H269275   1.840   6.288   3.008  1.0022  2.9123  2.5750
15954TIP3   OH269276   3.451   6.331   1.611 -0.6335  0.0077  0.2301
15954TIP3    H169277   3.425   6.378   1.532 -0.6191  0.2525  0.3688
15954TIP3    H269278   3.387   6.260   1.618 -0.0344 -0.6211 -0.5438
15955TIP3   OH269279   1.375   4.702   6.167 -0.2436 -0.5045  0.1746
15955TIP3    H169280   1.356   4.795   6.177  0.4924 -0.2865 -0.3547
15955TIP3    H269281   1.295   4.664   6.131 -1.2515 -0.4461  2.2017
15956TIP3   OH269282   3.525   2.697  11.538  0.1261  0.4615  0.1850
15956TIP3    H169283   3.602   2.745  11.507  0.7765 -1.5473 -1.5095
15956TIP3    H269284   3.536   2.694  11.633  2.3551 -0.0596 -0.0289
15957TIP3   OH269285   2.661   1.977   1.570  0.1805 -0.5133  0.6164
15957TIP3    H169286   2.735   2.033   1.547  0.0464  0.0387  1.4634
15957TIP3    H269287   2.653   1.916   1.497 -0.0383  0.9506 -0.6441
15958TIP3   OH269288   2.161   1.423   1.678 -0.0645  0.0102  0.0486
15958TIP3    H169289   2.224   1.489   1.707  0.3074 -0.3281  0.0121
15958TIP3    H269290   2.128   1.384   1.759  1.2570 -1.2014  0.0300
15959TIP3   OH269291   1.939   3.870  16.018  0.1709 -0.2107 -0.3203
15959TIP3    H169292   1.863   3.893  16.071  0.6666 -0.6560  0.6223
15959TIP3    H269293   1.961   3.781  16.047  2.2762  0.6467  0.9587
15960TIP3   OH269294   5.117   0.549  12.571 -0.0882 -0.8595 -1.0744
15960TIP3    H169295   5.070   0.621  12.528  0.4099 -0.8058 -1.5358
15960TIP3    H269296   5.053   0.512  12.632  0.4101  1.5893  1.0823
15961TIP3   OH269297   6.533   1.656   4.966  0.3838  0.1648  0.3480
15961TIP3    H169298   6.458   1.712   4.988 -0.6960 -1.9409  2.4477
15961TIP3    H269299   6.594   1.669   5.038  1.2543  0.4409 -0.4139
15962TIP3   OH269300   0.156   3.508  12.790  0.3200  0.5385  0.4347
15962TIP3    H169301   0.061   3.499  12.781  0.5029  0.0244 -1.2498
15962TIP3    H269302   0.177   3.589  12.743  0.8786 -0.1363 -0.5020
15963TIP3   OH269303   5.651   4.415   6.012 -0.4028 -0.2340  0.4373
15963TIP3    H169304   5.708   4.395   5.938  0.1976 -2.3548  1.4079
15963TIP3    H269305   5.680   4.356   6.082 -2.1631  0.3829  1.7578
15964TIP3   OH269306   5.182   0.472   5.918 -0.0295  0.6001  0.0793
15964TIP3    H169307   5.137   0.468   6.002  2.6683 -0.2290  1.5967
15964TIP3    H269308   5.198   0.565   5.903  1.4225  0.6581  1.6818
15965TIP3   OH269309   4.638   2.125  16.533 -0.8419 -0.1177  0.1553
15965TIP3    H169310   4.568   2.190  16.530 -2.0400 -1.3132  1.0060
15965TIP3    H269311   4.606   2.058  16.594  1.5007 -0.1973  1.3808
15966TIP3   OH269312   1.805   3.272   2.528  0.3577 -0.1412 -0.2416
15966TIP3    H169313   1.747   3.268   2.604  1.0905 -1.0725  0.2723
15966TIP3    H269314   1.750   3.241   2.455 -0.0500 -0.1881  0.0785
15967TIP3   OH269315   2.114   5.712   1.357  0.0578 -0.5292 -0.0157
15967TIP3    H169316   2.184   5.662   1.398  1.8992  0.8614 -1.3431
15967TIP3    H269317   2.034   5.680   1.400  1.5630 -1.4015  2.3207
15968TIP3   OH269318   1.370   6.290   1.559  0.0396 -0.3928 -0.2622
15968TIP3    H169319   1.410   6.370   1.595  0.3587 -1.0204  0.8111
15968TIP3    H269320   1.281   6.290   1.595  0.2558 -0.8553  0.2871
15969TIP3   OH269321   4.937   0.812   1.246  0.3177  0.1236  0.4487
15969TIP3    H169322   5.009   0.874   1.251  1.0186 -0.6817  0.6397
15969TIP3    H269323   4.899   0.826   1.159  2.6125 -1.4636 -0.9066
15970TIP3   OH269324   0.692   3.022   4.461  0.2758  0.3105  0.5113
15970TIP3    H169325   0.709   2.939   4.504  0.7934  0.9445  1.5640
15970TIP3    H269326   0.744   3.086   4.509  1.7233  0.9202 -1.6969
15971TIP3   OH269327   1.284   4.949   0.966  0.2229  0.3136  0.1859
15971TIP3    H169328   1.365   4.930   1.014  0.4174  0.1024 -0.2149
15971TIP3    H269329   1.313   4.962   0.876 -0.1719  0.4020  0.0710
15972TIP3   OH269330   5.495   5.429   1.054 -0.4456  0.3013  0.2587
15972TIP3    H169331   5.452   5.504   1.013  0.3597 -0.3084 -1.8832
15972TIP3    H269332   5.437   5.355   1.035  1.2904 -0.5011 -2.5338
15973TIP3   OH269333   0.309   0.342   0.675  0.5862  0.2900  0.0254
15973TIP3    H169334   0.276   0.317   0.589  2.2066 -2.4605  0.0913
15973TIP3    H269335   0.275   0.274   0.734 -0.9890  2.4330  1.7603
15974TIP3   OH269336   3.489   5.841   0.615 -0.0596 -0.6693  0.2545
15974TIP3    H169337   3.456   5.895   0.686  0.9344 -0.5654  0.6574
15974TIP3    H269338   3.545   5.776   0.657  0.4624 -0.6701 -0.4141
15975TIP3   OH269339   0.427   1.538   0.377  0.0009  0.2166  0.0002
15975TIP3    H169340   0.372   1.460   0.374 -0.9789  0.7949  1.6132
15975TIP3    H269341   0.392   1.595   0.309 -0.3857 -0.0589 -0.0328
15976TIP3   OH269342   2.857   4.113  16.848 -0.1985  0.1924 -0.1447
15976TIP3    H169343   2.884   4.035  16.898 -1.1523  1.3712  2.4104
15976TIP3    H269344   2.937   4.165  16.841  1.0603 -1.8922 -3.9693
15977TIP3   OH269345   2.925   6.613   0.529 -0.9095 -0.4182  0.4764
15977TIP3    H169346   2.939   6.670   0.453  1.2099  0.8443  1.7322
15977TIP3    H269347   2.995   6.547   0.523 -0.9397 -0.5214  1.1474
15978TIP3   OH269348   5.152   5.065  16.153  0.2621  1.1435  0.2410
15978TIP3    H169349   5.195   5.014  16.084 -1.0962 -0.1358  0.2935
15978TIP3    H269350   5.224   5.094  16.210  1.1488 -0.1429 -0.1796
15979TIP3   OH269351   0.733   4.284   0.037 -0.1043 -0.1108  0.3950
15979TIP3    H169352   0.802   4.342   0.007  0.8542 -1.7500 -0.7288
15979TIP3    H269353   0.751   4.271   0.130  2.7033 -2.4575 -0.3301
15980TIP3   OH269354   2.353   3.871   2.226 -0.3800 -0.1486  0.5468
15980TIP3    H169355   2.277   3.865   2.168  0.1453  0.3849 -0.2267
15980TIP3    H269356   2.354   3.789   2.274 -2.1477  0.3187  1.4648
15981TIP3   OH269357   5.596   4.640  12.938 -0.2468  0.4548  0.3294
15981TIP3    H169358   5.622   4.728  12.965  2.0114  0.3573 -1.2444
15981TIP3    H269359   5.678   4.596  12.915 -1.2085 -2.3542  1.7200
15982TIP3   OH269360   1.038   3.867  11.442  0.3447  0.0050  0.2838
15982TIP3    H169361   1.118   3.816  11.427  1.0832  1.0352  0.5309
15982TIP3    H269362   1.002   3.832  11.523  1.1058  0.1869  0.7150
15983TIP3   OH269363   2.454   2.425   6.561  0.7831  0.1541 -0.6537
15983TIP3    H169364   2.387   2.494   6.563  1.7350  1.1153 -0.6881
15983TIP3    H269365   2.405   2.344   6.570 -0.3060  0.8836  0.3425
15984TIP3   OH269366   1.698   1.811   5.781 -0.3155  0.0280 -0.0833
15984TIP3    H169367   1.751   1.849   5.851  1.4867 -0.8988 -0.8835
15984TIP3    H269368   1.691   1.880   5.715  0.5158 -0.0608 -0.2757
15985TIP3   OH269369   1.529   0.285  11.871  0.2332 -0.1675 -0.0070
15985TIP3    H169370   1.503   0.315  11.784 -2.7775  1.5015  1.3502
15985TIP3    H269371   1.606   0.338  11.893 -0.6765  1.4274 -0.5540
15986TIP3   OH269372   3.517   0.633  15.697 -0.2580 -0.5168 -0.3895
15986TIP3    H169373   3.431   0.597  15.719 -0.6002  0.2138 -0.4910
15986TIP3    H269374   3.552   0.665  15.780  0.3031 -1.6049 -0.1988
15987TIP3   OH269375   2.910   3.175   4.953 -0.0607  0.3374  0.0127
15987TIP3    H169376   2.944   3.162   4.864  0.9610 -0.1872  0.4597
15987TIP3    H269377   2.944   3.100   5.002 -0.5761  0.6474  0.8602
15988TIP3   OH269378   4.871   6.597  13.857 -0.3949 -0.0375  0.1307
15988TIP3    H169379   4.838   6.510  13.835  0.6608 -0.1134 -1.3175
15988TIP3    H269380   4.822   6.623  13.935  0.1483 -2.4295  1.3599
15989TIP3   OH269381   4.653   4.240  15.857 -0.3563 -0.1722  0.4037
15989TIP3    H169382   4.694   4.254  15.942 -0.6416 -1.4114  0.7702
15989TIP3    H269383   4.694   4.305  15.799  1.4609 -0.7663  0.9619
15990TIP3   OH269384   0.555   5.822   5.749  0.8313  0.5543  0.6448
15990TIP3    H169385   0.639   5.861   5.723  2.0990 -2.6272 -0.5120
15990TIP3    H269386   0.579   5.749   5.807 -1.2462  0.2614  1.2288
15991TIP3   OH269387   1.749   3.975  11.978 -0.4677 -0.0388  0.1368
15991TIP3    H169388   1.665   4.015  11.955 -0.9765  0.0787  2.0059
15991TIP3    H269389   1.805   4.050  12.002  0.6624  0.0045 -2.3940
15992TIP3   OH269390   3.549   2.942   4.615  0.1387  0.0971 -1.0095
15992TIP3    H169391   3.591   2.897   4.542 -1.3873 -1.8881 -0.7621
15992TIP3    H269392   3.455   2.927   4.602 -0.2625  1.0626  0.4933
15993TIP3   OH269393   2.148   2.178  16.812 -0.3871  0.0819  0.2772
15993TIP3    H169394   2.157   2.122  16.735  0.8875  0.9980 -0.2721
15993TIP3    H269395   2.201   2.136  16.879  0.3830  0.4984 -0.0641
15994TIP3   OH269396   5.273   1.953   5.127 -0.0031 -0.4282  0.0346
15994TIP3    H169397   5.308   1.877   5.175  1.6794  0.5175  0.4041
15994TIP3    H269398   5.214   1.995   5.190  1.3226  0.1734  0.9281
15995TIP3   OH269399   6.089   2.965  14.117 -0.5032 -0.1434 -0.4784
15995TIP3    H169400   6.114   2.988  14.206  1.1299  1.0983 -1.1929
15995TIP3    H269401   6.015   2.905  14.127 -0.4785  0.1115  1.6816
15996TIP3   OH269402   5.586   0.309   0.722  0.3175  0.6232 -0.1381
15996TIP3    H169403   5.527   0.383   0.732 -0.8426 -0.2224 -0.4640
15996TIP3    H269404   5.528   0.233   0.713  1.2684  0.1295 -4.2151
15997TIP3   OH269405   6.313   6.660  15.070  0.2246  0.1269 -0.0882
15997TIP3    H169406   6.401   6.697  15.069 -0.2349  1.4203  1.6745
15997TIP3    H269407   6.262   6.716  15.012  0.7746 -1.4120 -2.1820
15998TIP3   OH269408   0.752   2.707  13.259  0.1843  0.1824  0.3980
15998TIP3    H169409   0.711   2.719  13.173  3.1427  1.3410 -0.9781
15998TIP3    H269410   0.808   2.630  13.249  0.8595  0.5577  1.1888
15999TIP3   OH269411   4.726   1.424   2.923 -0.6276 -0.2535  0.3765
15999TIP3    H169412   4.644   1.466   2.897  0.9997  1.7912 -1.9984
15999TIP3    H269413   4.713   1.331   2.904 -1.4875  0.4020 -2.9127
16000TIP3   OH269414   3.077   3.976   2.253 -0.1573  0.0798  0.1880
16000TIP3    H169415   3.126   3.968   2.171 -1.1924  0.2299 -0.4531
16000TIP3    H269416   3.043   4.065   2.252 -0.9222 -0.2067  0.3628
16001TIP3   OH269417   0.518   5.514  15.238  0.2179 -0.1055  0.2141
16001TIP3    H169418   0.553   5.597  15.269 -0.5482 -0.4187  2.0121
16001TIP3    H269419   0.423   5.526  15.236  0.2232  0.0060 -2.4364
16002TIP3   OH269420   1.869   4.286  12.356 -0.3475  0.5378 -0.0059
16002TIP3    H169421   1.793   4.256  12.306 -0.8223  0.9080  0.4852
16002TIP3    H269422   1.938   4.223  12.335 -1.7361 -1.9226  2.2866
16003TIP3   OH269423   1.729   1.713  17.021 -0.8880  0.5158 -0.1987
16003TIP3    H169424   1.809   1.767  17.018 -0.4723  0.0022  1.2033
16003TIP3    H269425   1.752   1.635  16.970 -0.4637  0.3424  0.2473
16004TIP3   OH269426   2.137   0.448  14.708 -0.0452  0.3375  0.3751
16004TIP3    H169427   2.129   0.367  14.760  0.7658 -0.6628 -0.9816
16004TIP3    H269428   2.073   0.437  14.637  0.1365  0.8371  0.1288
16005TIP3   OH269429   2.314   1.295   1.991 -0.3420 -0.1009  0.0584
16005TIP3    H169430   2.231   1.329   2.023 -1.8078 -2.3086 -1.1193
16005TIP3    H269431   2.318   1.206   2.024  1.1986 -0.2918 -0.5598
16006TIP3   OH269432   6.340   3.910   1.957 -0.3275  0.5818  0.3120
16006TIP3    H169433   6.373   3.821   1.945  0.2526  0.9658 -1.1730
16006TIP3    H269434   6.272   3.919   1.890 -0.8263  1.0600  0.8714
16007TIP3   OH269435   0.353   2.679   5.698  0.0676  0.0555  0.1222
16007TIP3    H169436   0.375   2.671   5.605  1.0911  1.2900  0.2362
16007TIP3    H269437   0.414   2.619   5.742  0.2612  0.2158  0.0737
16008TIP3   OH269438   1.645   3.719  12.721 -0.0550  0.6027 -0.1333
16008TIP3    H169439   1.635   3.772  12.800  0.3041 -0.1325  0.4251
16008TIP3    H269440   1.559   3.722  12.679 -0.1509  1.2866  0.1019
16009TIP3   OH269441   0.005   1.265  13.564  0.0122 -0.3899 -0.0583
16009TIP3    H169442  -0.074   1.213  13.552  0.4677 -1.0128 -0.3927
16009TIP3    H269443  -0.002   1.336  13.500  0.5157 -1.4005 -1.2630
16010TIP3   OH269444   1.898   5.581   3.518  0.5291  0.4918 -0.1708
16010TIP3    H169445   1.863   5.531   3.444 -0.4804  1.4381 -0.3493
16010TIP3    H269446   1.892   5.672   3.490 -0.1320  0.8864  1.1875
16011TIP3   OH269447   0.319   1.298   0.451  0.6687  0.2365 -0.0969
16011TIP3    H169448   0.289   1.210   0.429  0.1841 -0.1947  2.1117
16011TIP3    H269449   0.270   1.322   0.529  0.0500  2.9148 -1.2034
16012TIP3   OH269450   2.192   5.236  15.589  0.1335 -0.0143  0.4441
16012TIP3    H169451   2.183   5.264  15.498  1.3658 -1.0213 -0.0099
16012TIP3    H269452   2.135   5.160  15.596 -1.8664  1.4476  1.2209
16013TIP3   OH269453   0.342   3.893  16.473 -1.0101  0.1254 -0.1496
16013TIP3    H169454   0.288   3.972  16.466 -1.3007  0.0939  1.4270
16013TIP3    H269455   0.415   3.919  16.529 -0.0363 -0.1920 -1.2395
16014TIP3   OH269456   1.865   1.714   3.102  0.4525  0.3138  0.1837
16014TIP3    H169457   1.882   1.626   3.069 -3.5926 -1.3095  1.7588
16014TIP3    H269458   1.816   1.756   3.031  1.2222  0.8412 -0.0436
16015TIP3   OH269459   4.003   3.899  12.239  0.0155 -0.5959  0.2118
16015TIP3    H169460   3.927   3.880  12.185 -0.8793  3.5240 -0.2951
16015TIP3    H269461   4.050   3.816  12.244 -2.8183 -2.5450 -2.0905
16016TIP3   OH269462   0.124   6.660  11.469 -0.5839 -0.4751  0.2461
16016TIP3    H169463   0.076   6.742  11.479 -1.4866 -1.0633  1.0020
16016TIP3    H269464   0.136   6.650  11.374 -3.0876 -0.8892 -0.0960
16017TIP3   OH269465   5.247   1.072   0.890  0.4835 -0.2915  0.0105
16017TIP3    H169466   5.194   1.031   0.821  1.2005  0.3361 -0.9503
16017TIP3    H269467   5.184   1.095   0.958 -0.1712 -1.3947 -0.1973
16018TIP3   OH269468   6.687   0.549  14.519  0.3006  0.0818  0.0533
16018TIP3    H169469   6.626   0.574  14.589  0.0619 -0.9017  0.2162
16018TIP3    H269470   6.649   0.469  14.482 -0.6041  1.5861 -2.5084
16019TIP3   OH269471   1.544   0.748   5.720  0.1258  0.0753  0.0381
16019TIP3    H169472   1.557   0.690   5.795 -1.4404  0.2662  0.4901
16019TIP3    H269473   1.476   0.809   5.749 -0.4137  0.2401 -1.4971
16020TIP3   OH269474   3.860   2.296   3.029  0.5233 -0.2730  0.9852
16020TIP3    H169475   3.877   2.390   3.037 -0.4628 -0.1282  1.6124
16020TIP3    H269476   3.944   2.254   3.050  1.6282  0.4826 -1.5582
16021TIP3   OH269477   2.071   5.668  14.703  0.5523 -0.2920 -0.4973
16021TIP3    H169478   2.039   5.584  14.736 -0.4076  0.2949  0.1115
16021TIP3    H269479   1.994   5.710  14.665  0.5987  1.0852  0.8385
16022TIP3   OH269480   5.103   5.817  11.197 -0.7050 -0.1219 -0.1726
16022TIP3    H169481   5.012   5.806  11.170 -1.0496 -1.4700  1.3768
16022TIP3    H269482   5.145   5.735  11.171  0.9076  1.5528 -3.6023
16023TIP3   OH269483   1.957   6.521   0.442 -0.4906  0.1993 -0.1594
16023TIP3    H169484   2.017   6.489   0.509 -0.1405 -0.1181 -0.6173
16023TIP3    H269485   2.001   6.596   0.403  1.3517 -2.1200 -2.9700
16024TIP3   OH269486   2.433   4.245  15.177 -0.4199  0.0806 -0.7467
16024TIP3    H169487   2.374   4.273  15.247 -0.5871  1.5194 -1.4071
16024TIP3    H269488   2.402   4.159  15.151 -1.1804  0.1048  0.0610
16025TIP3   OH269489   4.617   2.546  15.004  0.6038  0.4437 -0.2757
16025TIP3    H169490   4.621   2.555  14.909 -0.1399  1.8227 -0.2002
16025TIP3    H269491   4.669   2.620  15.037 -0.2229  0.7520  0.3808
16026TIP3   OH269492   4.245   3.157   5.871  0.0421  0.4231  0.1721
16026TIP3    H169493   4.266   3.197   5.787 -1.7383  2.5030  0.6367
16026TIP3    H269494   4.318   3.181   5.928  0.0124  1.2090 -0.1117
16027TIP3   OH269495   2.922   0.485  12.597 -0.5540  0.0680 -0.1933
16027TIP3    H169496   2.990   0.420  12.586 -0.5216  0.3872 -2.6989
16027TIP3    H269497   2.847   0.450  12.548 -1.3756  0.7740  0.5220
16028TIP3   OH269498   3.104   3.894  16.103  0.5995  0.2880 -0.3084
16028TIP3    H169499   3.015   3.908  16.071  0.8481 -0.5625 -1.4540
16028TIP3    H269500   3.093   3.868  16.194 -0.2948  0.6507 -0.3049
16029TIP3   OH269501   5.530   5.754   6.068 -0.1692  1.0868  0.2029
16029TIP3    H169502   5.602   5.746   6.130 -1.5360 -1.8333  1.6169
16029TIP3    H269503   5.479   5.829   6.100  0.1505  0.7582  1.5581
16030TIP3   OH269504   6.036   4.165  16.202  0.3910 -0.7046  0.2710
16030TIP3    H169505   6.124   4.200  16.214  0.0964  0.1418 -0.0044
16030TIP3    H269506   5.978   4.236  16.228 -0.2537 -0.0081 -2.7159
16031TIP3   OH269507   6.231   0.396   4.266  0.1136  0.5640 -0.2243
16031TIP3    H169508   6.252   0.444   4.347 -0.5988  1.7817 -0.7375
16031TIP3    H269509   6.236   0.304   4.292  0.2935  0.9187  1.1096
16032TIP3   OH269510   3.229   4.501  11.787  0.3170 -0.2931  0.4463
16032TIP3    H169511   3.218   4.501  11.882  0.6858  1.0109  0.5082
16032TIP3    H269512   3.292   4.431  11.770 -1.3505 -1.9642  0.9339
16033TIP3   OH269513   4.306   0.409   4.236  0.3015  0.0096  0.2952
16033TIP3    H169514   4.224   0.426   4.282 -0.0214 -0.3120 -0.1473
16033TIP3    H269515   4.373   0.453   4.288 -0.1126  0.0182  0.8271
16034TIP3   OH269516   5.950   4.140  15.522  0.5008  0.0178 -0.0228
16034TIP3    H169517   5.932   4.056  15.565  1.6059 -0.6453 -0.8327
16034TIP3    H269518   5.924   4.127  15.431  0.0963  0.7647 -0.0241
16035TIP3   OH269519   0.462   2.566   0.631 -0.0893 -0.2400 -0.3842
16035TIP3    H169520   0.401   2.638   0.614 -1.2300 -0.8514  0.9420
16035TIP3    H269521   0.446   2.542   0.722  2.5556 -0.0673  0.1958
16036TIP3   OH269522   6.232   4.117   5.074  0.4966 -0.1935 -0.0500
16036TIP3    H169523   6.237   4.047   5.009 -0.0632 -1.3148  1.0700
16036TIP3    H269524   6.159   4.091   5.131 -2.1707  3.0858 -1.6182
16037TIP3   OH269525   0.168   2.924  16.365  0.1911 -0.0850 -0.3410
16037TIP3    H169526   0.256   2.924  16.326  1.0667 -0.2610  1.5027
16037TIP3    H269527   0.144   3.016  16.369 -0.1324 -0.0951 -1.7098
16038TIP3   OH269528   6.743   2.913   4.529  0.0745  0.2433 -0.1562
16038TIP3    H169529   6.789   2.982   4.577  0.3130 -0.0176 -0.0076
16038TIP3    H269530   6.812   2.862   4.487 -0.1461  0.7553 -1.1860
16039TIP3   OH269531   3.409   6.271  11.154  0.0214  0.4729  0.1332
16039TIP3    H169532   3.337   6.256  11.215  0.0841  0.6992  0.2630
16039TIP3    H269533   3.384   6.223  11.075  0.0534 -0.0252  0.4203
16040TIP3   OH269534   2.713   5.598   1.610 -0.2921  0.4611 -0.4107
16040TIP3    H169535   2.640   5.658   1.627 -1.5994 -1.4729  1.3806
16040TIP3    H269536   2.671   5.521   1.572  1.2803  0.4421 -2.2310
16041TIP3   OH269537   0.711   4.235  12.656 -0.3240  0.5909 -0.3371
16041TIP3    H169538   0.663   4.155  12.680 -0.8581  1.2239  0.7856
16041TIP3    H269539   0.737   4.273  12.740  0.2462  1.4108 -0.8747
16042TIP3   OH269540   5.308   2.170  16.899 -0.2458 -0.5414  0.4247
16042TIP3    H169541   5.265   2.197  16.980 -0.9821  0.0225 -0.1440
16042TIP3    H269542   5.245   2.109  16.859  0.2609 -1.0747  0.4304
16043TIP3   OH269543   3.771   5.967  13.004  0.3523 -0.0871 -0.3252
16043TIP3    H169544   3.829   5.893  13.023 -1.2671 -0.7894  2.3533
16043TIP3    H269545   3.686   5.926  12.984  0.0981  0.9899 -1.5588
16044TIP3   OH269546   2.748   1.547   2.391  0.0441  0.1057  0.2473
16044TIP3    H169547   2.811   1.569   2.323  0.3711 -0.3644  0.3922
16044TIP3    H269548   2.799   1.500   2.457 -0.4887 -0.3973  0.3074
16045TIP3   OH269549   1.035   6.626   4.228 -0.2231  0.1179  0.0017
16045TIP3    H169550   1.025   6.591   4.317  0.6802  1.2826  0.5989
16045TIP3    H269551   1.026   6.550   4.171 -0.4000 -0.7241  1.1172
16046TIP3   OH269552   1.962   1.268  16.236 -0.1986  0.2954 -0.2230
16046TIP3    H169553   2.034   1.324  16.266  0.4477 -0.7936  0.3408
16046TIP3    H269554   1.965   1.274  16.141  0.3443  0.6178 -0.1923
16047TIP3   OH269555   1.822   2.889   4.478 -0.0339  0.4399 -0.2409
16047TIP3    H169556   1.822   2.978   4.442  0.3315 -0.3983 -2.4385
16047TIP3    H269557   1.739   2.883   4.526 -0.7448  1.5277 -1.2593
16048TIP3   OH269558   6.059   4.875   1.967 -0.1169 -0.6385 -0.4335
16048TIP3    H169559   5.973   4.904   1.937 -0.3453 -0.3539  0.4917
16048TIP3    H269560   6.113   4.954   1.968  0.4570 -0.9670 -1.9506
16049TIP3   OH269561   1.138   3.973  14.105  0.3071 -0.8640  0.3123
16049TIP3    H169562   1.122   3.884  14.137 -3.5204 -0.2239  0.7293
16049TIP3    H269563   1.079   4.028  14.157  1.0386  1.6400 -1.2994
16050TIP3   OH269564   5.399   3.427   0.291  0.0570 -0.8524  0.1587
16050TIP3    H169565   5.442   3.390   0.214 -0.3990 -0.2756 -0.3870
16050TIP3    H269566   5.315   3.382   0.295 -0.4721  0.0399 -0.4684
16051TIP3   OH269567   2.457   2.135   2.451  0.9006  0.2041 -0.7458
16051TIP3    H169568   2.429   2.061   2.506 -0.6369  0.7530 -0.7588
16051TIP3    H269569   2.438   2.107   2.362 -1.5753  1.3183 -0.6485
16052TIP3   OH269570   6.380   0.674  14.434  0.2412  0.5646 -0.3819
16052TIP3    H169571   6.326   0.596  14.439  1.0493  0.0529  1.5130
16052TIP3    H269572   6.428   0.665  14.352  0.7055 -1.2324  0.0302
16053TIP3   OH269573   0.136   4.040  15.067 -0.3576 -0.1056  0.2481
16053TIP3    H169574   0.181   4.059  14.985  2.3906  0.7715  1.8171
16053TIP3    H269575   0.119   4.126  15.106 -0.6846 -0.5279  1.0723
16054TIP3   OH269576   5.599   4.053   1.500  0.5963 -0.4306 -0.1992
16054TIP3    H169577   5.512   4.015   1.487  0.1501  0.5280 -0.1106
16054TIP3    H269578   5.659   3.978   1.497 -0.3818 -1.3599  1.5230
16055TIP3   OH269579   0.183   6.510   1.589  0.2538 -0.1218 -0.2923
16055TIP3    H169580   0.111   6.563   1.622  0.3064 -0.4986  0.4481
16055TIP3    H269581   0.261   6.551   1.627  0.4504  0.3703 -1.2021
16056TIP3   OH269582   6.112   0.715  12.975 -0.2249 -0.1628  0.2895
16056TIP3    H169583   6.110   0.793  12.920  1.0326 -1.9097 -2.4411
16056TIP3    H269584   6.024   0.678  12.968  0.1599 -0.8261 -1.3196
16057TIP3   OH269585   2.973   0.556  16.487 -0.0183  0.1468 -0.4657
16057TIP3    H169586   2.922   0.626  16.444  1.1907  1.2985 -0.0826
16057TIP3    H269587   3.052   0.548  16.434  1.1340  1.0366  1.0384
16058TIP3   OH269588   1.792   2.510   0.759  0.4805 -0.0172 -0.0552
16058TIP3    H169589   1.729   2.574   0.793  0.2889 -0.2567  0.0468
16058TIP3    H269590   1.874   2.558   0.754  0.5724 -0.0398  0.9892
16059TIP3   OH269591   4.207   2.965   4.066  0.1426 -0.0714 -0.1298
16059TIP3    H169592   4.137   3.007   4.016  0.0987  0.3411  0.2706
16059TIP3    H269593   4.176   2.877   4.083  0.4254 -0.4222 -1.3697
16060TIP3   OH269594   1.679   1.049   2.518  0.5099  0.0050  0.0320
16060TIP3    H169595   1.601   1.089   2.480  1.0561  0.6471 -0.4495
16060TIP3    H269596   1.725   1.010   2.444 -0.1665 -1.8478  0.5374
16061TIP3   OH269597   5.662   0.057   0.584  0.1638  0.6219  0.5698
16061TIP3    H169598   5.624   0.108   0.513 -1.3013 -2.8348 -1.3767
16061TIP3    H269599   5.602   0.069   0.657  0.4215  2.3827  0.5438
16062TIP3   OH269600   3.708   3.016  10.822 -0.3579 -0.0484 -0.0557
16062TIP3    H169601   3.758   3.023  10.903 -1.2389  1.9839  0.3513
16062TIP3    H269602   3.686   2.923  10.816  0.7616 -0.4490  1.3704
16063TIP3   OH269603   2.785   4.115   3.218  0.2320 -0.0463  0.1116
16063TIP3    H169604   2.748   4.054   3.154  2.9781 -1.0429 -0.6323
16063TIP3    H269605   2.876   4.128   3.191  0.3897  2.6849  1.5459
16064TIP3   OH269606   5.171   5.540  12.368  0.3715 -0.5382 -0.0623
16064TIP3    H169607   5.196   5.607  12.432 -1.1978  1.0100 -0.9902
16064TIP3    H269608   5.085   5.510  12.396 -0.0317 -0.3413 -1.0444
16065TIP3   OH269609   6.344   1.703  14.254 -0.1732  0.3949  0.0259
16065TIP3    H169610   6.411   1.636  14.269  0.1079  0.3199 -1.4130
16065TIP3    H269611   6.347   1.758  14.332 -0.3769 -1.2253  1.2315
16066TIP3   OH269612   1.292   2.741  13.607  0.4102 -0.1604 -0.5604
16066TIP3    H169613   1.365   2.752  13.547  0.9145 -1.4138 -0.2169
16066TIP3    H269614   1.215   2.768  13.558  0.5583 -2.8024 -2.4639
16067TIP3   OH269615   3.306   1.328   0.631  0.0706 -0.1238  0.8755
16067TIP3    H169616   3.228   1.382   0.646  0.1524  0.3002 -0.1638
16067TIP3    H269617   3.295   1.254   0.691 -2.7328 -1.7639 -1.4167
16068TIP3   OH269618   0.704   2.151   4.470 -0.5931 -0.3726 -0.1868
16068TIP3    H169619   0.625   2.096   4.470 -0.1598 -1.0272  0.5589
16068TIP3    H269620   0.683   2.224   4.412 -1.8993 -0.3120  0.3372
16069TIP3   OH269621   4.164   6.246  14.414 -0.4399 -0.1621 -0.8075
16069TIP3    H169622   4.138   6.334  14.388 -0.4062  0.3687  0.8840
16069TIP3    H269623   4.243   6.259  14.466 -1.8189 -0.9147  1.6001
16070TIP3   OH269624   2.397   5.259  11.844 -0.5229 -0.4029 -0.2635
16070TIP3    H169625   2.419   5.228  11.757  0.7102  1.4622 -0.6829
16070TIP3    H269626   2.466   5.323  11.865 -2.1717  1.0587  1.0139
16071TIP3   OH269627   5.835   5.309   2.357  0.9898 -0.1469 -0.4008
16071TIP3    H169628   5.919   5.272   2.383  0.5185 -1.3890 -0.5826
16071TIP3    H269629   5.781   5.233   2.336 -0.5921  0.5527  0.9309
16072TIP3   OH269630   1.321   5.446  15.320  0.4329 -0.0478 -0.0213
16072TIP3    H169631   1.381   5.508  15.361  0.3122  0.3841 -0.4776
16072TIP3    H269632   1.234   5.483  15.336  0.3062 -0.5375  0.4201
16073TIP3   OH269633   1.691   4.553   4.711  0.3628  0.0253  1.1505
16073TIP3    H169634   1.608   4.523   4.674  1.3599 -0.9122 -0.4615
16073TIP3    H269635   1.709   4.636   4.667  1.4682 -1.0094 -0.4643
16074TIP3   OH269636   5.558   0.805   2.936  0.2910  0.0022  0.0965
16074TIP3    H169637   5.587   0.836   3.022  1.7989  0.4666 -0.5342
16074TIP3    H269638   5.582   0.713   2.934 -2.8274 -0.9522  1.4016
16075TIP3   OH269639   4.464   5.150   0.574  0.6881 -0.6286  0.0117
16075TIP3    H169640   4.556   5.126   0.586  0.4274 -1.3346  0.7090
16075TIP3    H269641   4.421   5.069   0.548  0.1386 -0.4754  0.4129
16076TIP3   OH269642   1.847   1.140  12.183 -0.1691  0.2332 -0.3843
16076TIP3    H169643   1.764   1.097  12.204  0.4146 -1.3117 -1.1396
16076TIP3    H269644   1.821   1.226  12.149 -1.6054 -0.9624 -2.5143
16077TIP3   OH269645   3.107   5.997  14.826 -0.2477 -0.3135  0.1788
16077TIP3    H169646   3.056   5.975  14.904  1.3772  0.7858  1.6224
16077TIP3    H269647   3.152   5.915  14.802 -1.8834 -1.0452 -0.5586
16078TIP3   OH269648   5.269   4.959  10.693 -0.6211 -0.1444 -0.0499
16078TIP3    H169649   5.199   4.894  10.686 -1.1929  0.3978  0.5523
16078TIP3    H269650   5.342   4.911  10.733 -0.9477 -0.4847  0.1426
16079TIP3   OH269651   3.317   5.096  15.612 -0.6016  0.0990  0.7483
16079TIP3    H169652   3.395   5.041  15.606 -0.7307 -0.1279  1.1009
16079TIP3    H269653   3.350   5.185  15.623 -0.3829 -0.0539  1.4124
16080TIP3   OH269654   1.199   3.807   1.553  0.0218  0.3906  0.0029
16080TIP3    H169655   1.109   3.834   1.540 -0.0993  1.4086  2.4470
16080TIP3    H269656   1.197   3.754   1.633  1.5002 -0.0902 -0.2393
16081TIP3   OH269657   4.456   3.156   0.750 -0.4207 -0.0105  0.2806
16081TIP3    H169658   4.365   3.142   0.724 -0.0337 -0.7127 -0.7890
16081TIP3    H269659   4.494   3.205   0.677  0.5601 -1.5265 -0.2801
16082TIP3   OH269660   2.337   3.510  11.379  0.0122 -0.1979 -0.0607
16082TIP3    H169661   2.387   3.565  11.318  3.1514 -1.1247  1.4946
16082TIP3    H269662   2.399   3.444  11.409 -1.9830 -1.0871  2.5049
16083TIP3   OH269663   1.663   3.902  11.321  0.3432 -0.2660 -0.3904
16083TIP3    H169664   1.691   3.814  11.348 -1.8327 -0.5604  1.2172
16083TIP3    H269665   1.712   3.961  11.378 -0.4767 -0.6432  0.7498
16084TIP3   OH269666   0.300   5.676   2.767 -0.3509  0.2741  0.3905
16084TIP3    H169667   0.214   5.714   2.752 -0.2190  0.1631 -0.7633
16084TIP3    H269668   0.331   5.652   2.679  0.0965 -1.3440  0.9535
16085TIP3   OH269669   4.722   6.663   1.834 -0.1796  0.2688  0.2609
16085TIP3    H169670   4.671   6.704   1.903  0.3523 -0.7164  1.2736
16085TIP3    H269671   4.663   6.599   1.795 -0.1270  0.0479  0.5465
16086TIP3   OH269672   4.814   2.710  14.490  0.2402 -0.5528  0.8768
16086TIP3    H169673   4.819   2.748  14.402  0.1526  0.3326  1.2426
16086TIP3    H269674   4.784   2.620  14.476  0.1727 -0.4013  0.0035
16087TIP3   OH269675   0.301   3.965   4.376  0.3851  0.8590  0.5986
16087TIP3    H169676   0.364   4.036   4.359  1.5042 -0.1790  0.2302
16087TIP3    H269677   0.279   3.975   4.469 -0.9314  2.7923  0.1331
16088TIP3   OH269678   6.064   5.630   1.332  0.2623 -0.0341 -0.1395
16088TIP3    H169679   6.158   5.608   1.328  0.1867 -0.3610 -0.1645
16088TIP3    H269680   6.020   5.546   1.318 -0.0359 -0.1516  1.2919
16089TIP3   OH269681   0.469   2.143  11.534  0.2984  0.1461  0.2068
16089TIP3    H169682   0.451   2.122  11.625  1.6551  1.2042  0.7532
16089TIP3    H269683   0.445   2.063  11.486  0.3622 -0.7279  1.5782
16090TIP3   OH269684   5.636   6.071  11.243  0.0270 -0.0725  0.4517
16090TIP3    H169685   5.693   6.147  11.229 -2.2120  1.3564 -1.6299
16090TIP3    H269686   5.696   5.996  11.247  2.1619  1.5580  0.5891
16091TIP3   OH269687   5.770   5.100  16.039  0.6370 -0.2307  0.5040
16091TIP3    H169688   5.722   5.017  16.045  0.8454 -0.4273 -0.4910
16091TIP3    H269689   5.802   5.114  16.128  1.2141 -1.5921  0.5433
16092TIP3   OH269690   3.231   4.226   3.300  0.4193  0.1191  0.0660
16092TIP3    H169691   3.324   4.246   3.306  0.1806  0.8836  1.8243
16092TIP3    H269692   3.198   4.235   3.389 -0.5185 -4.6219  0.4639
16093TIP3   OH269693   0.535   5.087  16.539 -0.4883  0.2663  0.2574
16093TIP3    H169694   0.554   5.153  16.472 -2.2476  0.4657 -0.0867
16093TIP3    H269695   0.601   5.102  16.606  1.2253  0.1857 -1.3131
16094TIP3   OH269696   1.390   4.871  13.974 -0.1390 -0.2249  0.3521
16094TIP3    H169697   1.301   4.891  13.944  0.3046  1.2548 -0.0945
16094TIP3    H269698   1.378   4.826  14.057 -1.3156 -0.0676  0.2872
16095TIP3   OH269699   3.929   0.440   3.078  0.0711 -0.0582 -0.4117
16095TIP3    H169700   3.888   0.365   3.120  1.8097  0.3695  2.2514
16095TIP3    H269701   3.992   0.401   3.017  0.2418 -0.7405  0.1916
16096TIP3   OH269702   4.890   4.610   0.175  0.3533  0.6318 -0.2901
16096TIP3    H169703   4.801   4.582   0.156  0.1987 -0.0725  1.3161
16096TIP3    H269704   4.945   4.542   0.135  0.1451  0.6717 -0.6483
16097TIP3   OH269705   0.599   6.158  16.817  0.3228 -0.2246 -0.0024
16097TIP3    H169706   0.677   6.110  16.846 -0.4548 -0.5624  1.6152
16097TIP3    H269707   0.547   6.094  16.769 -0.6546 -1.0472  2.0483
16098TIP3   OH269708   0.826   4.861   5.580  0.1390  0.0117 -0.4950
16098TIP3    H169709   0.856   4.920   5.511  0.9525  1.3085  0.9198
16098TIP3    H269710   0.874   4.888   5.658 -1.1874 -1.0120  0.7378
16099TIP3   OH269711   0.398   2.828   3.434 -0.1797 -0.2809 -0.1442
16099TIP3    H169712   0.412   2.825   3.528 -1.6786 -1.1479  0.0900
16099TIP3    H269713   0.304   2.813   3.423 -0.1165  0.2459 -1.7594
16100TIP3   OH269714   6.544   5.366  12.554  0.4127 -0.3599 -1.0585
16100TIP3    H169715   6.501   5.451  12.545 -0.0383 -0.6140 -1.3525
16100TIP3    H269716   6.636   5.387  12.569  0.4979  0.1668 -2.2188
16101TIP3   OH269717   0.155   2.534  14.776 -0.0580 -0.3594 -0.4517
16101TIP3    H169718   0.140   2.441  14.795  1.4310 -0.8697 -1.6531
16101TIP3    H269719   0.196   2.568  14.856 -2.4305 -0.1751  0.8082
16102TIP3   OH269720   6.712   1.291   2.552  0.0762  0.2942  0.4170
16102TIP3    H169721   6.635   1.240   2.527  0.9051 -0.4212 -0.8273
16102TIP3    H269722   6.764   1.231   2.606  0.0305  0.5700  0.7668
16103TIP3   OH269723   1.297   4.423   3.213  0.5001 -0.2186  0.0068
16103TIP3    H169724   1.389   4.436   3.237  0.7093 -0.3312 -0.6974
16103TIP3    H269725   1.287   4.329   3.202  0.4346 -0.1646 -0.4192
16104TIP3   OH269726   0.975   2.528   1.778  0.3696  0.9174  0.4304
16104TIP3    H169727   0.937   2.485   1.702 -2.0524 -0.7136  2.4209
16104TIP3    H269728   1.059   2.484   1.791 -0.4736 -0.8113  0.3079
16105TIP3   OH269729   0.658   4.929   0.904  0.4788 -0.0689 -0.1459
16105TIP3    H169730   0.582   4.899   0.953 -0.2367  0.0054 -1.1861
16105TIP3    H269731   0.624   4.952   0.818  1.1820  2.6093  0.1977
16106TIP3   OH269732   2.675   5.826  14.475 -0.1039  0.1458 -1.0025
16106TIP3    H169733   2.663   5.846  14.568 -0.7548  0.7920 -1.2200
16106TIP3    H269734   2.770   5.829  14.463 -0.0686  1.1721 -0.5885
16107TIP3   OH269735   2.501   2.292  17.204  0.2634  0.0619 -0.2426
16107TIP3    H169736   2.545   2.252  17.279  0.6094  1.4523  0.3338
16107TIP3    H269737   2.408   2.286  17.224  0.3702  0.8853  0.5719
16108TIP3   OH269738   0.521   4.789   1.434 -0.0481  0.5925  0.1979
16108TIP3    H169739   0.461   4.780   1.507  0.6044 -2.2274  0.4757
16108TIP3    H269740   0.608   4.784   1.473  0.4648  3.3866 -0.3479
16109TIP3   OH269741   5.092   1.773   1.950  0.6468  0.4733 -0.2616
16109TIP3    H169742   5.176   1.782   1.996  0.8052  1.5992 -0.7319
16109TIP3    H269743   5.059   1.688   1.978  2.0519 -0.1050 -0.2481
16110TIP3   OH269744   0.676   4.077   5.447  0.3065 -0.0109 -0.5579
16110TIP3    H169745   0.645   4.018   5.516  3.9880 -1.5147  0.0417
16110TIP3    H269746   0.708   4.154   5.494 -0.4193  0.5651 -0.9736
16111TIP3   OH269747   1.980   4.652   6.563  0.6039 -0.4970 -0.0438
16111TIP3    H169748   1.903   4.621   6.514  0.7622 -0.0767 -0.5692
16111TIP3    H269749   2.053   4.639   6.502  0.6292  1.2463 -0.4473
16112TIP3   OH269750   2.596   1.408   5.341 -0.3233  0.1127  0.5410
16112TIP3    H169751   2.639   1.336   5.387  0.2077 -0.4487 -0.7750
16112TIP3    H269752   2.556   1.367   5.264 -1.4250  0.9764  0.6276
16113TIP3   OH269753   0.012   2.614  12.327  0.0015 -0.1190  0.2409
16113TIP3    H169754  -0.009   2.705  12.304  1.4528 -0.3194 -2.3410
16113TIP3    H269755  -0.053   2.561  12.281 -0.5822 -0.4151  1.3889
16114TIP3   OH269756   0.828   1.001  16.190 -0.1628  0.2500  0.3306
16114TIP3    H169757   0.899   0.941  16.167 -0.3317  0.2226 -0.1409
16114TIP3    H269758   0.750   0.963  16.148 -0.1920  1.0232 -0.3386
16115TIP3   OH269759   4.374   0.230  10.635 -0.2923 -0.1733 -0.1766
16115TIP3    H169760   4.315   0.216  10.561 -0.5475 -1.1834  0.1983
16115TIP3    H269761   4.426   0.307  10.610 -0.3596 -0.5032 -1.4030
16116TIP3   OH269762   0.881   4.813   0.514 -0.1928  0.5589  0.2393
16116TIP3    H169763   0.799   4.829   0.469 -0.2050 -0.2768 -0.0408
16116TIP3    H269764   0.857   4.760   0.590  0.0972  0.2199  0.0974
16117TIP3   OH269765   4.430   4.985  14.659  0.4793 -0.0337 -0.0792
16117TIP3    H169766   4.401   5.065  14.615  3.0585  0.7504 -0.5784
16117TIP3    H269767   4.410   4.915  14.598  2.8584  0.8957 -2.1211
16118TIP3   OH269768   5.482   4.532   2.009 -0.4143  0.1313  0.3272
16118TIP3    H169769   5.413   4.594   2.030 -1.4899 -1.3079  1.2413
16118TIP3    H269770   5.445   4.446   2.031  1.1447 -0.8155 -0.5226
16119TIP3   OH269771   2.618   5.979  16.491 -0.0497  0.8734  0.1815
16119TIP3    H169772   2.536   6.013  16.526 -0.3051  1.0406 -0.5617
16119TIP3    H269773   2.685   6.010  16.552 -0.2647  2.7719 -0.4836
16120TIP3   OH269774   2.240   2.288  11.192 -0.2336  0.5110 -0.4558
16120TIP3    H169775   2.314   2.348  11.188  0.1085  0.0528 -1.2727
16120TIP3    H269776   2.206   2.286  11.102  0.7740 -1.7549 -0.8581
16121TIP3   OH269777   2.817   3.366  12.593 -0.4707  0.8061  0.2947
16121TIP3    H169778   2.725   3.389  12.582 -0.4165 -0.0777 -3.9055
16121TIP3    H269779   2.854   3.439  12.642 -2.9836  2.3124  0.1493
16122TIP3   OH269780   1.280   4.337  12.597 -0.1927  0.7121 -0.2233
16122TIP3    H169781   1.277   4.398  12.671 -0.4252  0.6100 -0.1487
16122TIP3    H269782   1.234   4.382  12.527  1.6475  1.6269 -0.9273
16123TIP3   OH269783   3.995   0.422  13.996 -0.3300 -0.1505 -0.1841
16123TIP3    H169784   4.047   0.470  14.060  0.6432 -3.6089  1.8905
16123TIP3    H269785   3.926   0.379  14.047 -0.5681 -1.6912 -1.6896
16124TIP3   OH269786   6.158   6.012   1.444 -0.3813  0.0712 -0.4059
16124TIP3    H169787   6.114   5.969   1.516  0.5736  1.8377  1.3304
16124TIP3    H269788   6.214   5.944   1.406 -0.7261 -0.8324  0.6495
16125TIP3   OH269789   2.449   3.702   4.670 -0.5552 -0.2299 -0.3330
16125TIP3    H169790   2.428   3.661   4.754  1.9160  0.3330  0.6573
16125TIP3    H269791   2.429   3.635   4.605 -2.3570 -0.7394  0.6974
16126TIP3   OH269792   3.860   4.779  15.078  0.7284 -0.3857 -0.2789
16126TIP3    H169793   3.943   4.813  15.044  1.3314 -1.5156  0.0128
16126TIP3    H269794   3.842   4.832  15.155  1.6521 -0.7047  0.1727
16127TIP3   OH269795   0.336   4.526  13.036 -0.5681 -0.1073  0.1630
16127TIP3    H169796   0.402   4.547  12.970 -1.8818  1.5484 -0.7159
16127TIP3    H269797   0.279   4.462  12.993 -1.8017  1.4505 -0.6479
16128TIP3   OH269798   1.998   3.694  13.611 -0.3306  0.0105  0.1789
16128TIP3    H169799   2.008   3.789  13.615  0.2952 -0.0859  0.9233
16128TIP3    H269800   1.914   3.677  13.655  0.4449  0.0698  1.7395
16129TIP3   OH269801   0.166   5.317  14.963 -0.7179  0.3433  0.3081
16129TIP3    H169802   0.154   5.279  14.876 -0.3559  1.6540 -0.3538
16129TIP3    H269803   0.238   5.379  14.952 -2.5004  2.6516  0.8017
16130TIP3   OH269804   1.978   1.166  15.597 -0.0545 -0.6726  0.0794
16130TIP3    H169805   1.916   1.104  15.636 -0.7072 -1.6892 -2.4033
16130TIP3    H269806   2.059   1.115  15.588  0.6150  0.0757  1.5665
16131TIP3   OH269807   2.248   5.074   2.508  0.1801  0.2767 -0.4967
16131TIP3    H169808   2.313   5.008   2.531 -1.0945 -0.7763  0.2104
16131TIP3    H269809   2.223   5.053   2.418 -1.2504 -1.1436  0.1858
16132TIP3   OH269810   3.980   5.568  16.058  0.3367  0.0794  0.2688
16132TIP3    H169811   4.053   5.513  16.029 -1.1984 -1.0634 -1.7157
16132TIP3    H269812   3.955   5.617  15.979 -0.2981  1.3319  1.2167
16133TIP3   OH269813   0.805   1.494  16.320 -0.0369 -0.1038  0.2768
16133TIP3    H169814   0.856   1.480  16.400 -0.6516  0.4930  0.7807
16133TIP3    H269815   0.831   1.581  16.290 -2.0123  0.9953  1.5204
16134TIP3   OH269816   3.349   2.543  15.114  0.1839 -0.2641  0.0734
16134TIP3    H169817   3.427   2.524  15.166 -1.1992 -1.1595  1.8966
16134TIP3    H269818   3.297   2.601  15.169 -0.3169  0.6401 -1.2843
16135TIP3   OH269819   5.716   2.184  14.199  0.5777  0.2762 -0.5014
16135TIP3    H169820   5.621   2.190  14.193  0.3693  0.9369  2.2315
16135TIP3    H269821   5.747   2.200  14.109 -1.8537 -0.1253 -1.4806
16136TIP3   OH269822   1.270   3.566   2.684  0.4956  0.1915  0.3608
16136TIP3    H169823   1.279   3.472   2.666 -2.0916 -0.0127 -0.2579
16136TIP3    H269824   1.220   3.600   2.610  0.5194  1.8517  1.0757
16137TIP3   OH269825   0.438   4.501   2.883  0.4070 -0.0521  0.0846
16137TIP3    H169826   0.504   4.435   2.901 -1.5728 -2.4675 -0.9920
16137TIP3    H269827   0.364   4.478   2.939 -0.3827  1.1677 -0.4008
16138TIP3   OH269828   0.850   1.763   2.656 -0.1930 -0.5222  0.2603
16138TIP3    H169829   0.818   1.673   2.655 -2.8219  0.3095  1.7324
16138TIP3    H269830   0.771   1.817   2.652  1.2706  1.7403  0.2311
16139TIP3   OH269831   3.903   0.456  11.663 -0.7156  0.2270 -0.1587
16139TIP3    H169832   3.932   0.453  11.572  0.0458  1.7512  0.0051
16139TIP3    H269833   3.813   0.423  11.661 -0.0073 -1.8501 -1.1091
16140TIP3   OH269834   1.635   0.655   6.006 -0.7197 -0.2349 -0.0682
16140TIP3    H169835   1.589   0.584   6.049 -0.6673 -0.5305 -0.4902
16140TIP3    H269836   1.617   0.732   6.060 -1.6164 -0.3677 -0.1653
16141TIP3   OH269837   2.072   4.263  14.416 -0.6158 -0.1788 -0.0580
16141TIP3    H169838   2.050   4.326  14.348 -0.1316  0.8936  0.7552
16141TIP3    H269839   1.998   4.202  14.417 -1.2187  0.5277 -0.6689
16142TIP3   OH269840   4.883   4.332   4.303 -0.2546 -0.1655  0.4253
16142TIP3    H169841   4.807   4.374   4.343 -1.2634 -0.9578 -0.6024
16142TIP3    H269842   4.855   4.243   4.285  0.1597  0.1100 -1.9302
16143TIP3   OH269843   0.692   2.535   0.312  0.3842  0.1183 -0.0407
16143TIP3    H169844   0.598   2.517   0.319  0.2001  1.4432  1.1045
16143TIP3    H269845   0.697   2.616   0.262  0.9188  0.1167  0.0089
16144TIP3   OH269846   0.508   5.124   2.220 -0.4998  0.7705  0.2862
16144TIP3    H169847   0.584   5.144   2.275 -0.3089  0.7691  0.0246
16144TIP3    H269848   0.435   5.170   2.262 -0.8046 -0.9791  1.7897
16145TIP3   OH269849   6.065   0.187   1.472 -0.1532 -0.0162  0.4254
16145TIP3    H169850   6.106   0.247   1.535  0.1726 -0.4811  0.6644
16145TIP3    H269851   5.979   0.226   1.455 -0.6616 -0.4066  1.9421
16146TIP3   OH269852   4.754   4.886  14.508  0.7330 -0.3820  0.5008
16146TIP3    H169853   4.715   4.815  14.456 -0.1933  0.7585 -0.4048
16146TIP3    H269854   4.762   4.849  14.596 -0.6307 -1.2912  0.2709
16147TIP3   OH269855   3.775   3.273  13.786  0.1603 -0.1649  0.4491
16147TIP3    H169856   3.833   3.321  13.846 -0.1873  0.0543  0.6153
16147TIP3    H269857   3.733   3.341  13.734  0.2985 -0.3432  0.1032
16148TIP3   OH269858   5.096   5.734  14.824 -0.8524  0.5705 -0.4965
16148TIP3    H169859   5.179   5.781  14.826 -0.8469  0.6000 -1.2688
16148TIP3    H269860   5.098   5.685  14.742 -0.1388 -2.0877  0.9861
16149TIP3   OH269861   5.868   3.632  14.891  0.3264  0.5441 -0.1435
16149TIP3    H169862   5.918   3.711  14.915  1.2899 -0.0243 -0.2238
16149TIP3    H269863   5.934   3.563  14.885  0.0775  0.4201 -3.4741
16150TIP3   OH269864   4.078   6.547   5.572 -0.1321  0.3144 -0.4929
16150TIP3    H169865   4.144   6.486   5.606 -1.5581  0.3774  2.7590
16150TIP3    H269866   4.029   6.496   5.508 -0.0944 -1.3957  0.7583
16151TIP3   OH269867   5.770   5.353  11.450  0.3198  0.5529  0.3569
16151TIP3    H169868   5.697   5.351  11.512 -0.1681  1.1876 -0.1756
16151TIP3    H269869   5.763   5.271  11.402  1.6303 -0.6894  2.1340
16152TIP3   OH269870   0.868   2.441  11.581  0.3185  0.3752 -0.3972
16152TIP3    H169871   0.887   2.512  11.643  0.4954 -0.8983  1.0595
16152TIP3    H269872   0.954   2.405  11.559  0.0919 -1.4737  1.4648
16153TIP3   OH269873   2.496   1.433  13.733  0.6521  0.0477 -0.3573
16153TIP3    H169874   2.452   1.474  13.807 -1.2996  0.6549 -1.7672
16153TIP3    H269875   2.538   1.355  13.769 -0.3270  0.2715  1.3613
16154TIP3   OH269876   3.920   5.309  14.862 -0.1964  0.4735  0.2429
16154TIP3    H169877   3.903   5.402  14.848  1.2620  1.0287  1.8747
16154TIP3    H269878   3.848   5.265  14.816 -1.2012  2.3957 -0.1475
16155TIP3   OH269879   0.212   0.974   1.058 -0.2752  0.0924 -0.2108
16155TIP3    H169880   0.222   1.059   1.014  1.1477 -0.5390 -1.1842
16155TIP3    H269881   0.197   0.912   0.986 -0.2316 -0.6375  0.4004
16156TIP3   OH269882   2.377   3.911  12.450  0.8395 -0.5459 -0.3011
16156TIP3    H169883   2.424   3.896  12.368 -1.7130  0.8093 -2.1681
16156TIP3    H269884   2.421   3.856  12.514  3.6619 -0.8129 -2.3013
16157TIP3   OH269885   0.320   0.134   4.474 -0.3706  0.2943  0.1492
16157TIP3    H169886   0.361   0.129   4.560  0.6097  1.3990 -0.2283
16157TIP3    H269887   0.347   0.219   4.439 -0.7128 -0.1492 -1.2705
16158TIP3   OH269888   2.443   3.969   5.346 -0.6133 -0.4805 -0.2762
16158TIP3    H169889   2.380   3.934   5.283 -0.3054 -1.4311 -0.0790
16158TIP3    H269890   2.526   3.927   5.323 -0.1842  0.2841 -0.1450
16159TIP3   OH269891   0.033   4.910   3.210  0.5885  1.0473 -0.0865
16159TIP3    H169892   0.097   4.924   3.140  0.9457  0.9109  0.2076
16159TIP3    H269893   0.039   4.988   3.264  2.8215 -0.2620  1.7422
16160TIP3   OH269894   1.302   4.563   0.343 -0.3010  0.2531  0.3403
16160TIP3    H169895   1.327   4.495   0.405 -0.8071 -0.2835 -0.0361
16160TIP3    H269896   1.306   4.644   0.395 -2.2877 -0.3513  1.5613
16161TIP3   OH269897   4.671   0.951  13.041  0.3266 -0.0105 -0.4024
16161TIP3    H169898   4.627   1.012  12.982 -0.3974  1.0094  1.1068
16161TIP3    H269899   4.611   0.943  13.115  1.3981 -0.8885  0.3985
16162TIP3   OH269900   1.153   0.304   1.555  0.0320  0.2495  0.1869
16162TIP3    H169901   1.167   0.232   1.617  0.1884  1.1846  1.2529
16162TIP3    H269902   1.137   0.381   1.609 -1.3027  0.8150 -0.9424
16163TIP3   OH269903   6.320   1.807   5.647 -0.2244  0.1089  0.2899
16163TIP3    H169904   6.244   1.846   5.691 -0.8266  0.7136 -1.2182
16163TIP3    H269905   6.373   1.883   5.621  0.7417 -0.2949  1.0198
16164TIP3   OH269906   4.995   0.451  15.331 -0.2586  0.2101  0.0707
16164TIP3    H169907   5.006   0.530  15.278 -0.9523  1.1725  1.3216
16164TIP3    H269908   5.078   0.442  15.378  0.0500 -0.1768 -0.5315
16165TIP3   OH269909   2.143   6.487   4.551  0.7074  0.4910  0.0554
16165TIP3    H169910   2.049   6.474   4.536  0.7542  0.7521 -0.4736
16165TIP3    H269911   2.176   6.519   4.468  0.6710  3.6606  1.1217
16166TIP3   OH269912   2.787   5.092   0.336 -0.0675 -0.3903  0.4326
16166TIP3    H169913   2.729   5.140   0.276 -3.9922 -2.1614  2.4171
16166TIP3    H269914   2.773   5.134   0.421 -1.0188 -2.8076  1.5584
16167TIP3   OH269915   2.862   6.538   2.857 -0.5573 -0.6380 -0.0200
16167TIP3    H169916   2.865   6.529   2.952 -2.6307  0.5377  0.2098
16167TIP3    H269917   2.820   6.458   2.826  2.3552 -2.2051 -0.2666
16168TIP3   OH269918   2.093   1.323   3.214 -0.1474  0.0490 -0.1787
16168TIP3    H169919   2.067   1.342   3.123  0.7469  0.3003 -0.3879
16168TIP3    H269920   2.155   1.393   3.236 -0.1210 -0.1951  0.5199
16169TIP3   OH269921   3.362   1.430  16.740  0.1495 -0.0373 -0.0043
16169TIP3    H169922   3.356   1.500  16.806  0.7117 -0.5107  0.5588
16169TIP3    H269923   3.294   1.368  16.766  0.0853 -0.0180 -0.1256
16170TIP3   OH269924   3.964   4.974   2.286 -0.2550  0.0218 -0.0713
16170TIP3    H169925   4.034   5.036   2.309 -0.3769 -0.0220  0.4184
16170TIP3    H269926   3.976   4.901   2.347 -0.7815  0.0517  0.0681
16171TIP3   OH269927   4.202   4.131   3.035  0.4567  0.0945 -0.8096
16171TIP3    H169928   4.244   4.143   2.949 -2.4596  2.0986 -2.1338
16171TIP3    H269929   4.214   4.215   3.079  1.1125 -0.6144  0.4196
16172TIP3   OH269930   5.896   4.256   2.768  0.6839  0.7725 -0.3387
16172TIP3    H169931   5.832   4.311   2.723 -2.2965 -0.3971  2.0923
16172TIP3    H269932   5.852   4.229   2.848  3.7983 -1.2715  0.8805
16173TIP3   OH269933   2.083   5.135   5.282  0.2010  0.3162 -0.1319
16173TIP3    H169934   2.104   5.052   5.240  0.6504 -0.1729  1.0188
16173TIP3    H269935   2.167   5.177   5.295 -0.1002  1.6738 -2.0376
16174TIP3   OH269936   4.974   4.880   4.260  0.1379  0.2951 -0.8629
16174TIP3    H169937   4.946   4.796   4.224 -0.8653  0.1252  0.2792
16174TIP3    H269938   5.012   4.859   4.345  1.2352  0.8477 -1.1990
16175TIP3   OH269939   5.297   4.549   5.638  0.2449 -0.4558 -0.6223
16175TIP3    H169940   5.228   4.613   5.652  1.0837  0.1597  0.9520
16175TIP3    H269941   5.251   4.466   5.626 -0.8095  0.2349 -1.4878
16176TIP3   OH269942   1.310   2.574  13.295 -0.1407 -0.1465  0.1061
16176TIP3    H169943   1.220   2.590  13.321 -0.2464 -1.4526  0.6365
16176TIP3    H269944   1.355   2.657  13.308 -0.9239  0.0982  1.3879
16177TIP3   OH269945   3.847   4.438   2.259 -0.0883  0.2553 -0.1373
16177TIP3    H169946   3.795   4.390   2.324  1.0089  0.7111  1.1106
16177TIP3    H269947   3.788   4.508   2.229 -0.2409  0.7432  1.2288
16178TIP3   OH269948   3.558   4.715   3.259  0.0918 -0.2834  0.1367
16178TIP3    H169949   3.554   4.793   3.203  2.3389  1.5119  2.2880
16178TIP3    H269950   3.651   4.697   3.269 -0.3450 -3.1528 -0.0111
16179TIP3   OH269951   0.686   6.085   4.172  0.0131  0.0277  0.1480
16179TIP3    H169952   0.667   6.136   4.094  1.8072 -0.1030 -0.4176
16179TIP3    H269953   0.600   6.064   4.209 -0.8087  2.2630 -0.3530
16180TIP3   OH269954   6.367   5.739   0.184  0.6797 -0.1921  0.1296
16180TIP3    H169955   6.395   5.718   0.095 -0.0427 -0.3484 -0.0651
16180TIP3    H269956   6.326   5.825   0.177  0.9261 -0.0519  0.3787
16181TIP3   OH269957   1.319   3.485  16.910 -0.1629  0.0619 -0.2769
16181TIP3    H169958   1.404   3.446  16.934  0.5872  0.8485 -1.5442
16181TIP3    H269959   1.322   3.492  16.814 -2.3340 -1.3700 -0.5196
16182TIP3   OH269960   3.989   1.481   6.878  0.4333 -0.2006 -0.2168
16182TIP3    H169961   4.055   1.484   6.948  1.0936  0.7530 -0.8638
16182TIP3    H269962   4.013   1.405   6.826  0.9025  0.0173 -0.3237
16183TIP3   OH269963   0.065   3.718  16.123  0.5029  0.2727  0.3597
16183TIP3    H169964   0.022   3.768  16.192 -0.3106 -0.0188  0.0681
16183TIP3    H269965  -0.001   3.654  16.094  1.0799 -0.0907 -0.1826
16184TIP3   OH269966   6.506   0.977  12.887  0.2627  0.2042  0.0745
16184TIP3    H169967   6.599   0.953  12.885  0.0538 -0.5531 -1.2844
16184TIP3    H269968   6.461   0.905  12.844 -0.9050  0.8657  0.1370
16185TIP3   OH269969   4.688   5.110  14.353  0.5331 -0.3682 -0.6507
16185TIP3    H169970   4.740   5.052  14.410 -0.6332 -1.0721 -0.2545
16185TIP3    H269971   4.726   5.197  14.367  1.5057 -0.8297 -0.2683
16186TIP3   OH269972   2.694   4.556   2.716 -0.1928 -0.0623 -0.1897
16186TIP3    H169973   2.636   4.492   2.675  0.7212 -2.0648  1.4225
16186TIP3    H269974   2.779   4.544   2.673 -0.2901  0.9236 -0.6804
16187TIP3   OH269975   3.814   4.481  11.680 -0.1289 -0.6175  0.3627
16187TIP3    H169976   3.899   4.439  11.693  0.8252  0.6114 -1.4487
16187TIP3    H269977   3.760   4.414  11.638  1.6673  0.0714 -3.3835
16188TIP3   OH269978   5.365   6.565  14.276  0.0917  0.0778 -0.2408
16188TIP3    H169979   5.308   6.526  14.210  1.6129 -1.2076 -0.8673
16188TIP3    H269980   5.451   6.568  14.235  0.6244  1.3862  0.8845
16189TIP3   OH269981   2.906   5.647  13.364  0.0512 -0.2208  0.1099
16189TIP3    H169982   2.915   5.609  13.277  1.6562  2.0571 -0.7983
16189TIP3    H269983   2.836   5.712  13.356 -1.6964 -1.8479  1.2848
16190TIP3   OH269984   2.113   5.445  13.199 -0.0520  0.0040 -0.1717
16190TIP3    H169985   2.034   5.424  13.150 -1.3718 -0.3375  1.9373
16190TIP3    H269986   2.133   5.364  13.247  0.3314  0.7217  0.9117
16191TIP3   OH269987   0.617   6.588  12.849 -0.0340 -0.3156 -0.2082
16191TIP3    H169988   0.628   6.528  12.924 -0.3656  0.8966  0.8412
16191TIP3    H269989   0.608   6.674  12.889  2.4011  0.7637 -1.7341
16192TIP3   OH269990   2.968   6.624  16.860 -0.1085  0.2556  0.1057
16192TIP3    H169991   3.060   6.645  16.876  0.4418 -1.7965 -0.0885
16192TIP3    H269992   2.947   6.556  16.925 -0.9556 -0.5707 -0.9999
16193TIP3   OH269993   0.314   2.750   0.498 -0.2802 -0.4372 -0.2629
16193TIP3    H169994   0.377   2.822   0.510 -0.7835 -0.0946  0.4508
16193TIP3    H269995   0.277   2.765   0.412  1.4126 -1.2998 -1.1937
16194TIP3   OH269996   1.969   4.495   3.725  0.0428 -0.4411 -0.7549
16194TIP3    H169997   2.016   4.577   3.708  2.6309 -1.6685 -0.1125
16194TIP3    H269998   2.008   4.432   3.665 -2.6435 -1.0712 -1.9904
16195TIP3   OH269999   4.763   2.770  12.855  0.1488 -0.3648 -0.1468
16195TIP3    H170000   4.798   2.813  12.777  1.1732 -0.4689  0.2389
16195TIP3    H270001   4.704   2.835  12.894 -0.2086 -0.2384 -0.8794
16196TIP3   OH270002   6.287   0.181  11.329 -0.8616  0.0230  0.3863
16196TIP3    H170003   6.243   0.236  11.264 -1.0139  0.7687  1.1023
16196TIP3    H270004   6.258   0.216  11.413  1.3143  0.7672  0.9144
16197TIP3   OH270005   5.117   6.218  15.086 -0.0306 -0.2345  0.0636
16197TIP3    H170006   5.025   6.244  15.090 -0.2280 -0.9483  0.2796
16197TIP3    H270007   5.156   6.256  15.165 -0.5757 -1.5470  0.9892
16198TIP3   OH270008   0.968   6.744   6.004  0.1126  0.6588 -0.1023
16198TIP3    H170009   1.048   6.797   6.005  1.1755 -0.8158  2.4287
16198TIP3    H270010   0.992   6.665   5.955  0.8028 -0.4746  1.9376
16199TIP3   OH270011   2.428   2.541  12.786  0.2431  0.3196  0.8411
16199TIP3    H170012   2.367   2.525  12.858  0.3892 -0.7729  0.7425
16199TIP3    H270013   2.430   2.636  12.776 -1.8349  0.3792  0.5359
16200TIP3   OH270014   2.858   0.637  11.824 -0.5570 -0.1528 -0.1100
16200TIP3    H170015   2.802   0.582  11.769 -1.9294  1.5915 -0.5433
16200TIP3    H270016   2.947   0.617  11.795 -1.2322  1.4131 -3.8391
16201TIP3   OH270017   2.676   4.266   1.657 -0.3927 -0.2833  0.2404
16201TIP3    H170018   2.668   4.237   1.748 -0.5806 -2.4418 -0.4167
16201TIP3    H270019   2.760   4.230   1.628 -1.0885 -1.0463 -0.9102
16202TIP3   OH270020   2.247   3.569  13.560 -0.4520  0.8210 -0.4230
16202TIP3    H170021   2.322   3.626  13.544  0.0962  0.0170 -0.7733
16202TIP3    H270022   2.171   3.625  13.546  0.0785  1.5194 -0.5468
16203TIP3   OH270023   3.296   0.775  14.269  0.3286 -0.4702 -0.0206
16203TIP3    H170024   3.257   0.796  14.184  1.4396 -1.5680 -0.8399
16203TIP3    H270025   3.387   0.752  14.249  0.5221 -1.0976  1.4212
16204TIP3   OH270026   5.014   0.627   3.157  0.2454 -0.7119  0.2631
16204TIP3    H170027   5.024   0.673   3.241 -1.6623  1.1667 -0.4537
16204TIP3    H270028   5.104   0.614   3.126  0.9604 -0.6919  2.1918
16205TIP3   OH270029   2.806   5.279   3.057  0.8421 -0.5015  0.2840
16205TIP3    H170030   2.862   5.235   3.121 -0.2456 -0.1818  1.4994
16205TIP3    H270031   2.745   5.331   3.110  1.1096  1.2846 -1.0712
16206TIP3   OH270032   4.068   4.257   6.611 -0.7468  0.3102 -0.5963
16206TIP3    H170033   4.043   4.166   6.624  1.1811 -0.1991 -0.2401
16206TIP3    H270034   3.998   4.293   6.555 -2.1548 -1.0350  0.2216
16207TIP3   OH270035   4.385   4.246  17.249  0.3244  0.0685 -0.0012
16207TIP3    H170036   4.362   4.229  17.158 -2.1638 -1.0727  0.7496
16207TIP3    H270037   4.391   4.341  17.256  0.4331  0.1649 -1.3069
16208TIP3   OH270038   0.231   2.383   5.511 -0.3851 -1.2014  0.4258
16208TIP3    H170039   0.302   2.334   5.553 -0.2638  0.4551  2.2863
16208TIP3    H270040   0.152   2.358   5.560 -0.1782  1.0726  2.0714
16209TIP3   OH270041   0.698   4.183   6.530  0.4440 -0.2484  0.4006
16209TIP3    H170042   0.767   4.137   6.577  2.0531  1.0005 -0.6426
16209TIP3    H270043   0.670   4.252   6.589  1.2164  0.2252  0.2151
16210TIP3   OH270044   1.652   4.670  13.712  0.3682 -0.5210  0.4395
16210TIP3    H170045   1.671   4.753  13.754 -0.0757 -1.3213  2.3287
16210TIP3    H270046   1.599   4.692  13.636  1.5958  1.0260 -0.0008
16211TIP3   OH270047   3.191   4.921   3.066  0.2864 -0.1693 -0.0856
16211TIP3    H170048   3.238   4.838   3.078  0.8473  0.3365  1.3564
16211TIP3    H270049   3.139   4.907   2.986 -0.9229 -2.5319  0.9912
16212TIP3   OH270050   0.772   0.325   0.155 -0.0942  0.5340  0.2097
16212TIP3    H170051   0.749   0.238   0.122  0.6202  0.3272  0.2324
16212TIP3    H270052   0.868   0.329   0.148 -0.1866  1.7556 -0.8985
16213TIP3   OH270053   0.578   1.214  14.811 -0.5137  0.0479  0.1311
16213TIP3    H170054   0.483   1.214  14.801 -0.6035 -1.1213  0.8254
16213TIP3    H270055   0.593   1.190  14.902  0.4566  0.3080  0.0577
16214TIP3   OH270056   4.720   5.975  13.850  0.1415 -0.0926  0.0689
16214TIP3    H170057   4.715   6.054  13.798 -0.6145  0.9949  1.6924
16214TIP3    H270058   4.812   5.951  13.850  0.4777  1.1421  0.0343
16215TIP3   OH270059   6.725   5.944   3.675  0.0932 -0.4983  0.2233
16215TIP3    H170060   6.759   6.013   3.618 -1.2527 -0.8005 -1.0221
16215TIP3    H270061   6.654   5.986   3.724  1.0231 -0.3298  1.4852
16216TIP3   OH270062   2.883   0.358   2.629  0.1086 -0.4116  0.4367
16216TIP3    H170063   2.949   0.425   2.649  0.0249 -0.4787  0.9601
16216TIP3    H270064   2.834   0.349   2.710 -1.4039  0.5765 -0.3170
16217TIP3   OH270065   2.489   4.711  14.160  0.2246  0.3806 -0.2374
16217TIP3    H170066   2.543   4.732  14.237  0.1215  0.0744 -0.0816
16217TIP3    H270067   2.403   4.692  14.196 -0.1709  1.5053 -0.5425
16218TIP3   OH270068   3.619   2.098   5.247  0.5453 -0.2550 -0.2621
16218TIP3    H170069   3.605   2.103   5.152 -0.4897 -0.4625 -0.1233
16218TIP3    H270070   3.596   2.008   5.270  1.6041 -0.4581  0.0694
16219TIP3   OH270071   3.391   2.111   4.361  0.0070 -0.0520 -0.3805
16219TIP3    H170072   3.425   2.093   4.273 -0.3827 -1.0503 -0.3401
16219TIP3    H270073   3.384   2.206   4.365 -0.9482 -0.0293 -1.8055
16220TIP3   OH270074   4.096   1.683  15.622  0.1878  0.2705 -0.0832
16220TIP3    H170075   4.157   1.676  15.548  0.6646  4.0411 -0.2258
16220TIP3    H270076   4.026   1.740  15.589 -0.1481  1.1439  2.0072
16221TIP3   OH270077   1.135   5.104  11.551 -0.2412  0.0348 -0.0116
16221TIP3    H170078   1.117   5.197  11.542  0.0249  0.0841 -0.0482
16221TIP3    H270079   1.229   5.099  11.566 -0.5600 -0.0885  2.2024
16222TIP3   OH270080   1.567   0.263   5.875  0.0976 -0.1489 -0.1432
16222TIP3    H170081   1.626   0.284   5.947 -0.1652  1.0101 -0.2446
16222TIP3    H270082   1.515   0.189   5.908  0.3952 -0.0296  0.6217
16223TIP3   OH270083   1.882   2.599   1.233 -0.0690 -0.1949  0.1224
16223TIP3    H170084   1.959   2.644   1.268  0.7465 -2.4994  1.5244
16223TIP3    H270085   1.909   2.568   1.147  0.3928 -0.4804  0.3637
16224TIP3   OH270086   6.481   5.255   0.659 -0.0927  0.6346  0.1673
16224TIP3    H170087   6.445   5.266   0.571 -2.5539  1.4436  1.1997
16224TIP3    H270088   6.424   5.192   0.702  0.3076  1.1673  1.5654
16225TIP3   OH270089   1.210   3.885  12.922 -0.0220 -0.5579 -0.1235
16225TIP3    H170090   1.186   3.872  12.830  2.3989  2.9763 -1.4963
16225TIP3    H270091   1.290   3.834  12.933  1.7935  1.8005 -1.3012
16226TIP3   OH270092   6.451   5.550   4.936  0.2527 -0.1268 -0.5173
16226TIP3    H170093   6.489   5.637   4.946 -0.5419  0.1620  0.0316
16226TIP3    H270094   6.357   5.565   4.929  0.2115 -0.8345 -1.8966
16227TIP3   OH270095   0.084   5.644  16.221  0.0606  0.4528 -0.1495
16227TIP3    H170096   0.090   5.558  16.263  0.1196 -0.0753 -1.2088
16227TIP3    H270097   0.152   5.696  16.263  0.7740 -0.3625 -0.2691
16228TIP3   OH270098   2.283   2.730   1.053 -0.4605 -0.2072  0.0864
16228TIP3    H170099   2.339   2.801   1.022  0.7890 -1.8221 -1.5648
16228TIP3    H270100   2.344   2.667   1.091 -1.6952  0.2692  3.1067
16229TIP3   OH270101   6.447   5.906  13.913  0.9768  0.0847 -0.1561
16229TIP3    H170102   6.481   5.879  13.999  0.6138 -1.5484 -0.4935
16229TIP3    H270103   6.480   5.841  13.852 -2.2501 -1.3434 -0.5954
16230TIP3   OH270104   4.722   6.299  16.598  0.0728 -0.5758  0.2438
16230TIP3    H170105   4.652   6.354  16.631  0.7897  0.6954 -0.2587
16230TIP3    H270106   4.790   6.361  16.571 -0.0204 -1.5488 -2.5687
16231TIP3   OH270107   0.763   2.895   5.138 -1.0271 -0.4046  0.2889
16231TIP3    H170108   0.698   2.880   5.069 -0.9257 -0.7405  0.2686
16231TIP3    H270109   0.818   2.966   5.104 -0.3146 -1.2973 -0.4357
16232TIP3   OH270110   0.227   3.762  12.039 -0.1644 -0.4431  0.0389
16232TIP3    H170111   0.140   3.777  12.002  0.3254  1.2878 -0.5084
16232TIP3    H270112   0.214   3.696  12.107 -2.0973  0.6235  0.7670
16233TIP3   OH270113   6.438   2.855   5.414  0.0486  0.3653  0.2784
16233TIP3    H170114   6.387   2.923   5.456  1.5848  2.1240 -0.5557
16233TIP3    H270115   6.522   2.896   5.395  2.0844 -2.5460  2.1494
16234TIP3   OH270116   3.799   2.331  16.100 -0.1170 -0.0044  0.3325
16234TIP3    H170117   3.765   2.314  16.012  0.1496  0.1500  0.1970
16234TIP3    H270118   3.793   2.246  16.145  2.5025 -0.8995 -0.7849
16235TIP3   OH270119   2.661   1.716  15.155  0.5096 -0.2260  0.1919
16235TIP3    H170120   2.677   1.762  15.073  0.4088 -1.1159 -0.3360
16235TIP3    H270121   2.687   1.626  15.138  1.2179 -0.2775  1.3769
16236TIP3   OH270122   4.505   5.954   3.652 -0.4628  0.0153  0.2740
16236TIP3    H170123   4.440   5.884   3.659 -0.8151  0.5079  2.3507
16236TIP3    H270124   4.456   6.034   3.670  0.3210  0.6281 -0.2488
16237TIP3   OH270125   3.158   4.555  16.486  0.1003 -0.8983  0.3473
16237TIP3    H170126   3.143   4.623  16.420  2.3717  1.3389  1.9452
16237TIP3    H270127   3.236   4.508  16.455  0.2573 -0.8517  0.6636
16238TIP3   OH270128   6.342   0.588  12.366 -0.3343  1.0702  0.7801
16238TIP3    H170129   6.351   0.503  12.322  0.0344  0.4159  2.0812
16238TIP3    H270130   6.303   0.645  12.299  0.3122  0.1509 -0.4323
16239TIP3   OH270131   4.834   5.150   0.053 -0.2445 -0.2381  0.8779
16239TIP3    H170132   4.753   5.099   0.045 -0.3169  0.0665 -0.7869
16239TIP3    H270133   4.896   5.090   0.096 -0.4707 -1.5838 -0.5704
16240TIP3   OH270134   6.120   1.675  14.639  0.6468 -1.0874  0.6327
16240TIP3    H170135   6.094   1.590  14.675 -0.0781 -1.6000 -1.0173
16240TIP3    H270136   6.069   1.684  14.559  0.0682  1.3067  1.1867
16241TIP3   OH270137   1.432   2.269  10.935  0.3431  0.0499 -0.2079
16241TIP3    H170138   1.466   2.198  10.881 -0.3064  0.8951 -1.7856
16241TIP3    H270139   1.450   2.349  10.885 -1.8970  0.7033 -0.0776
16242TIP3   OH270140   3.256   4.508  14.529  0.1274 -0.2432 -0.0868
16242TIP3    H170141   3.163   4.509  14.507 -0.1848  0.5973  1.1900
16242TIP3    H270142   3.262   4.451  14.606  0.5265  0.4719  0.4205
16243TIP3   OH270143   4.187   2.017   4.571  0.1305 -0.3918 -0.2356
16243TIP3    H170144   4.254   2.004   4.638  1.0898 -1.1563 -1.3057
16243TIP3    H270145   4.229   1.992   4.489 -1.4527 -0.8758 -0.9533
16244TIP3   OH270146   4.400   3.276  11.643  0.0123 -0.0590 -0.4000
16244TIP3    H170147   4.308   3.286  11.666  0.4616  1.2318  1.0597
16244TIP3    H270148   4.446   3.331  11.707  1.7786 -0.5585 -1.1900
16245TIP3   OH270149   2.085   4.939   4.129  0.5211 -0.2298 -0.2632
16245TIP3    H170150   2.000   4.896   4.128  0.8804 -0.9584 -0.2666
16245TIP3    H270151   2.065   5.032   4.117 -0.2422 -0.4321 -0.6257
16246TIP3   OH270152   1.256   4.178  12.870 -0.2447  0.5729  0.2291
16246TIP3    H170153   1.347   4.179  12.842 -0.0901 -0.9273  0.6174
16246TIP3    H270154   1.240   4.088  12.898 -2.0341  0.6419 -0.4411
16247TIP3   OH270155   4.896   6.042  11.485  0.0472  0.3340 -0.0476
16247TIP3    H170156   4.861   5.954  11.468 -0.2777  0.3766  0.3995
16247TIP3    H270157   4.825   6.101  11.462  0.5533  0.5318 -1.1590
16248TIP3   OH270158   4.933   4.384   5.331 -0.5232 -0.7177  0.2329
16248TIP3    H170159   4.974   4.348   5.252  0.1980 -0.7079  0.5901
16248TIP3    H270160   4.866   4.443   5.298  1.4750  1.3187 -0.4727
16249TIP3   OH270161   3.807   5.001  15.228 -0.9992 -0.1758 -0.4561
16249TIP3    H170162   3.727   5.046  15.252 -1.5488 -1.4005  0.0952
16249TIP3    H270163   3.859   5.067  15.182 -2.4071  0.5787 -1.0216
16250TIP3   OH270164   0.001   1.884   1.264 -0.2667  0.0953 -0.0299
16250TIP3    H170165  -0.026   1.898   1.355 -0.8029  1.2626 -0.3495
16250TIP3    H270166   0.073   1.821   1.270 -2.3052 -2.3247  0.9580
16251TIP3   OH270167   3.150   2.980  12.455  0.3076  0.7754 -0.3015
16251TIP3    H170168   3.122   3.070  12.469 -1.0774  0.3075  0.1172
16251TIP3    H270169   3.132   2.963  12.362 -0.3744  0.6323 -0.1491
16252TIP3   OH270170   4.445   0.941   3.657 -0.2577  0.4524  0.6620
16252TIP3    H170171   4.406   0.853   3.652 -0.4190  0.4844  1.2077
16252TIP3    H270172   4.493   0.940   3.741  1.2502  0.2822 -0.1604
16253TIP3   OH270173   3.107   5.819  17.046  0.7030 -0.1673  0.0087
16253TIP3    H170174   3.136   5.880  17.114  2.0746  0.1215 -0.7906
16253TIP3    H270175   3.081   5.875  16.973 -0.0986 -0.4944  0.0376
16254TIP3   OH270176   1.020   1.755   5.213 -0.7214  0.2704  0.3890
16254TIP3    H170177   1.001   1.848   5.201  1.0367  0.7139  0.7445
16254TIP3    H270178   1.031   1.744   5.307 -0.3546 -0.1656  0.3010
16255TIP3   OH270179   4.337   0.283  12.539 -0.1019  0.4101 -0.2639
16255TIP3    H170180   4.263   0.298  12.597 -1.1433 -1.2004 -1.0982
16255TIP3    H270181   4.414   0.293  12.596 -1.0278  0.2444  1.0730
16256TIP3   OH270182   6.762   1.791  12.270 -0.4118 -0.0832  0.2728
16256TIP3    H170183   6.731   1.881  12.280 -0.5081 -0.2005  1.1277
16256TIP3    H270184   6.710   1.755  12.198 -2.0561 -0.1810  1.4671
16257TIP3   OH270185   2.647   2.647   0.687  0.1405 -0.1194  0.8191
16257TIP3    H170186   2.650   2.701   0.608 -0.2682 -1.9552 -0.5206
16257TIP3    H270187   2.555   2.625   0.699  0.5884 -4.2762 -1.4953
16258TIP3   OH270188   6.399   1.037  15.051 -0.2918 -0.0034  0.3119
16258TIP3    H170189   6.414   1.083  14.968  0.4310 -0.4759  0.1713
16258TIP3    H270190   6.480   0.988  15.066 -0.7710 -0.6465  0.8323
16259TIP3   OH270191   2.967   5.921  13.655  0.1534  0.2035  0.6313
16259TIP3    H170192   2.885   5.905  13.702 -1.0025  0.8489 -1.0344
16259TIP3    H270193   3.002   5.833  13.638 -3.1957 -0.6927 -3.5169
16260TIP3   OH270194   1.126   1.685  11.948  0.3775  0.1246 -0.5127
16260TIP3    H170195   1.062   1.665  12.016  2.0753  0.4168  1.2430
16260TIP3    H270196   1.130   1.780  11.946  1.3807  0.0975  0.0026
16261TIP3   OH270197   3.960   0.398   1.375 -0.2285  0.5303  0.3171
16261TIP3    H170198   3.919   0.312   1.364  0.8830  0.0043  0.1294
16261TIP3    H270199   3.889   0.460   1.360 -0.8868 -0.3432 -0.3218
16262TIP3   OH270200   4.556   1.622  11.543  0.1490 -0.0522  0.0479
16262TIP3    H170201   4.471   1.613  11.588  0.4693  0.4221  0.7726
16262TIP3    H270202   4.552   1.708  11.503 -0.2495 -0.5919 -1.1069
16263TIP3   OH270203   3.288   6.577  11.990  0.7776 -0.2821  0.0327
16263TIP3    H170204   3.254   6.625  11.915  1.6075 -1.8430 -1.4217
16263TIP3    H270205   3.382   6.599  11.991  0.7664 -0.2462  0.6465
16264TIP3   OH270206   5.525   4.354  13.298 -0.2730  0.3023 -0.9508
16264TIP3    H170207   5.553   4.344  13.389 -1.1274 -0.2818 -0.7436
16264TIP3    H270208   5.435   4.324  13.297 -0.4605  0.8528 -1.8839
16265TIP3   OH270209   3.740   4.282  15.376 -0.4189  0.3535 -0.7114
16265TIP3    H170210   3.760   4.375  15.380 -0.4434  0.5243 -3.1227
16265TIP3    H270211   3.665   4.271  15.434 -0.1126  1.7183 -0.0184
16266TIP3   OH270212   0.830   5.729   4.193  0.4548  0.5262  0.3981
16266TIP3    H170213   0.888   5.803   4.211  0.1430  0.3283  2.4855
16266TIP3    H270214   0.751   5.747   4.244 -0.4100 -0.3235 -0.5788
16267TIP3   OH270215   6.144   3.571  14.768  0.4946 -0.0860 -0.2308
16267TIP3    H170216   6.135   3.477  14.752 -0.9325 -0.1449  0.6564
16267TIP3    H270217   6.208   3.578  14.838  0.9735 -0.3599 -0.6401
16268TIP3   OH270218   3.045   6.192   2.706  0.0790  0.4293  0.7534
16268TIP3    H170219   3.089   6.246   2.771 -0.5797  0.0814  1.5001
16268TIP3    H270220   2.952   6.213   2.716 -0.4267 -2.0762  2.3096
16269TIP3   OH270221   5.348   4.334   4.110  0.0092 -0.2595  0.2047
16269TIP3    H170222   5.427   4.294   4.146 -0.8678  0.4352  3.2121
16269TIP3    H270223   5.276   4.282   4.145 -0.9483  0.7528 -0.1846
16270TIP3   OH270224   4.670   4.465   3.509 -0.0197 -0.1006 -0.1873
16270TIP3    H170225   4.759   4.492   3.485  0.2777 -0.2239  0.7290
16270TIP3    H270226   4.613   4.518   3.454  0.6286 -0.5401 -1.3177
16271TIP3   OH270227   2.429   2.578   6.245  0.4251 -0.3117  0.1917
16271TIP3    H170228   2.430   2.661   6.294  2.6180  0.5215 -1.1400
16271TIP3    H270229   2.477   2.517   6.301  0.3749 -0.1922  0.3681
16272TIP3   OH270230   5.652   0.701  10.834  0.6032  0.5343  0.2172
16272TIP3    H170231   5.583   0.658  10.885 -0.4152  0.8637 -0.8447
16272TIP3    H270232   5.730   0.648  10.850  0.0592  0.0151  1.2549
16273TIP3   OH270233   1.930   4.451   3.227 -0.6588  0.2201  0.0650
16273TIP3    H170234   2.021   4.429   3.247 -0.8229 -1.4958 -0.9214
16273TIP3    H270235   1.882   4.423   3.305 -0.6864 -1.8282 -0.6206
16274TIP3   OH270236   3.366   0.372   0.569  0.7926 -0.0655 -0.0272
16274TIP3    H170237   3.454   0.338   0.551  1.2768  0.9405  0.3316
16274TIP3    H270238   3.379   0.466   0.584 -0.9035  1.0815 -4.2755
16275TIP3   OH270239   4.948   3.008   0.066  0.1270  0.0952 -0.4974
16275TIP3    H170240   4.869   3.025   0.015  0.7513  0.4311 -1.4022
16275TIP3    H270241   4.926   2.934   0.122  0.2955 -2.4489 -3.4748
16276TIP3   OH270242   4.775   5.176  13.929 -0.0522  1.1674 -0.0634
16276TIP3    H170243   4.716   5.104  13.950  0.4430  0.2098 -1.7823
16276TIP3    H270244   4.718   5.253  13.924 -0.8004  0.6636  0.4962
16277TIP3   OH270245   2.290   1.637   0.432  0.7644 -0.0017  0.2351
16277TIP3    H170246   2.222   1.583   0.472  0.6099 -2.6501 -3.1627
16277TIP3    H270247   2.242   1.705   0.384  0.6096 -0.5658 -0.4159
16278TIP3   OH270248   3.083   4.588  14.827  0.0769 -0.0561 -0.1903
16278TIP3    H170249   3.156   4.619  14.882  1.7415 -0.1070 -2.2396
16278TIP3    H270250   3.118   4.511  14.783 -0.7071  0.7365 -2.2970
16279TIP3   OH270251   6.164   2.032   2.691 -0.1114 -0.6252 -1.0615
16279TIP3    H170252   6.212   1.999   2.615  0.9724  0.5898 -0.9486
16279TIP3    H270253   6.172   1.963   2.756  2.1954 -0.2042 -0.7858
16280TIP3   OH270254   0.127   0.839  15.877 -0.5407 -0.5462  0.4579
16280TIP3    H170255   0.217   0.870  15.871 -0.8442  0.2783 -0.0797
16280TIP3    H270256   0.134   0.744  15.869  0.2555 -0.4669  0.0465
16281TIP3   OH270257   2.636   4.478   5.349  0.2735 -0.0154 -0.2532
16281TIP3    H170258   2.574   4.409   5.325  1.6390 -1.3470 -0.1557
16281TIP3    H270259   2.710   4.430   5.388  0.9186  1.5854  0.5688
16282TIP3   OH270260   0.888   6.198  14.043 -0.6958 -0.7478 -0.9351
16282TIP3    H170261   0.971   6.157  14.068 -1.4634 -1.8124 -0.0948
16282TIP3    H270262   0.892   6.202  13.947  0.2958 -0.8264 -0.9123
16283TIP3   OH270263   6.465   3.994   3.565  0.0163 -0.1572  0.2726
16283TIP3    H170264   6.551   4.034   3.575 -0.0218 -0.3483  1.5333
16283TIP3    H270265   6.438   4.017   3.476  0.4883  1.6358  0.5541
16284TIP3   OH270266   0.833   2.810  16.390  0.1188 -0.6310 -0.1622
16284TIP3    H170267   0.920   2.793  16.425 -0.2395 -0.5513  0.7750
16284TIP3    H270268   0.840   2.786  16.297  0.7582 -1.9187  0.1992
16285TIP3   OH270269   2.661   2.992  12.782 -0.2380  0.6093 -0.6369
16285TIP3    H170270   2.672   2.914  12.837  2.0998  2.4152  1.7187
16285TIP3    H270271   2.622   3.057  12.842 -2.8303  1.1672 -2.7275
16286TIP3   OH270272   0.292   4.995  15.839  0.4356 -1.0513  0.6397
16286TIP3    H170273   0.253   5.024  15.756  2.2569  0.4349  0.2358
16286TIP3    H270274   0.241   5.040  15.907  0.7969  0.0886  0.1775
16287TIP3   OH270275   0.789   1.342  14.713 -0.0629  0.1358 -0.2297
16287TIP3    H170276   0.714   1.285  14.732  0.2854 -0.7326 -1.3480
16287TIP3    H270277   0.782   1.361  14.620 -0.2174  2.0485  0.1250
16288TIP3   OH270278   3.765   5.730   0.453 -0.0258 -0.0009  0.8221
16288TIP3    H170279   3.719   5.662   0.404 -0.3455  0.6258  0.2292
16288TIP3    H270280   3.857   5.704   0.451  0.2080  0.7790 -1.4624
16289TIP3   OH270281   4.114   2.501   0.644 -0.4111 -0.3632 -0.2843
16289TIP3    H170282   4.182   2.517   0.710 -0.4369  2.2415 -0.8257
16289TIP3    H270283   4.039   2.470   0.695 -0.1066  0.6509  0.8284
16290TIP3   OH270284   1.068   4.365  14.292  0.5919 -0.4226  0.1793
16290TIP3    H170285   1.079   4.343  14.199  0.3535 -0.7744  0.2325
16290TIP3    H270286   0.986   4.416  14.294  1.8896  1.8107 -0.1537
16291TIP3   OH270287   4.057   5.580  15.215  0.2970 -0.2446  0.2336
16291TIP3    H170288   3.998   5.566  15.290  1.2008 -3.0815  0.5315
16291TIP3    H270289   4.133   5.624  15.252 -0.7831  1.7261  0.2106
16292TIP3   OH270290   3.780   5.117  14.313  0.0208 -0.3296  0.3838
16292TIP3    H170291   3.733   5.199  14.298 -0.8435 -1.0808 -1.2118
16292TIP3    H270292   3.771   5.101  14.407 -0.0180  1.2481  0.6698
16293TIP3   OH270293   4.983   4.065   2.784 -0.1044 -0.1895  0.1338
16293TIP3    H170294   4.937   4.123   2.724 -0.4796  0.4575  1.0168
16293TIP3    H270295   4.918   4.000   2.810 -0.2165  0.0763  0.5354
16294TIP3   OH270296   0.863   5.405  17.239 -0.1069  0.7145  0.0381
16294TIP3    H170297   0.873   5.424  17.145  0.5918  0.5956  0.0826
16294TIP3    H270298   0.883   5.489  17.282  0.1802  0.6146  0.1039
16295TIP3   OH270299   2.049   6.243   4.838 -0.1124  1.3003  0.1079
16295TIP3    H170300   2.017   6.225   4.750 -2.4342  3.4986  0.3657
16295TIP3    H270301   2.139   6.275   4.825  0.3799 -0.4407 -1.1728
16296TIP3   OH270302   4.594   4.484  16.015 -0.1013  0.1346  0.1794
16296TIP3    H170303   4.573   4.458  16.104 -2.2083 -0.9065 -0.5653
16296TIP3    H270304   4.678   4.442  15.997  0.2372  0.1702  1.5703
16297TIP3   OH270305   4.536   1.876   5.970 -0.6060  0.0005 -0.2554
16297TIP3    H170306   4.467   1.938   5.994 -0.5872  0.5544 -1.5127
16297TIP3    H270307   4.497   1.790   5.984 -1.2515  0.3038 -0.1364
16298TIP3   OH270308   6.512   4.450   3.482 -0.5899  0.4752 -0.5704
16298TIP3    H170309   6.467   4.366   3.474 -0.3335  0.2862 -0.0424
16298TIP3    H270310   6.471   4.505   3.415 -4.1929  1.4456  2.0842
16299TIP3   OH270311   6.494   4.985  16.017 -0.0036  0.2476 -0.1809
16299TIP3    H170312   6.560   4.946  16.074  0.2830 -0.4573 -0.9742
16299TIP3    H270313   6.492   4.929  15.940  1.2823  2.4624 -1.9456
16300TIP3   OH270314   3.483   3.825   6.036 -0.2390  0.0328 -0.3485
16300TIP3    H170315   3.489   3.904   6.088  0.6681  0.3778 -0.9442
16300TIP3    H270316   3.458   3.757   6.098 -0.1811  0.6208  0.3303
16301TIP3   OH270317   3.187   3.088  15.415  0.2720  0.0000 -0.4883
16301TIP3    H170318   3.228   3.057  15.335 -1.6702 -2.0722 -0.7963
16301TIP3    H270319   3.243   3.054  15.485  1.0279  0.3274 -0.9250
16302TIP3   OH270320   3.538   5.074   1.037  0.3473  0.3335 -0.3179
16302TIP3    H170321   3.630   5.086   1.060  0.9528  1.3642 -2.9617
16302TIP3    H270322   3.492   5.075   1.121  2.7080 -0.1284  1.0707
16303TIP3   OH270323   0.634   4.133   2.642  0.2259  0.6575  0.0780
16303TIP3    H170324   0.711   4.163   2.692  0.7813 -0.3612 -0.1381
16303TIP3    H270325   0.606   4.053   2.688 -1.1194  1.3717  0.5441
16304TIP3   OH270326   6.175   3.273   5.277 -0.2638  0.2921  0.4548
16304TIP3    H170327   6.240   3.219   5.232  0.9775  1.7615  0.4251
16304TIP3    H270328   6.091   3.246   5.239  0.4660 -0.6312 -0.5420
16305TIP3   OH270329   4.028   2.541   4.277 -0.3177  0.1730  0.4841
16305TIP3    H170330   4.010   2.448   4.280 -3.9579  0.6297 -1.4504
16305TIP3    H270331   3.983   2.577   4.353  0.1088  0.4584  0.6030
16306TIP3   OH270332   0.178   0.472   3.144 -0.3487  0.1061  0.0122
16306TIP3    H170333   0.265   0.513   3.143  0.1683 -0.5319  3.7618
16306TIP3    H270334   0.194   0.381   3.119  0.6468 -0.6751  3.0787
16307TIP3   OH270335   0.804   0.389  12.869 -0.0181 -0.2331  0.0891
16307TIP3    H170336   0.853   0.381  12.951 -0.7494  0.3954  0.6025
16307TIP3    H270337   0.814   0.480  12.843 -0.4032 -0.2466 -0.1195
16308TIP3   OH270338   3.966   1.488   1.942 -0.3764 -0.5442  0.3627
16308TIP3    H170339   4.004   1.415   1.991 -0.7743 -0.0503  1.4275
16308TIP3    H270340   3.877   1.496   1.975 -0.0081  1.1231  1.0969
16309TIP3   OH270341   2.192   5.370   4.333  0.5514 -0.2505 -0.2433
16309TIP3    H170342   2.177   5.320   4.414 -1.9765 -0.6372 -0.8717
16309TIP3    H270343   2.205   5.304   4.266  1.0792  0.0358 -0.4249
16310TIP3   OH270344   1.241   2.517  11.765 -0.6946 -0.0272 -0.0101
16310TIP3    H170345   1.162   2.466  11.784 -0.4533 -0.4087 -0.0360
16310TIP3    H270346   1.213   2.578  11.696 -1.3101  0.7046  0.8685
16311TIP3   OH270347   3.591   2.298  14.313 -0.0669 -0.2543 -0.6345
16311TIP3    H170348   3.529   2.253  14.370  2.0995 -1.9935  0.4852
16311TIP3    H270349   3.536   2.353  14.256 -2.4565 -0.0971  1.6491
16312TIP3   OH270350   1.113   4.460   1.172 -0.0959  0.1366 -0.3820
16312TIP3    H170351   1.125   4.555   1.167 -1.1365  0.5079  2.4636
16312TIP3    H270352   1.190   4.428   1.219  0.1018 -0.4234 -1.0614
16313TIP3   OH270353   3.872   4.772  15.607  0.0881 -0.5688  0.9532
16313TIP3    H170354   3.927   4.815  15.542  0.8589 -1.7810  0.7869
16313TIP3    H270355   3.827   4.703  15.559 -1.7402  0.4752  1.0445
16314TIP3   OH270356   6.267   5.006   4.776  0.7118 -0.1160  0.2448
16314TIP3    H170357   6.209   5.076   4.807  0.6949  0.4489 -0.9975
16314TIP3    H270358   6.288   5.030   4.686  0.6398 -1.7562 -0.2507
16315TIP3   OH270359   3.957   4.206   1.350 -0.1973  0.4764  0.1260
16315TIP3    H170360   3.988   4.229   1.438  0.9267  1.0323 -0.3820
16315TIP3    H270361   3.997   4.273   1.293  0.5923 -0.9119 -1.0238
16316TIP3   OH270362   4.887   2.537  11.936 -0.1110  0.2915 -0.5380
16316TIP3    H170363   4.968   2.566  11.894  0.3035  0.3907  0.3242
16316TIP3    H270364   4.823   2.533  11.864  1.2190 -2.0914 -1.7208
16317TIP3   OH270365   1.772   2.940   1.412 -0.0305  0.3609  0.3378
16317TIP3    H170366   1.724   2.904   1.337  0.0352  2.6501 -0.9146
16317TIP3    H270367   1.840   2.876   1.432  0.2167 -0.1233 -1.8728
16318TIP3   OH270368   4.605   3.135  11.535  0.1770  0.1237 -0.4616
16318TIP3    H170369   4.531   3.166  11.586  0.7768  0.2639  0.3295
16318TIP3    H270370   4.679   3.188  11.564  0.4393  0.5463 -1.8213
16319TIP3   OH270371   0.699   0.170   4.415 -0.0306  0.1613 -1.1655
16319TIP3    H170372   0.736   0.107   4.353 -1.5896 -0.0842 -1.8882
16319TIP3    H270373   0.617   0.129   4.444  1.2902 -0.4233  2.2153
16320TIP3   OH270374   5.369   3.698  14.883  0.8065  0.1735 -0.3241
16320TIP3    H170375   5.322   3.625  14.843  1.5914 -1.8903  2.1867
16320TIP3    H270376   5.338   3.699  14.974  3.0404  0.9766  0.5067
16321TIP3   OH270377   4.438   1.318  15.609  0.6719 -0.3420 -0.0795
16321TIP3    H170378   4.456   1.378  15.681  0.7849 -1.5518  0.9368
16321TIP3    H270379   4.370   1.362  15.558 -0.1609  0.1205  1.3422
16322TIP3   OH270380   2.242   3.174   0.778 -0.1946  0.6134 -0.0632
16322TIP3    H170381   2.282   3.140   0.698  0.3580 -0.1571  0.5202
16322TIP3    H270382   2.161   3.215   0.749 -0.7329 -0.9232 -0.8639
16323TIP3   OH270383   6.265   4.244  12.944  0.6594  0.0764  0.8512
16323TIP3    H170384   6.252   4.331  12.908 -1.8576 -0.7731 -0.5127
16323TIP3    H270385   6.181   4.220  12.983  1.2836 -1.7431  1.2173
16324TIP3   OH270386   2.968   0.118  12.719  0.0515 -0.1861 -0.0988
16324TIP3    H170387   3.020   0.195  12.697  0.5156 -0.4023  0.2210
16324TIP3    H270388   2.999   0.050  12.659  0.5909 -0.4909  0.5111
16325TIP3   OH270389   3.730   4.262  14.402 -0.4159 -0.1316  0.0898
16325TIP3    H170390   3.748   4.285  14.493  2.1978 -0.8987 -0.1472
16325TIP3    H270391   3.773   4.177  14.390  1.1210  0.8702 -2.3457
16326TIP3   OH270392   5.991   4.200   4.816  0.0241 -0.3917  0.1647
16326TIP3    H170393   5.948   4.145   4.881  0.7559 -0.3947  0.6497
16326TIP3    H270394   5.955   4.288   4.831  1.2206 -0.0996  1.5228
16327TIP3   OH270395   4.651   0.910   1.668 -0.0206  0.4338 -0.1604
16327TIP3    H170396   4.663   0.815   1.671 -1.3306  0.2490 -0.4978
16327TIP3    H270397   4.669   0.939   1.758  2.4122  0.1571 -0.4837
16328TIP3   OH270398   1.383   1.626   5.496  0.0760  0.5273 -0.2367
16328TIP3    H170399   1.359   1.534   5.481 -1.5132  0.6260  1.3907
16328TIP3    H270400   1.409   1.629   5.588 -0.3809  1.7960 -0.1365
16329TIP3   OH270401   3.494   4.675  13.369  0.0664 -0.3843 -0.9287
16329TIP3    H170402   3.486   4.588  13.408 -1.4017 -1.2576 -3.0326
16329TIP3    H270403   3.472   4.735  13.440  2.2002 -1.5926  0.8975
16330TIP3   OH270404   6.322   1.805  14.553  0.4001 -0.2449 -0.0052
16330TIP3    H170405   6.246   1.748  14.565 -0.3158  0.1901 -2.0203
16330TIP3    H270406   6.396   1.753  14.584 -0.6704 -0.6290  2.1456
16331TIP3   OH270407   5.579   0.244  10.273  0.2384  0.4760  0.1397
16331TIP3    H170408   5.655   0.271  10.325  1.1185 -0.0931 -0.8266
16331TIP3    H270409   5.535   0.178  10.327 -1.1982  2.7049  1.9465
16332TIP3   OH270410   0.827   3.911  15.392 -0.0598 -0.4594  0.2672
16332TIP3    H170411   0.832   4.006  15.402  1.1154 -0.5579  0.7295
16332TIP3    H270412   0.733   3.893  15.382 -0.1363  0.9550 -2.0755
16333TIP3   OH270413   2.498   2.565   3.869 -0.4922  0.3623 -0.1294
16333TIP3    H170414   2.406   2.539   3.859 -0.7753  0.5828  1.6051
16333TIP3    H270415   2.520   2.606   3.786 -2.7070  2.4751  0.2005
16334TIP3   OH270416   3.734   2.001  13.631 -1.0268 -0.6024  0.2382
16334TIP3    H170417   3.756   2.068  13.566  0.6918 -1.3146  0.0415
16334TIP3    H270418   3.731   2.048  13.714  4.3516 -0.7320  0.8338
16335TIP3   OH270419   1.637   2.997   0.061  0.3507  0.3706 -0.2327
16335TIP3    H170420   1.604   2.916   0.100  0.7470 -1.7231 -3.8432
16335TIP3    H270421   1.559   3.049   0.042 -0.0595 -0.0780  0.2128
16336TIP3   OH270422   5.815   5.506   6.149  0.6154 -0.9804 -0.1815
16336TIP3    H170423   5.907   5.488   6.133  0.7633 -0.1590 -0.2812
16336TIP3    H270424   5.769   5.459   6.079  0.9353 -1.6240  0.0381
16337TIP3   OH270425   1.368   5.942   2.839  0.2108  0.0790 -0.0848
16337TIP3    H170426   1.360   6.037   2.851  1.7682 -0.0423  3.1550
16337TIP3    H270427   1.430   5.932   2.767  0.2988  1.5227 -0.2404
16338TIP3   OH270428   1.713   1.544  13.234  0.2302  0.9449  0.2901
16338TIP3    H170429   1.778   1.586  13.178  0.7173  0.0644  0.1760
16338TIP3    H270430   1.743   1.561  13.323  0.3836  0.9102  0.2454
16339TIP3   OH270431   2.580   1.518   2.802 -0.1576  0.7293 -0.2229
16339TIP3    H170432   2.624   1.602   2.796  2.0714 -0.2975  0.7995
16339TIP3    H270433   2.648   1.453   2.785 -1.5434 -0.9232  0.2193
16340TIP3   OH270434   1.731   3.065  14.437 -0.0988  0.0169 -0.2826
16340TIP3    H170435   1.643   3.076  14.473  0.3235  1.5284  0.4099
16340TIP3    H270436   1.722   3.090  14.345 -0.8340 -2.1375 -0.8379
16341TIP3   OH270437   5.111   0.448  16.302  0.1525  0.0980 -0.0116
16341TIP3    H170438   5.111   0.396  16.382 -0.5633 -0.1894 -0.1895
16341TIP3    H270439   5.160   0.395  16.239  1.6593  0.8074  0.5210
16342TIP3   OH270440   1.816   6.475   0.755  0.4372 -0.1476  0.1750
16342TIP3    H170441   1.817   6.558   0.708 -1.2223 -0.5111 -0.5753
16342TIP3    H270442   1.895   6.430   0.725 -0.8335 -0.6340 -2.8755
16343TIP3   OH270443   4.391   0.486   3.967  0.9972 -0.0106 -0.2827
16343TIP3    H170444   4.347   0.459   4.048  1.5182  0.1230  0.0492
16343TIP3    H270445   4.435   0.407   3.936  0.6874 -0.0961 -0.5134
16344TIP3   OH270446   3.617   2.307  10.528  0.0822  0.1607 -0.5302
16344TIP3    H170447   3.557   2.299  10.454 -0.1438 -2.3195 -0.1415
16344TIP3    H270448   3.697   2.345  10.491 -1.2202  2.3173 -1.2963
16345TIP3   OH270449   6.283   0.259   0.495 -0.0616 -0.2307  0.0370
16345TIP3    H170450   6.248   0.172   0.515 -0.6271  0.2236  1.1524
16345TIP3    H270451   6.283   0.263   0.399 -2.5737 -0.4936 -0.0510
16346TIP3   OH270452   3.626   6.042  13.273 -0.2995  0.4791  0.0387
16346TIP3    H170453   3.573   6.000  13.340 -2.3239 -0.6615 -2.1534
16346TIP3    H270454   3.680   5.972  13.237  0.1195  0.8897 -0.1535
16347TIP3   OH270455   1.476   3.813  14.295  0.0304 -0.3770 -0.4349
16347TIP3    H170456   1.387   3.846  14.302  0.3612  0.3416  0.6592
16347TIP3    H270457   1.497   3.819  14.202 -0.6956  0.4267 -0.5593
16348TIP3   OH270458   4.098   3.383   6.238  0.0864  0.2923  0.2541
16348TIP3    H170459   4.041   3.307   6.251 -1.0866  1.1859  0.5090
16348TIP3    H270460   4.083   3.409   6.147 -0.5805  1.0287  0.5578
16349TIP3   OH270461   4.424   4.146  16.151  0.0537  0.3975  0.1282
16349TIP3    H170462   4.428   4.147  16.055  2.5193 -0.9043  0.1151
16349TIP3    H270463   4.410   4.237  16.176 -0.2230  0.8168 -1.4679
16350TIP3   OH270464   2.551   4.940  10.909 -0.4067  0.3245  0.0940
16350TIP3    H170465   2.521   4.995  10.837  0.5713 -0.1849 -0.7245
16350TIP3    H270466   2.479   4.879  10.925 -0.5949  0.3802 -0.5241
16351TIP3   OH270467   0.610   0.143  12.620 -0.6317  0.3591  0.3155
16351TIP3    H170468   0.537   0.205  12.623 -1.1115 -0.2261  2.0370
16351TIP3    H270469   0.687   0.195  12.641 -0.9965  0.4625  1.4795
16352TIP3   OH270470   0.705   2.938   2.703 -0.0789 -0.1221 -0.0481
16352TIP3    H170471   0.766   2.934   2.776  1.8360 -1.3540 -1.6115
16352TIP3    H270472   0.752   2.986   2.635 -1.8223  1.0308 -0.5196
16353TIP3   OH270473   6.264   4.450   2.917  0.2300  0.0784 -0.5107
16353TIP3    H170474   6.204   4.447   2.843 -0.0566  0.6363 -0.3075
16353TIP3    H270475   6.240   4.530   2.964 -1.0044 -1.3405  1.3922
16354TIP3   OH270476   4.602   4.891  14.208 -0.0443 -0.1062  0.3159
16354TIP3    H170477   4.633   4.972  14.249 -1.0037 -0.0155  0.9148
16354TIP3    H270478   4.611   4.825  14.277 -0.9786 -0.1095  0.4477
16355TIP3   OH270479   0.323   0.222  11.848  0.1210 -0.2186 -0.0585
16355TIP3    H170480   0.407   0.199  11.889  0.8260  0.1950 -1.2420
16355TIP3    H270481   0.324   0.175  11.765 -0.0271  1.1775 -0.8769
16356TIP3   OH270482   6.728   1.840   4.868 -0.0509 -0.0410  0.1285
16356TIP3    H170483   6.811   1.837   4.917  0.5426 -1.0512 -0.8591
16356TIP3    H270484   6.709   1.748   4.849  0.3205  0.3063 -2.3941
16357TIP3   OH270485   0.568   5.586  15.896 -0.4148  0.4568  0.1149
16357TIP3    H170486   0.516   5.632  15.829  0.1220 -0.5545 -1.0411
16357TIP3    H270487   0.592   5.654  15.959 -1.5843  1.2901 -0.3137
16358TIP3   OH270488   6.520   0.682   4.298 -0.2322  0.1947  0.1170
16358TIP3    H170489   6.517   0.591   4.268  1.2407  0.4981 -1.0594
16358TIP3    H270490   6.592   0.684   4.361  1.6588  1.0523 -1.9340
16359TIP3   OH270491   4.306   2.047  15.332  0.0697  0.5157  0.0216
16359TIP3    H170492   4.218   2.082  15.344 -0.2433  0.5632 -1.9456
16359TIP3    H270493   4.348   2.055  15.417 -0.8496  3.2376  0.3037
16360TIP3   OH270494   0.594   2.054  12.082 -0.0318  0.2067  0.3547
16360TIP3    H170495   0.685   2.060  12.110 -0.3958  0.2244  1.6251
16360TIP3    H270496   0.544   2.058  12.164 -1.1592 -0.0730 -0.2987
16361TIP3   OH270497   3.148   5.884  15.920  0.3376 -0.9499  0.4015
16361TIP3    H170498   3.058   5.851  15.929  0.1175 -0.6225 -0.5021
16361TIP3    H270499   3.142   5.951  15.851  1.4749 -1.6667 -0.4187
16362TIP3   OH270500   2.851   1.096  12.888 -0.5649 -0.5574 -0.0202
16362TIP3    H170501   2.895   1.077  12.805  0.1127  0.7892  0.0020
16362TIP3    H270502   2.902   1.049  12.954 -0.1505 -0.3615 -0.1970
16363TIP3   OH270503   1.435   6.301  11.277 -0.4704  0.3245  0.1491
16363TIP3    H170504   1.479   6.336  11.200 -1.0726 -0.2079 -0.4451
16363TIP3    H270505   1.474   6.349  11.350  2.3991 -1.2615 -0.1448
16364TIP3   OH270506   1.886   6.559  11.472 -0.2260 -0.5163 -0.4885
16364TIP3    H170507   1.876   6.591  11.383 -2.6531  2.4355  0.6595
16364TIP3    H270508   1.971   6.593  11.500  0.0527 -0.5085 -1.3175
16365TIP3   OH270509   5.618   3.095   1.605 -0.6313 -0.2736 -0.0584
16365TIP3    H170510   5.580   3.130   1.686  1.1411  0.6005  0.4443
16365TIP3    H270511   5.701   3.141   1.596 -0.7069 -0.4887 -2.3182
16366TIP3   OH270512   4.148   1.541  13.897  0.8017 -0.0261 -0.5441
16366TIP3    H170513   4.175   1.498  13.978 -1.4760 -1.2102 -0.3385
16366TIP3    H270514   4.115   1.627  13.925 -1.2720 -0.9460  0.0648
16367TIP3   OH270515   2.167   1.371  13.154  0.0513  0.1923 -0.0644
16367TIP3    H170516   2.250   1.326  13.135  0.6935  0.5243  1.7651
16367TIP3    H270517   2.185   1.463  13.138 -0.2235  0.1829 -0.4464
16368TIP3   OH270518   1.703   2.005  13.391  0.0389 -0.0237 -0.3807
16368TIP3    H170519   1.753   2.087  13.389  0.3092 -0.1885 -0.5074
16368TIP3    H270520   1.646   2.010  13.314 -0.2203  0.2145 -0.1737
16369TIP3   OH270521   4.991   1.553  14.484  0.4285  0.6219  0.0259
16369TIP3    H170522   4.995   1.503  14.402 -0.6482 -2.3989  1.6388
16369TIP3    H270523   5.083   1.561  14.511  0.6918  0.2934 -0.7492
16370TIP3   OH270524   6.138   0.748   1.527 -1.0070  0.1662  0.2898
16370TIP3    H170525   6.084   0.726   1.452 -1.0926  0.6095  0.2193
16370TIP3    H270526   6.208   0.802   1.492 -0.1171 -0.9685  0.2700
16371TIP3   OH270527   2.489   5.267  12.704  0.2408  0.1467  0.5731
16371TIP3    H170528   2.547   5.200  12.669  1.3364  1.5961 -0.4834
16371TIP3    H270529   2.412   5.264  12.647 -0.0353 -0.6480  0.9630
16372TIP3   OH270530   5.740   6.434  12.104  0.4340  0.1489  0.6399
16372TIP3    H170531   5.762   6.449  12.012  0.0599 -1.5038  0.2515
16372TIP3    H270532   5.748   6.521  12.145  0.6548  0.9028 -0.9257
16373TIP3   OH270533   3.524   1.075   2.689 -0.3964  0.2686 -0.0499
16373TIP3    H170534   3.444   1.053   2.640  0.1634  1.7410 -1.7389
16373TIP3    H270535   3.588   1.009   2.659  0.3056  1.8930 -2.4383
16374TIP3   OH270536   6.321   2.274   5.386 -0.2361  0.5772 -0.3925
16374TIP3    H170537   6.327   2.316   5.472  0.6111 -0.4801  0.0903
16374TIP3    H270538   6.237   2.303   5.350 -0.0400  2.0239  0.2488
16375TIP3   OH270539   4.739   4.773  15.826 -0.3842  0.2182  0.0257
16375TIP3    H170540   4.722   4.847  15.768  0.5456 -0.3038 -0.9326
16375TIP3    H270541   4.663   4.716  15.815  0.1510 -0.2604 -1.3008
16376TIP3   OH270542   0.716   2.808   2.464 -0.0253  0.0583  0.2138
16376TIP3    H170543   0.692   2.838   2.552  0.5068 -0.9836  0.7307
16376TIP3    H270544   0.809   2.826   2.456  0.2359 -1.1498  0.4181
16377TIP3   OH270545   2.651   6.054   3.902  0.4054  0.0465  0.2509
16377TIP3    H170546   2.739   6.072   3.870 -0.0809 -0.0425 -1.2223
16377TIP3    H270547   2.642   5.959   3.894  0.1696  0.0603  0.3584
16378TIP3   OH270548   4.749   0.101   5.482 -0.1937 -0.2811 -0.1844
16378TIP3    H170549   4.822   0.162   5.493 -0.7370  0.4623 -0.6000
16378TIP3    H270550   4.771   0.027   5.538 -0.3262  1.0327  1.6715
16379TIP3   OH270551   1.518   5.038   3.618  0.2528  0.5866  0.2486
16379TIP3    H170552   1.468   4.960   3.597  0.4806  0.2193  1.0335
16379TIP3    H270553   1.577   5.011   3.688 -0.8182  1.8695  1.7190
16380TIP3   OH270554   2.587   4.272   4.205 -0.2407  0.1387  0.2888
16380TIP3    H170555   2.623   4.192   4.165  0.5470 -0.0600  1.3615
16380TIP3    H270556   2.586   4.336   4.134  0.0292 -0.5485 -0.3475
16381TIP3   OH270557   0.044   4.645  12.039 -0.5847 -0.1315 -0.0534
16381TIP3    H170558   0.035   4.549  12.033  0.9376 -0.3561  0.7692
16381TIP3    H270559   0.115   4.658  12.102 -0.8564  1.5567 -0.0718
16382TIP3   OH270560   5.912   5.420  13.223 -0.4009 -0.3011 -0.4323
16382TIP3    H170561   5.927   5.326  13.233  0.5760 -0.0057  1.3050
16382TIP3    H270562   5.837   5.438  13.280  0.3528  0.1757  0.4479
16383TIP3   OH270563   6.348   3.440  14.380 -0.1248  0.0980  0.1025
16383TIP3    H170564   6.263   3.395  14.389 -0.1227 -0.7240 -2.8052
16383TIP3    H270565   6.413   3.369  14.383  0.5150  0.7123  2.1992
16384TIP3   OH270566   2.170   6.059  15.559  0.2139  0.4047 -0.1734
16384TIP3    H170567   2.182   6.154  15.559 -0.1461  0.4566 -0.6090
16384TIP3    H270568   2.222   6.028  15.633 -0.5552  1.0475  0.6615
16385TIP3   OH270569   5.265   5.295   2.859  0.1710 -0.1926  0.4814
16385TIP3    H170570   5.221   5.366   2.811  1.6997  0.9859  0.7674
16385TIP3    H270571   5.358   5.310   2.843  0.5148 -2.4282  0.1841
16386TIP3   OH270572   3.616   2.726  12.038  0.2783  0.3042  0.2416
16386TIP3    H170573   3.563   2.675  11.976  2.1801 -1.3110 -0.1577
16386TIP3    H270574   3.666   2.786  11.983 -0.5065  1.2870  0.5571
16387TIP3   OH270575   5.921   1.781   3.440 -0.1548 -0.2388 -0.2565
16387TIP3    H170576   6.003   1.738   3.416 -1.4852 -1.6993 -2.4601
16387TIP3    H270577   5.932   1.872   3.412  1.2418  0.0015  0.9234
16388TIP3   OH270578   0.399   2.946  12.082  0.3728  0.2785  0.2547
16388TIP3    H170579   0.357   2.983  12.159 -0.2960  0.0336  0.0187
16388TIP3    H270580   0.326   2.919  12.025  0.8513  0.5301 -0.4988
16389TIP3   OH270581   6.731   0.616  11.822 -0.0589 -0.1766  0.0376
16389TIP3    H170582   6.657   0.578  11.867 -1.0125 -0.1352 -1.4224
16389TIP3    H270583   6.757   0.691  11.876  1.0526 -2.0338  2.2812
16390TIP3   OH270584   0.579   5.203   1.650  0.5698 -0.3588 -0.2199
16390TIP3    H170585   0.538   5.183   1.734 -1.2294  0.0043 -0.9734
16390TIP3    H270586   0.643   5.132   1.637  0.9066 -0.3955  1.4428
16391TIP3   OH270587   3.303   6.144   1.759 -0.4193 -0.6099  0.6502
16391TIP3    H170588   3.252   6.224   1.747 -0.6281 -0.4885  2.2171
16391TIP3    H270589   3.345   6.155   1.844  0.6328 -1.5881  0.2735
16392TIP3   OH270590   0.402   1.762  13.407  0.0828  0.0415  0.4040
16392TIP3    H170591   0.365   1.694  13.463  0.6744 -0.1081  0.6128
16392TIP3    H270592   0.327   1.794  13.356 -0.0763 -1.2531 -0.2219
16393TIP3   OH270593   3.749   6.372  12.062  0.3487  0.0754  0.8155
16393TIP3    H170594   3.660   6.341  12.049  0.7226 -1.1571  1.0959
16393TIP3    H270595   3.739   6.464  12.089 -0.8341 -0.1010  1.0219
16394TIP3   OH270596   4.789   1.437   3.203  1.3324 -0.1520 -0.1259
16394TIP3    H170597   4.881   1.412   3.208  0.9222 -1.6287  0.6451
16394TIP3    H270598   4.765   1.425   3.111  2.4567  2.5034 -0.8638
16395TIP3   OH270599   4.826   4.923   3.586 -0.2287  0.1770  0.5340
16395TIP3    H170600   4.827   4.916   3.681 -1.5796  0.4354  0.5844
16395TIP3    H270601   4.801   4.836   3.555  1.4363 -0.2679  0.3321
16396TIP3   OH270602   5.279   3.700  15.148 -0.0447 -0.0740 -0.4092
16396TIP3    H170603   5.190   3.677  15.124 -0.5103  0.7365  0.4792
16396TIP3    H270604   5.271   3.782  15.196  0.9576 -0.9450  1.3363
16397TIP3   OH270605   2.692   0.941  13.124 -0.0100 -0.4736 -0.5803
16397TIP3    H170606   2.727   0.914  13.039  0.9163 -0.4456 -0.2182
16397TIP3    H270607   2.711   1.034  13.130  0.3096 -0.5609 -0.1665
16398TIP3   OH270608   4.464   0.475   2.811  0.2620  0.0691  0.1236
16398TIP3    H170609   4.393   0.538   2.823  0.7882  0.8031 -0.5270
16398TIP3    H270610   4.520   0.487   2.887 -0.1004 -0.2466  0.4472
16399TIP3   OH270611   5.274   2.406   4.277  0.4124  0.3313 -1.0982
16399TIP3    H170612   5.369   2.408   4.275  0.4654 -0.5279 -0.2874
16399TIP3    H270613   5.252   2.393   4.369 -0.4993  0.7967 -1.2357
16400TIP3   OH270614   3.778   3.159   5.224  0.3358 -0.0189  0.1042
16400TIP3    H170615   3.871   3.135   5.224  0.4430  0.3960 -0.3374
16400TIP3    H270616   3.765   3.206   5.142  0.3395  2.2833  1.3592
16401TIP3   OH270617   6.453   6.459  12.277 -0.2008 -0.6475 -0.1428
16401TIP3    H170618   6.532   6.410  12.254  0.6730  1.0968 -1.1394
16401TIP3    H270619   6.450   6.531  12.214 -1.4534  0.5181  1.1504
16402TIP3   OH270620   6.695   1.425   3.560  0.4928  0.0054  0.8699
16402TIP3    H170621   6.716   1.439   3.652 -2.1276  0.4623  1.4811
16402TIP3    H270622   6.669   1.512   3.528  0.8013 -0.2639 -0.1586
16403TIP3   OH270623   1.940   3.198   4.437  0.3227 -0.3673 -0.1324
16403TIP3    H170624   1.866   3.202   4.497  1.2455 -0.7097  1.0693
16403TIP3    H270625   1.981   3.284   4.445  2.4347 -1.4541  2.4340
16404TIP3   OH270626   2.394   0.421   0.485  0.0478 -0.6186  0.3217
16404TIP3    H170627   2.417   0.329   0.497  1.7968 -0.4612 -1.3322
16404TIP3    H270628   2.459   0.469   0.537  0.5407 -0.2841 -0.5810
16405TIP3   OH270629   2.536   3.451   2.743  0.0783 -0.0004 -0.1711
16405TIP3    H170630   2.590   3.471   2.819 -1.0335 -2.2841  1.3330
16405TIP3    H270631   2.551   3.358   2.725  0.7118  0.5514 -3.1576
16406TIP3   OH270632   3.451   1.174   6.133  0.4284 -0.5973 -0.1080
16406TIP3    H170633   3.531   1.217   6.164  0.9050 -2.0437  0.7681
16406TIP3    H270634   3.400   1.157   6.212 -1.1890  1.0914 -0.7421
16407TIP3   OH270635   2.586   0.515   0.667  0.1432  0.0992  0.1848
16407TIP3    H170636   2.550   0.583   0.725  1.6301  1.0825  0.0318
16407TIP3    H270637   2.661   0.481   0.716  0.3330 -0.3313 -0.4111
16408TIP3   OH270638   2.420   3.767  16.010  0.4273 -0.3799 -0.6051
16408TIP3    H170639   2.373   3.686  15.989  0.4609 -0.7406  0.6176
16408TIP3    H270640   2.356   3.836  15.994  1.0072 -0.4148 -3.6119
16409TIP3   OH270641   2.557   0.824  11.326  0.0356  0.2839  0.9799
16409TIP3    H170642   2.543   0.814  11.420 -1.5437 -1.2924  0.6378
16409TIP3    H270643   2.494   0.891  11.299 -1.5152 -1.2492  0.6536
16410TIP3   OH270644   1.325   2.763  13.912 -0.4141 -0.0286  0.3055
16410TIP3    H170645   1.239   2.795  13.938 -1.0401 -2.3711  1.3944
16410TIP3    H270646   1.312   2.727  13.824 -0.2444  0.6353  0.0003
16411TIP3   OH270647   0.526   1.276   3.354  0.8687 -0.1844 -0.3203
16411TIP3    H170648   0.587   1.239   3.290  0.2655  0.3121 -1.1988
16411TIP3    H270649   0.441   1.240   3.329  0.4893  0.6988 -0.3342
16412TIP3   OH270650   4.559   1.523   2.663 -0.0875 -0.0368  0.2976
16412TIP3    H170651   4.548   1.617   2.679  1.1581  0.3326 -0.7766
16412TIP3    H270652   4.592   1.518   2.573  0.4128 -1.4631  0.5332
16413TIP3   OH270653   3.616   6.633  16.452 -0.5336  0.0347  0.1290
16413TIP3    H170654   3.706   6.629  16.484 -0.7452  1.1376  0.9492
16413TIP3    H270655   3.575   6.552  16.483  0.5478 -1.2032 -1.5456
16414TIP3   OH270656   5.176   4.049  14.793 -0.3930  0.3454 -0.2270
16414TIP3    H170657   5.124   3.984  14.746 -1.6749  2.2781 -1.5742
16414TIP3    H270658   5.263   4.009  14.800 -0.7816 -0.9842 -2.1849
16415TIP3   OH270659   0.223   5.171   3.509 -0.7208  0.3156  0.1202
16415TIP3    H170660   0.189   5.254   3.542 -2.2610  0.4466 -1.6319
16415TIP3    H270661   0.249   5.189   3.419 -1.6201 -1.1849 -0.4802
16416TIP3   OH270662   5.028   5.543  13.628  1.0719  0.1133 -0.0723
16416TIP3    H170663   4.963   5.541  13.699  0.9523 -1.3796 -0.1876
16416TIP3    H270664   4.981   5.581  13.554  0.7454  0.3279  0.2427
16417TIP3   OH270665   3.397   5.465   2.939  0.4624 -0.0078  0.1915
16417TIP3    H170666   3.389   5.555   2.972  0.4613 -0.4077  1.3466
16417TIP3    H270667   3.474   5.466   2.883  0.1719  0.8251 -0.2068
16418TIP3   OH270668   5.523   4.527  15.947 -0.1220  0.7707 -0.1735
16418TIP3    H170669   5.548   4.577  16.025  1.1413  0.0647 -0.1117
16418TIP3    H270670   5.489   4.594  15.886  0.1166  1.4957  0.4714
16419TIP3   OH270671   3.261   0.897  15.663 -0.1129 -0.5094 -0.2994
16419TIP3    H170672   3.338   0.887  15.607 -1.0743  0.1544 -1.8183
16419TIP3    H270673   3.292   0.942  15.741  1.1759 -0.9506 -0.5467
16420TIP3   OH270674   2.224   5.252   0.989 -0.4061 -0.0819  0.1474
16420TIP3    H170675   2.141   5.260   0.941 -0.1264 -0.2293 -0.3733
16420TIP3    H270676   2.278   5.323   0.954  1.0175 -2.1927 -2.2896
16421TIP3   OH270677   0.252   0.436  15.169  0.0549  0.0539 -0.4979
16421TIP3    H170678   0.260   0.491  15.247  1.6759  0.4676 -0.9030
16421TIP3    H270679   0.312   0.476  15.105 -0.3713 -0.9312 -1.5577
16422TIP3   OH270680   0.462   2.899   4.360  0.4000  0.1839  0.1891
16422TIP3    H170681   0.542   2.938   4.396  2.2461 -1.3899 -1.9273
16422TIP3    H270682   0.422   2.969   4.309  1.4812  0.5183 -0.2444
16423TIP3   OH270683   5.755   3.007  14.284  0.2898 -0.5638  0.0126
16423TIP3    H170684   5.669   2.980  14.315 -0.0365 -0.2793 -0.6499
16423TIP3    H270685   5.738   3.059  14.206  1.0409 -0.2127  0.0718
16424TIP3   OH270686   0.849   0.779   4.223  0.1473  0.1458 -0.0796
16424TIP3    H170687   0.870   0.806   4.312  0.5005  0.5865 -0.2908
16424TIP3    H270688   0.810   0.857   4.183  0.7424  0.2050 -0.5552
16425TIP3   OH270689   4.733   5.613   0.613 -0.1323  0.0330  0.1027
16425TIP3    H170690   4.653   5.651   0.576  0.2746  0.4734 -0.3414
16425TIP3    H270691   4.750   5.536   0.559  0.1938  0.4046 -0.3354
16426TIP3   OH270692   2.195   6.437   3.530  0.0306  0.7026  0.2062
16426TIP3    H170693   2.226   6.374   3.596 -1.3147 -0.5085 -0.2516
16426TIP3    H270694   2.111   6.468   3.564  0.8243  2.5664  0.5811
16427TIP3   OH270695   1.298   3.317   3.445  0.4700  0.0260 -0.7124
16427TIP3    H170696   1.283   3.223   3.438 -2.1600  0.2407  0.6511
16427TIP3    H270697   1.275   3.352   3.359  1.5780 -0.5502 -1.2617
16428TIP3   OH270698   4.871   2.770   4.266 -0.0112 -0.4411  0.1249
16428TIP3    H170699   4.944   2.723   4.307  1.2032  0.6595 -0.6770
16428TIP3    H270700   4.843   2.833   4.332 -2.9006 -3.2808  1.9681
16429TIP3   OH270701   2.791   6.520  10.541 -0.3339 -0.0714  0.3349
16429TIP3    H170702   2.745   6.600  10.515 -2.2164 -0.5226  2.0120
16429TIP3    H270703   2.883   6.545  10.544 -0.9009  2.1045  1.0080
16430TIP3   OH270704   5.017   4.113  15.980 -0.2952 -0.2172 -0.0009
16430TIP3    H170705   5.071   4.102  16.059  0.9332  0.8335 -0.6631
16430TIP3    H270706   4.946   4.171  16.008 -1.7664 -2.4000  1.1427
16431TIP3   OH270707   5.786   2.800  14.854 -0.2067 -0.3465  0.9697
16431TIP3    H170708   5.757   2.861  14.922 -2.4461 -0.7412  0.4509
16431TIP3    H270709   5.847   2.852  14.801 -1.9693  1.4635  0.5852
16432TIP3   OH270710   1.300   5.259   6.143  0.5018  0.4552  0.1196
16432TIP3    H170711   1.330   5.319   6.211 -0.1329  0.7887  0.1143
16432TIP3    H270712   1.233   5.205   6.186 -1.0890  1.7388 -0.6202
16433TIP3   OH270713   3.013   5.033   2.852  0.2454  0.1913 -0.6076
16433TIP3    H170714   3.068   5.090   2.905  1.1765 -0.3646 -0.9610
16433TIP3    H270715   2.993   5.085   2.773 -0.2889  0.6298 -0.1948
16434TIP3   OH270716   1.018   2.683   3.378 -0.1078 -0.4343 -0.4392
16434TIP3    H170717   1.046   2.711   3.465  1.3115 -1.5484 -0.5014
16434TIP3    H270718   1.064   2.740   3.318  0.1533 -0.6986 -0.4913
16435TIP3   OH270719   0.007   2.076   3.316  0.1365  0.0478 -0.0370
16435TIP3    H170720   0.067   2.147   3.340 -0.2431  0.6159 -0.7391
16435TIP3    H270721   0.017   2.067   3.222 -0.6779 -0.0451 -0.1196
16436TIP3   OH270722   0.383   4.590  15.074 -0.3051 -0.2085 -0.0980
16436TIP3    H170723   0.420   4.630  14.996  1.0477  0.2599  0.7552
16436TIP3    H270724   0.387   4.496  15.057  1.1259 -0.1630 -0.1236
16437TIP3   OH270725   2.829   3.097  14.496 -0.1217  0.4166 -0.3444
16437TIP3    H170726   2.880   3.089  14.416 -0.0724  1.5301 -0.4529
16437TIP3    H270727   2.739   3.078  14.471  0.3513 -2.9156  0.1207
16438TIP3   OH270728   0.846   0.006   0.277 -0.0183 -1.0241 -0.3762
16438TIP3    H170729   0.752   0.002   0.258 -0.3594  0.1388  0.9305
16438TIP3    H270730   0.852   0.019   0.371  1.4278 -0.0516 -0.5622
16439TIP3   OH270731   3.155   6.006   5.147 -0.4654  0.1841  0.4284
16439TIP3    H170732   3.217   6.078   5.157  0.6190 -0.8978  1.8159
16439TIP3    H270733   3.175   5.969   5.061  0.9296 -0.2209  0.8996
16440TIP3   OH270734   4.698   3.355   6.897  0.6753 -0.3513 -0.0819
16440TIP3    H170735   4.653   3.329   6.977  1.1961  0.7896  0.6176
16440TIP3    H270736   4.782   3.309   6.900  0.4807 -0.7125 -0.2307
16441TIP3   OH270737   2.954   1.589   4.371  0.3557  0.7798  0.2333
16441TIP3    H170738   2.985   1.525   4.435  1.1835  1.1267  0.1937
16441TIP3    H270739   3.024   1.654   4.366 -0.7857  2.1048  0.8374
16442TIP3   OH270740   1.854   6.646   7.011 -0.1594  0.3687  0.6140
16442TIP3    H170741   1.801   6.613   6.938  1.4485  3.7408 -2.3533
16442TIP3    H270742   1.797   6.709   7.055 -1.0685 -1.5404  2.3418
16443TIP3   OH270743   4.065   0.250  13.794  0.2127  0.2516  0.2617
16443TIP3    H170744   4.002   0.280  13.860 -2.6444 -2.2016 -1.0914
16443TIP3    H270745   4.028   0.167  13.763  3.1574 -0.3085 -2.1116
16444TIP3   OH270746   0.200   5.867  12.193  0.1606 -0.2492  0.1797
16444TIP3    H170747   0.242   5.901  12.272  1.4591 -2.0837  0.3304
16444TIP3    H270748   0.202   5.940  12.131  0.7698  0.6514  1.2328
16445TIP3   OH270749   3.595   3.470  16.378  0.7795  0.1814  0.2779
16445TIP3    H170750   3.522   3.456  16.318  2.0252  0.8960 -1.5326
16445TIP3    H270751   3.587   3.561  16.405  1.6330  0.6484 -0.9292
16446TIP3   OH270752   5.806   3.507  12.102 -0.1256 -0.0107 -0.5803
16446TIP3    H170753   5.769   3.515  12.190  1.6205  1.6783  0.0772
16446TIP3    H270754   5.851   3.423  12.103  0.0147  0.0616  0.2089
16447TIP3   OH270755   5.390   3.202  13.863  0.2118 -0.1243  0.2231
16447TIP3    H170756   5.389   3.128  13.923  0.9939  0.3914  0.9061
16447TIP3    H270757   5.334   3.268  13.904 -1.4551 -0.7337 -0.9603
16448TIP3   OH270758   2.893   4.753   3.920  0.0857  0.1069 -0.2195
16448TIP3    H170759   2.862   4.779   3.834 -0.3251 -0.1692 -0.1572
16448TIP3    H270760   2.837   4.801   3.981  0.2385  0.1426 -0.1059
16449TIP3   OH270761   5.429   1.596  12.476 -0.2059 -0.7109 -0.0326
16449TIP3    H170762   5.379   1.674  12.453  0.3528  0.1784  1.6323
16449TIP3    H270763   5.382   1.559  12.550 -0.8688 -2.4031 -1.2301
16450TIP3   OH270764   3.278   2.677  17.002 -0.6157  0.4974  0.5271
16450TIP3    H170765   3.372   2.682  16.984 -0.5902  0.7391  0.7268
16450TIP3    H270766   3.259   2.756  17.053 -0.9659  0.5543  0.3096
16451TIP3   OH270767   6.711   4.156  13.779 -0.5702 -0.3331  0.2497
16451TIP3    H170768   6.743   4.089  13.840  0.1643 -0.0334  0.1936
16451TIP3    H270769   6.753   4.136  13.696 -0.4842  0.0980  0.1881
16452TIP3   OH270770   6.547   3.565   5.846  0.5170  0.6916 -0.1048
16452TIP3    H170771   6.612   3.621   5.802 -0.4529  1.9456 -0.0224
16452TIP3    H270772   6.476   3.625   5.867 -0.9505 -0.7691 -0.7591
16453TIP3   OH270773   4.537   0.151   1.876  0.5865 -0.0406 -0.3365
16453TIP3    H170774   4.453   0.152   1.921  0.6877  0.3643 -0.1494
16453TIP3    H270775   4.591   0.091   1.927  0.0525 -1.2616 -1.1465
16454TIP3   OH270776   1.199   2.733   2.854 -0.1553  0.6333  0.3516
16454TIP3    H170777   1.166   2.818   2.825 -0.8466  0.7147  1.3332
16454TIP3    H270778   1.125   2.692   2.899  0.6264  0.1799  1.2708
16455TIP3   OH270779   1.671   6.025   2.754  0.1670  0.8469  0.7523
16455TIP3    H170780   1.624   6.099   2.717 -0.1979 -0.6746 -2.0444
16455TIP3    H270781   1.743   6.008   2.693  0.7629 -0.5669  1.7816
16456TIP3   OH270782   4.302   4.277  12.702 -0.8983 -0.2081  0.2816
16456TIP3    H170783   4.296   4.187  12.733 -0.3437  0.0407  1.1263
16456TIP3    H270784   4.308   4.330  12.781  1.1743  0.3915 -0.2321
16457TIP3   OH270785   4.460   2.155  15.037  0.1120 -0.2262  0.4137
16457TIP3    H170786   4.545   2.180  15.071  1.3856 -1.3161 -1.7245
16457TIP3    H270787   4.404   2.146  15.114  1.7229  1.1779  1.8118
16458TIP3   OH270788   1.655   1.450   1.197 -0.2279  0.6012 -0.3248
16458TIP3    H170789   1.722   1.512   1.228  1.5967 -1.0219 -0.8622
16458TIP3    H270790   1.705   1.376   1.164 -2.3133 -0.3354 -1.5060
16459TIP3   OH270791   4.247   4.507   4.008 -0.3536 -0.2753 -0.2372
16459TIP3    H170792   4.302   4.455   4.067  0.1602 -0.1065 -0.5637
16459TIP3    H270793   4.169   4.453   3.994 -0.7835 -0.0507  1.1060
16460TIP3   OH270794   0.801   3.878   2.941 -0.8118 -0.2109 -0.0449
16460TIP3    H170795   0.835   3.954   2.894  0.5554 -0.9140 -0.2481
16460TIP3    H270796   0.730   3.845   2.885 -0.4866  0.1030 -0.6530
16461TIP3   OH270797   3.159   6.343   1.192  0.1399  0.2337 -0.6990
16461TIP3    H170798   3.153   6.364   1.099  1.3488 -0.7900 -1.0446
16461TIP3    H270799   3.075   6.303   1.214 -0.2352  0.6880 -1.2953
16462TIP3   OH270800   4.442   1.218  14.236  0.0712 -0.1143 -0.9145
16462TIP3    H170801   4.458   1.137  14.186  0.8030  1.2376 -2.9902
16462TIP3    H270802   4.517   1.274  14.217 -0.6259  1.2460  0.1434
16463TIP3   OH270803   3.107   1.653  14.992 -0.1277  0.3040 -0.3278
16463TIP3    H170804   3.154   1.575  14.962 -0.6702  0.4556 -1.6627
16463TIP3    H270805   3.100   1.642  15.086 -0.0909 -1.2117 -0.4717
16464TIP3   OH270806   0.185   2.328  16.752  0.6398 -0.5827 -0.8487
16464TIP3    H170807   0.172   2.233  16.748 -2.7354 -0.2527 -0.5531
16464TIP3    H270808   0.157   2.360  16.666 -2.1302  0.3809  0.3010
16465TIP3   OH270809   0.386   0.454  14.161  0.6457  0.5753  0.1384
16465TIP3    H170810   0.379   0.360  14.174  0.5389  0.1905 -2.1620
16465TIP3    H270811   0.413   0.489  14.246  1.6331 -1.6409  0.8000
16466TIP3   OH270812   4.886   5.351  14.363 -0.7037 -0.8584  0.3179
16466TIP3    H170813   4.973   5.362  14.401 -0.0101  1.9062 -1.7542
16466TIP3    H270814   4.826   5.391  14.426 -0.0525  0.2387  0.2495
16467TIP3   OH270815   3.031   2.843  13.324  0.4201  0.1015  0.1231
16467TIP3    H170816   3.045   2.839  13.419 -1.4056  0.4224  0.4440
16467TIP3    H270817   3.079   2.920  13.296  1.4246 -0.3058  0.6944
16468TIP3   OH270818   6.291   3.306   3.244 -0.7954  0.1046  0.1161
16468TIP3    H170819   6.272   3.393   3.280 -2.1837 -0.6949  1.4750
16468TIP3    H270820   6.206   3.274   3.212 -0.3148 -0.7472 -0.3504
16469TIP3   OH270821   5.018   0.926  16.260  0.0957 -0.9116 -0.1782
16469TIP3    H170822   5.046   0.993  16.197  0.8471 -0.3849  0.6969
16469TIP3    H270823   4.971   0.974  16.327  1.5294 -1.0799  1.0020
16470TIP3   OH270824   1.871   6.437  15.491 -0.3380 -0.1848 -0.1857
16470TIP3    H170825   1.858   6.378  15.417  0.3300 -1.6158  0.7725
16470TIP3    H270826   1.783   6.461  15.519 -0.6056  1.6114 -2.3197
16471TIP3   OH270827   1.521   4.687   1.447  0.0112  0.2557  0.0354
16471TIP3    H170828   1.429   4.707   1.460 -0.0995 -0.0031 -0.3331
16471TIP3    H270829   1.550   4.647   1.529  0.0892  1.3766  0.5737
16472TIP3   OH270830   3.876   3.778   1.110  0.2297  0.0432 -0.4663
16472TIP3    H170831   3.789   3.812   1.128 -0.0063 -0.4367 -0.6786
16472TIP3    H270832   3.932   3.856   1.104  0.3792  0.2533  2.4799
16473TIP3   OH270833   0.658   1.977   0.974  0.2237 -0.5742 -0.2548
16473TIP3    H170834   0.668   1.921   1.051 -0.2266  1.0801  1.0959
16473TIP3    H270835   0.629   2.061   1.010  1.5164  0.7433 -2.1062
16474TIP3   OH270836   4.227   1.556   3.157  0.0399  0.4579 -0.2729
16474TIP3    H170837   4.210   1.553   3.251 -2.1973 -3.2628 -0.5675
16474TIP3    H270838   4.143   1.580   3.118  0.6825  1.0115 -1.3343
16475TIP3   OH270839   5.735   2.899   0.426  0.0333  0.1546  0.0449
16475TIP3    H170840   5.736   2.955   0.348  0.5471 -1.4238 -1.1338
16475TIP3    H270841   5.646   2.909   0.461  0.0201  1.4488 -0.3014
16476TIP3   OH270842   3.845   2.362   5.847 -0.6036  0.5333  0.1294
16476TIP3    H170843   3.825   2.336   5.757 -1.0460  1.7733 -0.1442
16476TIP3    H270844   3.857   2.456   5.843  1.5801  0.3536  0.9911
16477TIP3   OH270845   3.815   2.867  14.433  0.0814  0.2702 -0.1101
16477TIP3    H170846   3.776   2.820  14.359 -1.9482  2.3976 -0.4897
16477TIP3    H270847   3.833   2.955  14.400  1.4998  0.5500  1.2535
16478TIP3   OH270848   2.608   2.842  12.081  0.4239  0.4058  0.6647
16478TIP3    H170849   2.531   2.791  12.106  0.4716 -0.1750 -0.3294
16478TIP3    H270850   2.662   2.844  12.160 -0.6598  0.9304  1.4169
16479TIP3   OH270851   5.087   5.866   5.057  0.7474 -0.0673  0.2509
16479TIP3    H170852   5.147   5.793   5.071 -0.3874 -1.2791 -0.9392
16479TIP3    H270853   5.138   5.943   5.083  2.7533 -1.0437 -0.5086
16480TIP3   OH270854   2.610   2.239   5.249 -0.1348 -0.4569  0.0466
16480TIP3    H170855   2.683   2.181   5.227  0.4123 -1.0068  2.9488
16480TIP3    H270856   2.532   2.193   5.218  0.6098 -0.2053 -2.4366
16481TIP3   OH270857   5.808   2.209   2.984  0.8945 -0.3389 -0.7129
16481TIP3    H170858   5.859   2.140   2.942  0.8807 -1.8412  1.5333
16481TIP3    H270859   5.736   2.162   3.028  1.2601  0.9725  1.4394
16482TIP3   OH270860   2.879   5.080  13.675 -0.1011 -0.2037 -0.4623
16482TIP3    H170861   2.934   5.091  13.753  0.4525 -0.1041 -0.8667
16482TIP3    H270862   2.914   5.003  13.631 -0.8767 -0.6998 -0.2369
16483TIP3   OH270863   3.712   2.652   2.513  0.4589 -0.1238 -0.4445
16483TIP3    H170864   3.793   2.682   2.554  1.2536 -2.2055 -0.3239
16483TIP3    H270865   3.645   2.667   2.579  1.0815 -0.0521  0.1898
16484TIP3   OH270866   0.219   3.301  12.186  0.3425  0.8008  0.1084
16484TIP3    H170867   0.147   3.264  12.135  0.6135  1.1668 -0.5484
16484TIP3    H270868   0.257   3.226  12.232  0.3951  0.3863 -0.6018
16485TIP3   OH270869   1.780   2.631   0.346 -0.1420  1.1158  0.4087
16485TIP3    H170870   1.723   2.561   0.315 -0.0229  1.6772 -1.1852
16485TIP3    H270871   1.748   2.651   0.433 -0.8899 -0.1581  0.4523
16486TIP3   OH270872   1.333   4.933  16.201 -0.3840  0.5199 -0.1552
16486TIP3    H170873   1.256   4.956  16.252 -0.3017  0.0174  0.1997
16486TIP3    H270874   1.366   4.853  16.242  0.1417  0.5577 -0.4985
16487TIP3   OH270875   3.526   2.690  14.040  0.4482  0.3791 -0.2618
16487TIP3    H170876   3.521   2.772  13.992  0.8635 -0.0951 -1.1394
16487TIP3    H270877   3.441   2.648  14.025  1.0370 -0.3630 -1.7122
16488TIP3   OH270878   0.562   3.203  15.296 -0.6981 -0.2157  0.4439
16488TIP3    H170879   0.485   3.147  15.301  0.0903 -1.2180  1.8193
16488TIP3    H270880   0.570   3.240  15.384  0.5792 -0.3895  0.4081
16489TIP3   OH270881   2.400   0.926   0.420  0.1010 -0.0518 -0.6098
16489TIP3    H170882   2.382   0.909   0.327 -0.5264 -0.4286 -0.4299
16489TIP3    H270883   2.432   1.016   0.422 -0.6059  0.2222 -1.1117
16490TIP3   OH270884   3.230   4.185  16.517 -0.2511  0.0861  0.1781
16490TIP3    H170885   3.271   4.146  16.439 -0.7569 -0.8040  0.3446
16490TIP3    H270886   3.150   4.225  16.485 -0.5182 -0.3828  0.2589
16491TIP3   OH270887   5.971   1.651   2.112 -0.0439  0.4690 -0.2965
16491TIP3    H170888   5.914   1.574   2.104  0.4218  0.0520  0.3514
16491TIP3    H270889   6.036   1.639   2.043 -0.4847  0.7356 -0.7676
16492TIP3   OH270890   0.162   0.480   2.028  0.0434  0.0352  0.4342
16492TIP3    H170891   0.199   0.568   2.015 -0.4139  0.2667  0.6597
16492TIP3    H270892   0.109   0.465   1.949 -0.6213  0.3513  0.8108
16493TIP3   OH270893   3.543   6.572  15.520 -0.0180  0.1842 -0.1687
16493TIP3    H170894   3.638   6.578  15.532  0.0245  0.5578 -0.6281
16493TIP3    H270895   3.507   6.628  15.590  0.0174 -1.2539  1.0431
16494TIP3   OH270896   5.034   1.139  14.978  0.0025  0.2765  0.1640
16494TIP3    H170897   5.098   1.161  15.046 -0.3118 -1.2312  0.9833
16494TIP3    H270898   5.086   1.130  14.899  0.8942 -1.2301  0.8759
16495TIP3   OH270899   5.320   3.033   4.077 -0.0483 -0.2824  0.7243
16495TIP3    H170900   5.292   3.122   4.057  0.5464 -0.4124 -0.8623
16495TIP3    H270901   5.265   2.977   4.022  0.5786 -0.7817  0.5819
16496TIP3   OH270902   3.863   3.700   3.594  0.4032  0.0760 -0.5260
16496TIP3    H170903   3.855   3.654   3.677  1.3764 -0.0945 -0.5106
16496TIP3    H270904   3.955   3.726   3.590 -0.1713  2.2865 -0.4048
16497TIP3   OH270905   0.660   5.387   2.333  0.2376  0.6887 -0.2233
16497TIP3    H170906   0.734   5.436   2.297  0.5314  0.5055  0.1153
16497TIP3    H270907   0.584   5.421   2.287  0.4094  1.5890  0.1356
16498TIP3   OH270908   3.926   5.847  15.050 -0.0912 -0.0033 -0.0568
16498TIP3    H170909   3.946   5.828  15.142 -3.3492 -0.4779  0.6797
16498TIP3    H270910   3.987   5.794  15.000  1.2810 -0.2974  1.8397
16499TIP3   OH270911   3.525   4.221  17.017 -0.1611  0.1337  0.4608
16499TIP3    H170912   3.443   4.247  16.975  0.5848 -1.2310 -2.0510
16499TIP3    H270913   3.577   4.301  17.018 -0.5563  0.4259 -0.4255
16500TIP3   OH270914   0.010   4.339   4.331 -0.3142  0.1015  0.2109
16500TIP3    H170915   0.003   4.357   4.238  2.9553  0.5874 -0.0509
16500TIP3    H270916   0.048   4.251   4.336  0.6652  0.5502  1.0290
16501TIP3   OH270917   0.772   3.170  11.655 -0.1697  0.6773 -0.0795
16501TIP3    H170918   0.728   3.160  11.571  2.2214  1.5325 -1.5514
16501TIP3    H270919   0.704   3.199  11.715 -1.6356  1.8147 -2.1572
16502TIP3   OH270920   2.760   1.934   4.845  0.3429  0.1603 -0.1380
16502TIP3    H170921   2.694   1.903   4.907 -0.8347  1.3055 -0.7921
16502TIP3    H270922   2.837   1.879   4.863  0.5293  1.2810  3.2376
16503TIP3   OH270923   5.539   5.033  11.460 -0.4995 -0.2095 -0.2918
16503TIP3    H170924   5.529   5.117  11.505  0.3710  0.0065 -0.4922
16503TIP3    H270925   5.470   5.033  11.394 -1.4509 -0.2961  0.6673
16504TIP3   OH270926   0.326   2.616   5.397 -0.2854 -0.1032  0.4043
16504TIP3    H170927   0.399   2.590   5.341 -0.5205  2.1031 -1.0536
16504TIP3    H270928   0.299   2.535   5.441  0.5962 -1.7400 -1.8750
16505TIP3   OH270929   3.514   2.821   1.348 -0.5436 -0.1691  0.3620
16505TIP3    H170930   3.604   2.841   1.376 -1.0546  0.2516  1.7911
16505TIP3    H270931   3.503   2.870   1.266  0.5506 -0.3131  0.1084
16506TIP3   OH270932   0.085   6.364  13.816  0.0827  0.1430 -0.4736
16506TIP3    H170933   0.138   6.443  13.806  1.4388 -0.5571  0.8010
16506TIP3    H270934   0.122   6.303  13.752 -0.6295  0.3481 -1.0960
16507TIP3   OH270935   2.724   5.145  17.121  0.6013 -0.3651 -0.1135
16507TIP3    H170936   2.651   5.144  17.059 -0.8595  1.7500  1.4543
16507TIP3    H270937   2.775   5.222  17.096  0.8094 -0.3235  0.4392
16508TIP3   OH270938   2.084   0.712  14.817 -0.2845  0.4638 -0.0554
16508TIP3    H170939   2.088   0.622  14.783  1.7640  1.1758 -2.0003
16508TIP3    H270940   2.147   0.713  14.889  0.4127  0.5459 -0.6559
16509TIP3   OH270941   3.665   0.955   4.637  0.2131  0.6106 -0.1599
16509TIP3    H170942   3.572   0.975   4.642  0.1474  0.3753 -0.4012
16509TIP3    H270943   3.709   1.039   4.645 -0.0516  0.8326 -0.9573
16510TIP3   OH270944   1.165   1.587   5.824 -0.2603 -0.2100 -0.0982
16510TIP3    H170945   1.100   1.582   5.895 -1.7344 -0.6417 -1.4262
16510TIP3    H270946   1.125   1.539   5.752  1.2475  0.1536 -1.2127
16511TIP3   OH270947   4.898   3.834   3.194  0.6249 -0.6215  0.0794
16511TIP3    H170948   4.915   3.927   3.206  1.6178 -1.1205  3.4534
16511TIP3    H270949   4.805   3.829   3.174  0.2622  1.0103  1.1726
16512TIP3   OH270950   1.945   6.412   5.236  0.5151 -0.1316 -0.0871
16512TIP3    H170951   1.870   6.465   5.261 -0.6919 -1.3007 -1.1262
16512TIP3    H270952   1.969   6.443   5.149  1.2940  0.2737  0.2592
16513TIP3   OH270953   3.565   3.142  15.072  0.3020 -0.0611  0.1061
16513TIP3    H170954   3.490   3.199  15.088  0.4644  0.3635 -0.5970
16513TIP3    H270955   3.639   3.186  15.114  0.2782 -0.1501  0.2403
16514TIP3   OH270956   6.718   0.782  13.689 -0.1155 -0.3696  0.2972
16514TIP3    H170957   6.642   0.780  13.632  0.7784 -1.0650 -0.9167
16514TIP3    H270958   6.682   0.797  13.777 -1.5122  0.6705 -0.4256
16515TIP3   OH270959   4.229   3.345  15.722 -0.3599  0.1183 -0.2718
16515TIP3    H170960   4.242   3.383  15.635 -1.0853  1.8492  0.3112
16515TIP3    H270961   4.220   3.251  15.707  1.1049  0.1847 -1.8716
16516TIP3   OH270962   5.110   2.779   4.130 -0.5246 -0.9404 -1.0873
16516TIP3    H170963   5.019   2.768   4.155 -0.6655  3.0088  0.9511
16516TIP3    H270964   5.159   2.772   4.212  0.8015 -1.1310 -1.8514
16517TIP3   OH270965   3.929   4.174  14.836  0.1845 -0.1157 -0.2962
16517TIP3    H170966   3.932   4.081  14.857  0.4102 -0.0611 -0.0871
16517TIP3    H270967   3.916   4.218  14.920 -0.0489  0.0359 -0.4089
16518TIP3   OH270968   1.285   0.124   2.056 -0.7217 -0.2605 -0.5396
16518TIP3    H170969   1.233   0.195   2.019  1.1968  0.9393 -1.0886
16518TIP3    H270970   1.376   0.153   2.045  0.0487 -1.0328  2.7897
16519TIP3   OH270971   2.983   1.616   4.001  0.9439  0.0747 -0.1909
16519TIP3    H170972   2.927   1.570   3.938  1.4759 -2.8751  1.2671
16519TIP3    H270973   2.974   1.708   3.979 -3.1198 -0.3627 -1.1153
16520TIP3   OH270974   3.815   6.496  16.904  0.1481  0.1499 -0.3264
16520TIP3    H170975   3.796   6.436  16.976  0.4009  0.7820  0.2699
16520TIP3    H270976   3.789   6.582  16.936  1.0937  0.5714 -0.6471
16521TIP3   OH270977   4.571   5.079  13.353  0.2781 -0.4499  0.5046
16521TIP3    H170978   4.568   4.988  13.382  0.9339 -0.3470  0.9310
16521TIP3    H270979   4.664   5.099  13.346  0.1453  0.2117  0.5018
16522TIP3   OH270980   6.368   5.008  12.297  0.2277 -0.2737  0.3716
16522TIP3    H170981   6.397   4.926  12.258 -0.8461 -1.3872  1.8276
16522TIP3    H270982   6.330   5.057  12.224 -0.8595 -1.8747 -0.1948
16523TIP3   OH270983   4.565   3.801   3.931 -1.2997  0.2110 -0.2991
16523TIP3    H170984   4.495   3.795   3.995 -1.1079  0.8299 -0.0159
16523TIP3    H270985   4.627   3.733   3.956 -1.6249 -0.1012 -0.3370
16524TIP3   OH270986   6.322   2.071  14.230 -0.2887  0.0650  0.3434
16524TIP3    H170987   6.261   2.145  14.235 -0.3822  0.0466 -0.4715
16524TIP3    H270988   6.313   2.038  14.141  1.0056  0.1471  0.1583
16525TIP3   OH270989   5.334   0.797   0.260  0.3429  0.1537 -0.0804
16525TIP3    H170990   5.319   0.846   0.341 -0.1296 -1.5824  0.9186
16525TIP3    H270991   5.411   0.744   0.278  1.3899  1.1098 -1.4652
16526TIP3   OH270992   1.754   3.688  13.734 -0.1488  0.4798 -0.5957
16526TIP3    H170993   1.741   3.778  13.764 -1.1543 -0.1025  0.8197
16526TIP3    H270994   1.668   3.661  13.700 -0.4299 -0.5676  0.8394
16527TIP3   OH270995   6.708   0.138  14.388 -0.2570  0.2064 -0.3710
16527TIP3    H170996   6.751   0.224  14.384 -0.5240  0.5713  2.5390
16527TIP3    H270997   6.775   0.079  14.423 -0.3750 -0.5989 -1.4449
16528TIP3   OH270998   2.213   1.498  15.509 -0.0710 -0.6161 -0.0096
16528TIP3    H170999   2.265   1.543  15.575 -1.8896 -0.4622  1.3894
16528TIP3    H271000   2.255   1.520  15.426  0.9571  1.0202  0.9009
16529TIP3   OH271001   5.644   4.307  17.066  0.3066  0.9508 -0.3279
16529TIP3    H171002   5.732   4.334  17.093 -0.0395  1.1848  0.5994
16529TIP3    H271003   5.655   4.276  16.976  1.4877  0.1546  0.0744
16530TIP3   OH271004   2.654   5.314   3.959 -0.4290  0.0789 -0.5559
16530TIP3    H171005   2.622   5.402   3.939  0.5438 -0.0648 -3.1425
16530TIP3    H271006   2.581   5.271   4.003 -1.6838  1.5413 -1.1107
16531TIP3   OH271007   3.471   6.256  14.596  0.6139 -0.2002 -0.7734
16531TIP3    H171008   3.516   6.264  14.680 -3.3691  1.4556  1.4588
16531TIP3    H271009   3.493   6.336  14.549  0.0566  0.6117  0.2977
16532TIP3   OH271010   4.965   0.405  17.089  0.1179  0.4266 -0.2134
16532TIP3    H171011   4.903   0.363  17.148  0.5767  1.1694  0.8306
16532TIP3    H271012   5.033   0.339  17.075  2.8708  1.8340  4.4833
16533TIP3   OH271013   4.619   4.405   5.434 -0.7414 -0.0949  0.3249
16533TIP3    H171014   4.645   4.485   5.390 -0.4665  0.2215  1.0598
16533TIP3    H271015   4.570   4.356   5.368 -1.3089  0.8822  0.0117
16534TIP3   OH271016   2.450   0.309  12.820 -0.0891  0.6254  1.0017
16534TIP3    H171017   2.408   0.241  12.874 -0.7139  0.3432  0.1735
16534TIP3    H271018   2.538   0.275  12.804 -0.5677 -0.2489  0.1581
16535TIP3   OH271019   0.533   2.095  12.438 -0.8034 -0.4499 -0.3259
16535TIP3    H171020   0.494   2.171  12.481 -1.5447 -0.1579 -1.4595
16535TIP3    H271021   0.618   2.084  12.480 -0.8205  0.8205  0.0678
16536TIP3   OH271022   2.117   3.925  10.571  0.4337  0.1234 -0.7201
16536TIP3    H171023   2.024   3.915  10.553 -0.1833 -0.9633  2.5505
16536TIP3    H271024   2.130   4.020  10.577 -0.5688  0.2689 -0.6938
16537TIP3   OH271025   0.241   2.842  15.709  0.6670  0.1340  0.0330
16537TIP3    H171026   0.320   2.790  15.695  0.7235  0.4440 -0.8643
16537TIP3    H271027   0.180   2.782  15.752  2.3910  0.7267  3.7233
16538TIP3   OH271028   5.058   3.012   4.399  0.0459  0.4529 -0.4688
16538TIP3    H171029   5.100   2.995   4.483 -0.9220 -1.6942 -0.3491
16538TIP3    H271030   5.106   2.956   4.337 -1.3688 -0.6032 -0.6600
16539TIP3   OH271031   4.351   2.900   2.412 -0.1033  0.4833  0.7283
16539TIP3    H171032   4.428   2.871   2.364 -1.4985  0.1761 -1.4803
16539TIP3    H271033   4.381   2.909   2.503  2.1448 -0.9455  0.2061
16540TIP3   OH271034   0.411   2.048   5.010 -0.4416 -0.3971 -0.0753
16540TIP3    H171035   0.406   2.120   4.949  1.6332  0.3934  0.5868
16540TIP3    H271036   0.468   1.984   4.967 -0.3817 -0.6026  0.3031
16541TIP3   OH271037   3.318   5.916   1.588 -0.4917 -0.4446  0.0592
16541TIP3    H171038   3.304   5.940   1.496 -0.8272  2.4393  0.7549
16541TIP3    H271039   3.281   5.989   1.637  1.4315 -0.9678  2.4585
16542TIP3   OH271040   1.810   3.401  12.120 -0.4137 -0.0069 -0.5575
16542TIP3    H171041   1.886   3.409  12.177 -1.3929  0.3302  0.7659
16542TIP3    H271042   1.772   3.489  12.119 -1.8231 -0.5653  0.3709
16543TIP3   OH271043   2.908   4.435   1.994  0.1251  0.1934  0.1847
16543TIP3    H171044   2.885   4.511   2.047 -1.9279  0.0956 -0.4735
16543TIP3    H271045   2.972   4.386   2.047 -0.3685  1.1133  1.6620
16544TIP3   OH271046   3.700   1.650  14.222 -0.1866 -0.0647 -0.4962
16544TIP3    H171047   3.662   1.566  14.250  1.0661 -0.9441 -1.3458
16544TIP3    H271048   3.664   1.664  14.134 -0.1994  0.1705 -0.4534
16545TIP3   OH271049   4.538   4.153  14.091 -0.6312 -0.3200  0.5075
16545TIP3    H171050   4.532   4.058  14.084  0.3986 -0.2961 -1.2031
16545TIP3    H271051   4.626   4.169  14.125 -0.2757  0.0415 -0.5497
16546TIP3   OH271052   0.568   0.407   1.021 -0.0326 -0.4718  0.5000
16546TIP3    H171053   0.573   0.502   1.034  1.7328 -0.0397 -2.2705
16546TIP3    H271054   0.475   0.388   1.018 -0.4333  1.3200  0.3887
16547TIP3   OH271055   0.034   4.750   2.576  0.1355  0.3039 -0.1706
16547TIP3    H171056   0.007   4.756   2.485  2.0573  2.2507 -0.7026
16547TIP3    H271057   0.130   4.745   2.572  0.1935 -2.6747  1.6877
16548TIP3   OH271058   0.724   5.382  14.525 -0.7315  0.3275  0.3863
16548TIP3    H171059   0.782   5.312  14.556 -0.9439  0.0878  0.2539
16548TIP3    H271060   0.636   5.349  14.544 -0.8479  0.3904 -0.0244
16549TIP3   OH271061   1.857   2.300   1.148  0.1723  0.6642 -0.7029
16549TIP3    H171062   1.786   2.278   1.210 -0.6223 -1.8238 -2.3354
16549TIP3    H271063   1.819   2.368   1.092  0.3059  1.7264  0.4485
16550TIP3   OH271064   3.060   4.994   2.086  0.5267  0.6597 -0.2203
16550TIP3    H171065   3.066   5.087   2.065 -1.2552  0.6260 -1.0167
16550TIP3    H271066   3.071   4.990   2.181 -1.2643  1.9025  0.0884
16551TIP3   OH271067   0.033   2.267   5.700 -0.2028 -0.1011 -0.7685
16551TIP3    H171068   0.115   2.274   5.749  0.2967 -2.3993 -1.1525
16551TIP3    H271069  -0.028   2.225   5.761 -0.3679 -0.5523 -1.2366
16552TIP3   OH271070   6.590   2.124   6.525  0.1023 -0.0941  0.1784
16552TIP3    H171071   6.524   2.112   6.594 -0.3504  2.3177  0.2561
16552TIP3    H271072   6.545   2.101   6.444  0.0866 -1.2515  0.5061
16553TIP3   OH271073   2.894   1.125  15.306 -0.1685  0.1531 -0.0826
16553TIP3    H171074   2.846   1.156  15.382 -1.5440  0.0182 -0.8689
16553TIP3    H271075   2.964   1.070  15.342  0.7772  2.0766  1.1919
16554TIP3   OH271076   4.757   0.405  15.184 -0.0813  0.6646 -0.2655
16554TIP3    H171077   4.832   0.407  15.243 -1.2547  1.3005  1.2648
16554TIP3    H271078   4.788   0.355  15.108  2.1678  1.7173 -0.1095
16555TIP3   OH271079   4.826   6.205   4.990 -0.2646  1.0315 -0.1138
16555TIP3    H171080   4.888   6.149   4.945  0.0346  1.4119 -0.1809
16555TIP3    H271081   4.775   6.246   4.919 -2.1857 -1.0225 -0.0345
16556TIP3   OH271082   3.152   4.050  12.841 -0.1626  0.2054 -0.1317
16556TIP3    H171083   3.161   3.958  12.867  1.2379 -0.0032 -1.2183
16556TIP3    H271084   3.084   4.049  12.774  0.8273 -0.3151 -1.1814
16557TIP3   OH271085   0.190   1.052   5.643  0.2574 -0.7962  0.0398
16557TIP3    H171086   0.140   1.027   5.720  0.2921 -0.5936  0.1285
16557TIP3    H271087   0.264   0.990   5.642  0.5560 -0.4495  0.4786
16558TIP3   OH271088   4.892   4.673  13.633  0.1143 -0.1411 -0.6234
16558TIP3    H171089   4.799   4.696  13.625 -0.0089 -1.0910 -2.6888
16558TIP3    H271090   4.905   4.604  13.568  2.2045 -0.2813 -0.1273
16559TIP3   OH271091   0.314   1.995  14.034  0.6295  0.2761 -0.3472
16559TIP3    H171092   0.302   2.087  14.013  2.1469  0.5523 -0.1129
16559TIP3    H271093   0.315   1.951  13.949 -0.9361  0.3257 -0.4278
16560TIP3   OH271094   2.681   6.279  13.817  0.1041  0.2443  0.0606
16560TIP3    H171095   2.655   6.362  13.779  0.9683  0.3648 -0.3046
16560TIP3    H271096   2.599   6.232  13.833 -0.3566  0.9372 -0.2537
16561TIP3   OH271097   0.661   4.421   3.912 -0.3461 -0.0938 -0.0081
16561TIP3    H171098   0.697   4.411   4.001  0.5951  2.3077 -0.0368
16561TIP3    H271099   0.706   4.355   3.860 -0.6434 -1.2937  1.2074
16562TIP3   OH271100   6.384   0.204  13.884  0.5496  0.3506  0.8829
16562TIP3    H171101   6.331   0.283  13.899 -0.5020 -0.2154  0.2948
16562TIP3    H271102   6.350   0.168  13.801  1.6357 -0.2238  0.6708
16563TIP3   OH271103   3.880   0.674  10.992  0.1221 -0.2804 -0.2789
16563TIP3    H171104   3.862   0.588  10.952  0.7190 -1.0935  1.1312
16563TIP3    H271105   3.882   0.657  11.086  1.1225  1.1230 -0.0113
16564TIP3   OH271106   0.789   3.350   5.226  0.3796 -0.9777 -0.6955
16564TIP3    H171107   0.743   3.339   5.142  0.5202 -0.7670 -0.8005
16564TIP3    H271108   0.842   3.429   5.214 -0.2076 -0.4886 -0.1340
16565TIP3   OH271109   6.316   3.948   3.274  0.0607 -0.3338 -0.2823
16565TIP3    H171110   6.341   3.996   3.196  0.6605 -0.6215 -0.2767
16565TIP3    H271111   6.220   3.948   3.273 -0.0086 -2.5147 -2.4030
16566TIP3   OH271112   6.061   5.324  16.531 -0.2799  0.8720  0.2057
16566TIP3    H171113   5.998   5.380  16.487 -3.6486 -1.7341  1.2149
16566TIP3    H271114   6.055   5.348  16.623 -0.1474  0.3121  0.3675
16567TIP3   OH271115   2.265   3.943  15.146  0.2411  0.7197 -0.1133
16567TIP3    H171116   2.237   3.860  15.186 -0.0070  0.2531 -1.1914
16567TIP3    H271117   2.360   3.943  15.156  0.4594 -0.6047 -1.6702
16568TIP3   OH271118   1.751   5.749   4.649  0.7476  0.6275 -0.4075
16568TIP3    H171119   1.717   5.821   4.595 -0.9190  0.4611  0.3655
16568TIP3    H271120   1.674   5.716   4.696  1.8311 -0.4205  0.6894
16569TIP3   OH271121   5.045   6.139  14.801 -0.0018  0.2402  1.3880
16569TIP3    H171122   5.100   6.162  14.876  1.1541  0.4583  0.5106
16569TIP3    H271123   5.104   6.146  14.725 -1.4958  1.4345  0.2798
16570TIP3   OH271124   4.362   6.695   5.472  0.2108 -0.6431  0.6271
16570TIP3    H171125   4.328   6.688   5.382 -0.6388 -1.2115  0.9788
16570TIP3    H271126   4.295   6.653   5.526  1.4461 -1.7457  1.3618
16571TIP3   OH271127   6.667   5.870  14.409  0.3894 -0.0286 -0.0028
16571TIP3    H171128   6.703   5.954  14.378 -0.5487  0.8539  1.2279
16571TIP3    H271129   6.711   5.855  14.493  1.1334 -1.1897 -0.5769
16572TIP3   OH271130   0.454   3.104  17.013 -0.5015 -0.8379  0.2626
16572TIP3    H171131   0.457   3.197  16.993 -0.5513 -0.7723  0.5565
16572TIP3    H271132   0.370   3.074  16.978  0.4642 -1.2595 -1.8900
16573TIP3   OH271133   6.050   3.283   3.095  0.2003  0.5637 -0.4505
16573TIP3    H171134   6.056   3.339   3.017 -4.1524  0.0365 -1.4207
16573TIP3    H271135   6.031   3.196   3.059 -0.0739 -0.0716  1.1812
16574TIP3   OH271136   2.124   5.595  12.633 -0.1269  0.3977 -0.2742
16574TIP3    H171137   2.057   5.562  12.573  0.4028 -1.3974  0.0680
16574TIP3    H271138   2.206   5.556  12.602  0.3584  0.5069  0.8246
16575TIP3   OH271139   3.808   2.886   4.147 -0.6134  0.3443 -0.2590
16575TIP3    H171140   3.773   2.943   4.078 -2.1682  0.7121  0.7742
16575TIP3    H271141   3.815   2.943   4.224  0.7961 -0.1387 -0.0070
16576TIP3   OH271142   0.218   0.211  11.381  0.3006 -0.5933  0.1668
16576TIP3    H171143   0.174   0.179  11.303  0.1902 -0.4031  0.1508
16576TIP3    H271144   0.311   0.207  11.359  0.2544 -0.1921 -0.1090
16577TIP3   OH271145   0.413   5.846   1.923 -0.0619 -0.1895 -0.2697
16577TIP3    H171146   0.462   5.834   1.841 -0.5903  2.1539 -0.9883
16577TIP3    H271147   0.481   5.846   1.991  0.8084  1.4283 -1.0844
16578TIP3   OH271148   4.526   2.777  11.751 -0.5933 -0.7780  0.0263
16578TIP3    H171149   4.510   2.704  11.810 -0.1334  1.2959  2.9056
16578TIP3    H271150   4.490   2.854  11.796  0.2554  1.0335 -2.1593
16579TIP3   OH271151   5.966   3.243   4.905  0.6045  0.1273 -0.2072
16579TIP3    H171152   6.047   3.293   4.916  0.8150  0.1471 -1.6361
16579TIP3    H271153   5.953   3.199   4.989  0.9561  1.7740  0.7465
16580TIP3   OH271154   1.230   3.465   0.282  0.4820 -0.2451 -0.0323
16580TIP3    H171155   1.300   3.441   0.342 -0.4415  0.9691  1.6285
16580TIP3    H271156   1.269   3.530   0.223  0.2956  2.1334  2.2858
16581TIP3   OH271157   4.463   0.309  15.021 -0.4477 -0.0015  0.2040
16581TIP3    H171158   4.500   0.254  15.089  0.4205  0.6956  0.3054
16581TIP3    H271159   4.408   0.249  14.969  2.8208 -1.7460 -1.5696
16582TIP3   OH271160   3.823   5.057  14.620  0.1527  0.0216 -0.2755
16582TIP3    H171161   3.916   5.071  14.635  0.0264 -1.0788  2.0302
16582TIP3    H271162   3.808   4.965  14.645 -1.7071  0.4932  0.5547
16583TIP3   OH271163   0.124   3.916  12.897 -0.1797  0.3613 -0.3137
16583TIP3    H171164   0.106   4.005  12.868  0.0546 -0.2761 -2.6270
16583TIP3    H271165   0.054   3.864  12.859 -0.9406 -0.3736  1.8926
16584TIP3   OH271166   1.222   5.410   1.428 -0.2540 -0.2916  0.6425
16584TIP3    H171167   1.173   5.352   1.370  1.7615  0.8512 -2.4205
16584TIP3    H271168   1.155   5.469   1.464 -1.4852 -0.0035 -1.8748
16585TIP3   OH271169   3.630   5.904  11.506  0.1942  0.3988 -0.5582
16585TIP3    H171170   3.681   5.934  11.431 -1.8010  1.5423 -1.5224
16585TIP3    H271171   3.545   5.948  11.498 -1.4634 -2.3717  0.2708
16586TIP3   OH271172   0.327   3.121  11.202 -0.1248 -0.0764 -0.9880
16586TIP3    H171173   0.312   3.168  11.120  0.7028  1.1418 -0.4570
16586TIP3    H271174   0.287   3.035  11.187 -0.1468  0.1789 -2.5979
16587TIP3   OH271175   3.718   0.794  10.792  0.0745  0.0221 -0.2431
16587TIP3    H171176   3.788   0.768  10.853  1.0788  0.3809 -1.2040
16587TIP3    H271177   3.708   0.718  10.734 -1.3396 -0.5758  0.7396
16588TIP3   OH271178   3.807   0.277  14.175  0.5097 -0.3738 -0.0659
16588TIP3    H171179   3.749   0.200  14.175  1.5082 -1.1458 -0.0046
16588TIP3    H271180   3.890   0.244  14.209  0.8276  0.8460  0.3788
16589TIP3   OH271181   4.333   1.797   5.267 -0.2566  0.2933 -0.0699
16589TIP3    H171182   4.369   1.795   5.355  0.4151 -0.7166 -0.3466
16589TIP3    H271183   4.239   1.781   5.279 -0.5350  2.1776  0.5926
16590TIP3   OH271184   3.510   2.468   6.142 -0.7511  0.4187 -0.3442
16590TIP3    H171185   3.431   2.442   6.188  1.3624 -1.2974  2.6988
16590TIP3    H271186   3.543   2.542   6.193  1.5602 -1.4125  1.0339
16591TIP3   OH271187   5.281   0.857  17.247  0.4038  0.0385  0.0674
16591TIP3    H171188   5.295   0.901  17.331 -0.0513  0.2524  0.0325
16591TIP3    H271189   5.317   0.769  17.260 -1.6540 -0.7046  1.2159
16592TIP3   OH271190   5.849   0.099   1.853  0.5076  0.0253 -0.1934
16592TIP3    H171191   5.941   0.083   1.834  0.4118  0.2448 -0.8837
16592TIP3    H271192   5.847   0.120   1.946  0.8746 -1.9829  0.3101
16593TIP3   OH271193   1.504   4.902   4.639  0.0728 -0.7076 -0.3553
16593TIP3    H171194   1.583   4.859   4.606 -0.0256 -2.1058  1.0738
16593TIP3    H271195   1.432   4.859   4.593  0.0902 -0.1008 -0.9601
16594TIP3   OH271196   2.416   6.693  15.260 -0.1665 -0.7816 -0.2262
16594TIP3    H171197   2.501   6.720  15.295 -0.3210 -2.6792  1.8781
16594TIP3    H271198   2.353   6.748  15.306 -0.1428  0.3860 -1.5325
16595TIP3   OH271199   5.896   2.840  12.253 -0.1917 -0.3185  0.1300
16595TIP3    H171200   5.816   2.798  12.285  0.7027 -1.0608  1.5012
16595TIP3    H271201   5.881   2.934  12.266 -0.2942 -0.5356  1.7403
16596TIP3   OH271202   2.481   0.713  15.596 -0.0543 -0.1850  0.3604
16596TIP3    H171203   2.530   0.745  15.672 -0.6844  2.3036 -0.1646
16596TIP3    H271204   2.394   0.692  15.630  0.2010 -0.8136  0.6278
16597TIP3   OH271205   4.852   4.262   1.510 -0.5242 -0.3294 -0.1466
16597TIP3    H171206   4.845   4.166   1.507 -0.7830 -0.2890 -1.0453
16597TIP3    H271207   4.881   4.287   1.422  0.6359  0.3420  0.4091
16598TIP3   OH271208   6.186   5.884   3.013  0.0333 -1.1489  0.0207
16598TIP3    H171209   6.108   5.832   2.994  0.4229 -2.7063  2.2505
16598TIP3    H271210   6.152   5.965   3.051 -0.5270 -1.2086 -0.3440
16599TIP3   OH271211   4.105   6.477  11.311 -0.0601  0.3468  0.3420
16599TIP3    H171212   4.091   6.559  11.359 -2.5247  0.0041  0.3658
16599TIP3    H271213   4.032   6.474  11.248  0.2350 -1.6042  0.0305
16600TIP3   OH271214   3.268   1.804  15.368  0.2790 -0.0886  0.2880
16600TIP3    H171215   3.253   1.877  15.309  2.2973 -0.0409 -0.2546
16600TIP3    H271216   3.261   1.842  15.456  0.7798  0.6657  0.0117
16601TIP3   OH271217   3.936   4.026   3.454  0.2859 -0.4340  0.7411
16601TIP3    H171218   3.891   4.038   3.371  2.3685 -3.4936 -1.0559
16601TIP3    H271219   3.867   4.004   3.516 -1.1113 -0.9162 -0.9166
16602TIP3   OH271220   4.093   3.775  11.671  0.3360  0.6117 -0.3319
16602TIP3    H171221   4.135   3.846  11.720  0.8131  0.2214 -0.1732
16602TIP3    H271222   4.162   3.742  11.613  0.3487 -0.2377  0.1516
16603TIP3   OH271223   6.250   4.979  11.689 -0.1062  0.2855 -0.4463
16603TIP3    H171224   6.343   4.956  11.683 -0.2564 -0.4451 -0.1547
16603TIP3    H271225   6.206   4.914  11.634 -0.5446 -0.1604  0.3965
16604TIP3   OH271226   5.715   6.108   2.476 -0.0446 -0.5669  0.7309
16604TIP3    H171227   5.646   6.041   2.475 -0.5249 -0.0838 -0.2777
16604TIP3    H271228   5.670   6.188   2.449  0.2750  0.4299  2.9167
16605TIP3   OH271229   3.391   5.299   6.240  0.4307 -0.2646  0.1587
16605TIP3    H171230   3.485   5.284   6.234  0.9137  1.6864  1.8135
16605TIP3    H271231   3.376   5.380   6.192 -0.7854 -1.5276 -1.7378
16606TIP3   OH271232   4.453   1.380   4.385 -0.5259 -0.0926 -0.2170
16606TIP3    H171233   4.378   1.348   4.435 -0.8354 -1.9942 -1.8183
16606TIP3    H271234   4.440   1.347   4.297  1.2337  1.1743 -1.0203
16607TIP3   OH271235   1.120   1.523   4.049  0.4035 -0.6035  0.1888
16607TIP3    H171236   1.039   1.574   4.041 -0.1211 -1.3269  0.8001
16607TIP3    H271237   1.094   1.443   4.095  1.0901 -1.7220 -1.2762
16608TIP3   OH271238   6.640   6.312   0.797 -0.0296  0.5366  0.0605
16608TIP3    H171239   6.679   6.379   0.854  0.4556  1.1411 -0.9583
16608TIP3    H271240   6.577   6.361   0.744 -0.2570  0.0368 -0.1279
16609TIP3   OH271241   1.080   4.457  16.953  0.4848 -0.4603  0.0938
16609TIP3    H171242   1.070   4.471  16.858 -1.1774  0.4121  0.3493
16609TIP3    H271243   1.006   4.400  16.977 -0.0587  0.6024  1.0792
16610TIP3   OH271244   2.698   5.440   3.260 -0.9183 -0.0644  0.2068
16610TIP3    H171245   2.616   5.411   3.220  0.0018 -2.9481  0.1609
16610TIP3    H271246   2.683   5.429   3.354 -1.2632  1.5158  0.3636
16611TIP3   OH271247   6.731   0.931  12.506 -0.2299  0.3975 -0.1724
16611TIP3    H171248   6.801   0.870  12.531  1.1384  2.5315  1.5853
16611TIP3    H271249   6.654   0.875  12.495  0.2799 -1.5273  3.9184
16612TIP3   OH271250   5.320   0.505  14.912  0.6081 -0.7287  0.3734
16612TIP3    H171251   5.281   0.593  14.916  1.4212 -0.3781  0.6477
16612TIP3    H271252   5.394   0.509  14.972  1.1578 -1.3513 -0.2558
16613TIP3   OH271253   1.920   3.639  12.770 -0.5066 -0.6220  0.3710
16613TIP3    H171254   1.843   3.694  12.787  0.1377  0.5567 -0.3844
16613TIP3    H271255   1.887   3.569  12.714 -0.5889  1.3336 -2.1871
16614TIP3   OH271256   5.708   5.190  12.447 -0.0528  0.0572  0.2687
16614TIP3    H171257   5.777   5.128  12.427  0.3864 -0.1140  2.1268
16614TIP3    H271258   5.656   5.195  12.367  1.0768 -1.1439 -0.5798
16615TIP3   OH271259   3.063   0.371  15.864 -0.0644 -0.7739 -0.3054
16615TIP3    H171260   3.054   0.466  15.854  0.7997 -0.8394 -2.1090
16615TIP3    H271261   3.041   0.355  15.956 -0.1936  1.1682  0.0563
16616TIP3   OH271262   1.887   2.152   6.285  0.0225 -0.2359  0.4757
16616TIP3    H171263   1.873   2.128   6.194  0.0374 -0.1475  0.4506
16616TIP3    H271264   1.829   2.093   6.334 -1.3205  0.8916  0.3034
16617TIP3   OH271265   0.629   5.159  14.817 -0.4248  0.4072  0.3542
16617TIP3    H171266   0.576   5.196  14.747  0.0823  0.0958 -0.2074
16617TIP3    H271267   0.627   5.224  14.887 -0.8431  0.7696 -0.0000
16618TIP3   OH271268   4.535   1.770  12.587 -0.4137  0.1587  0.4338
16618TIP3    H171269   4.448   1.796  12.556 -0.6845  0.0422  1.0680
16618TIP3    H271270   4.565   1.845  12.638 -1.1497 -0.6580  2.1733
16619TIP3   OH271271   1.518   6.475   4.861  0.4710  0.0237  0.4133
16619TIP3    H171272   1.497   6.514   4.776  0.2554  0.2259  0.5583
16619TIP3    H271273   1.588   6.413   4.842 -1.2333 -1.7986 -0.3783
16620TIP3   OH271274   1.570   4.042   3.776  0.5972  0.4400  0.1710
16620TIP3    H171275   1.599   3.982   3.708 -0.4264 -1.8493  1.6173
16620TIP3    H271276   1.578   3.991   3.857 -1.1262  1.9663  1.3782
16621TIP3   OH271277   1.681   2.265   2.001  0.1725  0.9154  0.1628
16621TIP3    H171278   1.737   2.205   1.952 -0.4767 -0.3332  0.9161
16621TIP3    H271279   1.629   2.309   1.934 -0.6498 -0.7030 -0.3064
16622TIP3   OH271280   5.275   0.271   1.921  0.2834 -0.0937 -0.2962
16622TIP3    H171281   5.232   0.207   1.978  0.7841 -0.5075 -0.3757
16622TIP3    H271282   5.366   0.270   1.950  0.2373  0.7924 -0.1143
16623TIP3   OH271283   1.497   2.718   3.740  0.2573 -0.6214  0.0238
16623TIP3    H171284   1.428   2.656   3.714  0.3276 -1.3103  1.4094
16623TIP3    H271285   1.455   2.773   3.806  0.9754 -0.9214  0.7362
16624TIP3   OH271286   5.452   3.562   4.911 -0.7521 -0.5075  0.1341
16624TIP3    H171287   5.528   3.616   4.890 -0.6305 -0.9396 -0.5855
16624TIP3    H271288   5.488   3.475   4.929 -1.0119 -0.5347  0.5446
16625TIP3   OH271289   2.197   0.444   3.369  0.2562 -0.4566  0.6722
16625TIP3    H171290   2.156   0.399   3.295  0.7122  1.5834 -0.8944
16625TIP3    H271291   2.136   0.429   3.441 -2.6892  1.3140 -1.2318
16626TIP3   OH271292   2.783   6.306  11.673 -0.4208  0.4561  0.0014
16626TIP3    H171293   2.861   6.265  11.637 -0.6122  1.0140 -1.1039
16626TIP3    H271294   2.734   6.234  11.713 -0.3428 -0.2513 -1.1337
16627TIP3   OH271295   6.149   0.356   5.173  0.2176  0.4149 -0.1895
16627TIP3    H171296   6.097   0.408   5.234  0.5618  0.4741  0.0529
16627TIP3    H271297   6.176   0.418   5.105  0.5163  0.5241  0.0291
16628TIP3   OH271298   3.291   4.255   1.985  0.3086 -0.3051 -0.5109
16628TIP3    H171299   3.219   4.313   2.011  0.4478  0.7316 -2.2778
16628TIP3    H271300   3.249   4.169   1.973 -0.4694  0.0810 -0.6273
16629TIP3   OH271301   4.635   4.439  14.532 -0.1933  0.1506  0.3472
16629TIP3    H171302   4.727   4.441  14.507 -0.5445 -0.6713 -1.0779
16629TIP3    H271303   4.637   4.448  14.628  1.3164  0.8105  0.2850
16630TIP3   OH271304   6.618   1.309   4.330 -0.1614  0.0775 -0.0849
16630TIP3    H171305   6.574   1.276   4.408  0.5002 -2.0866 -0.5594
16630TIP3    H271306   6.596   1.402   4.327 -0.5997  0.1054  2.3880
16631TIP3   OH271307   3.088   4.997  14.420 -0.1609 -0.2502 -0.7273
16631TIP3    H171308   3.028   4.930  14.453 -0.1738  0.5739  1.0583
16631TIP3    H271309   3.132   5.030  14.499  1.9948 -0.1933 -1.8840
16632TIP3   OH271310   4.157   2.652   1.885 -0.4567 -0.1507 -0.1679
16632TIP3    H171311   4.109   2.569   1.884 -1.3968  0.3662  0.8475
16632TIP3    H271312   4.148   2.686   1.796 -0.9963 -0.6105 -0.2931
16633TIP3   OH271313   3.672   3.899   3.539 -0.1966 -0.6119  0.0990
16633TIP3    H171314   3.655   3.944   3.622 -0.4244 -0.1402 -0.1952
16633TIP3    H271315   3.735   3.831   3.561  2.1564  1.4492  0.1439
16634TIP3   OH271316   1.273   6.346  11.656  0.7256 -0.4265 -0.0998
16634TIP3    H171317   1.237   6.325  11.569 -0.4175 -2.7903  0.8588
16634TIP3    H271318   1.268   6.442  11.661  0.2322 -0.2622 -2.3667
16635TIP3   OH271319   1.811   3.882  16.711  0.2263  0.0613  0.3364
16635TIP3    H171320   1.867   3.960  16.713  1.0267 -0.5047  1.0473
16635TIP3    H271321   1.753   3.892  16.786  1.7246 -0.9766  1.7098
16636TIP3   OH271322   3.517   5.437   3.341  0.1417 -0.1818  0.1609
16636TIP3    H171323   3.600   5.473   3.308  0.3903 -0.1701  0.7807
16636TIP3    H271324   3.476   5.510   3.387  0.3379 -0.5109  0.8567
16637TIP3   OH271325   3.349   3.571   4.453 -0.4905  0.2072  0.1337
16637TIP3    H171326   3.285   3.557   4.383  0.2325 -0.3298 -0.4272
16637TIP3    H271327   3.319   3.515   4.525 -0.1276 -0.7761 -0.4726
16638TIP3   OH271328   6.056   6.528   5.394  0.0759  0.2483 -0.1297
16638TIP3    H171329   6.008   6.511   5.313 -0.3921 -0.8805  0.3677
16638TIP3    H271330   6.104   6.610   5.377 -1.2436  0.8724 -0.9815
16639TIP3   OH271331   0.086   4.942  15.370  0.3874 -0.2408 -0.1934
16639TIP3    H171332   0.029   4.969  15.297 -0.2664 -0.9693  0.0311
16639TIP3    H271333   0.133   4.866  15.337 -0.3507 -0.9368  0.3376
16640TIP3   OH271334   6.122   6.166  13.071 -0.1667  0.2493 -0.4817
16640TIP3    H171335   6.052   6.140  13.131  1.5422 -0.0893  1.4720
16640TIP3    H271336   6.165   6.239  13.115  0.3475  0.8767 -1.9536
16641TIP3   OH271337   4.438   6.525  13.280 -0.5299  0.0603 -0.6262
16641TIP3    H171338   4.413   6.471  13.355  1.4632  0.0015  0.0538
16641TIP3    H271339   4.384   6.492  13.208  0.3860 -2.6503 -0.1746
16642TIP3   OH271340   4.344   6.707  14.434  0.3915 -0.7995 -0.2890
16642TIP3    H171341   4.410   6.772  14.410 -1.5423  0.7821 -1.6525
16642TIP3    H271342   4.286   6.703  14.359 -1.3566 -1.7543  1.0413
16643TIP3   OH271343   1.743   1.411  14.464  0.7753 -0.0710  0.0617
16643TIP3    H171344   1.765   1.504  14.471 -2.1117  0.6273  1.3031
16643TIP3    H271345   1.729   1.383  14.555 -2.9290 -0.3830 -0.4532
16644TIP3   OH271346   0.247   1.923  16.337  0.1823 -0.4531  0.2857
16644TIP3    H171347   0.186   1.929  16.411 -0.3394 -1.6855 -0.0257
16644TIP3    H271348   0.213   1.985  16.273  0.9699  1.0727  1.2829
16645TIP3   OH271349   0.342   4.523   1.533 -0.4434  0.6790  0.3393
16645TIP3    H171350   0.328   4.569   1.615 -0.0476  1.7819 -0.1942
16645TIP3    H271351   0.260   4.475   1.518 -0.6341  0.7194  1.2069
16646TIP3   OH271352   3.252   1.807  13.466 -0.0339  0.0501  0.0954
16646TIP3    H171353   3.284   1.717  13.474  0.4682  0.0907 -1.1924
16646TIP3    H271354   3.331   1.860  13.458 -0.3203  0.6520  1.0513
16647TIP3   OH271355   3.758   3.234  12.748  0.1800  0.8658 -0.0130
16647TIP3    H171356   3.740   3.302  12.813 -0.9233  1.9698 -1.3929
16647TIP3    H271357   3.671   3.208  12.716  0.6821  0.1698 -0.8474
16648TIP3   OH271358   0.732   1.537  15.519 -0.0800  0.1038 -0.4610
16648TIP3    H171359   0.639   1.512  15.521  0.2885 -1.3756 -0.4492
16648TIP3    H271360   0.779   1.456  15.540  1.1515  1.3098  1.8546
16649TIP3   OH271361   3.223   4.079   5.801 -0.0197  0.0270  0.0389
16649TIP3    H171362   3.229   4.168   5.837 -1.6409 -0.1390  0.8283
16649TIP3    H271363   3.190   4.091   5.712 -3.5534  0.1737  1.2016
16650TIP3   OH271364   4.020   0.093  13.106  0.1641 -0.1487  0.0773
16650TIP3    H171365   4.038   0.012  13.154 -0.8820  0.1296  0.9715
16650TIP3    H271366   3.941   0.075  13.056 -0.2299  0.3988  0.4904
16651TIP3   OH271367   1.541   1.391  12.381  0.5601  0.5797 -0.2123
16651TIP3    H171368   1.454   1.416  12.410  0.1191 -0.0497 -0.9446
16651TIP3    H271369   1.530   1.366  12.289  0.9624 -2.1158  0.3859
16652TIP3   OH271370   1.079   2.284  16.659  0.1160 -0.2965  0.1582
16652TIP3    H171371   1.041   2.265  16.744  0.7212  1.1812  0.7845
16652TIP3    H271372   1.068   2.378  16.647 -3.2497 -0.8354 -3.0437
16653TIP3   OH271373   2.550   4.776   0.277  0.1138  0.0875  0.4122
16653TIP3    H171374   2.511   4.806   0.195  0.5606  2.3511  0.9647
16653TIP3    H271375   2.478   4.733   0.324 -0.7490  0.8561 -0.1793
16654TIP3   OH271376   1.513   2.804   2.521  0.4174 -0.5527 -0.0170
16654TIP3    H171377   1.592   2.858   2.525  1.2704 -1.7668  0.0484
16654TIP3    H271378   1.530   2.743   2.449 -0.2607 -1.1334  0.3081
16655TIP3   OH271379   2.364   0.255   3.512 -0.1276 -0.0645 -0.0113
16655TIP3    H171380   2.286   0.306   3.493  1.0782  2.6382  1.6311
16655TIP3    H271381   2.332   0.177   3.556 -2.0509 -0.8150 -2.5074
16656TIP3   OH271382   0.483   0.507  14.427  0.9799 -0.2206 -0.4875
16656TIP3    H171383   0.521   0.582  14.473  1.5890 -0.3943 -0.6890
16656TIP3    H271384   0.393   0.502  14.458  1.9541 -1.7409  2.4858
16657TIP3   OH271385   2.535   0.027   3.809 -0.2016 -0.9134 -0.5118
16657TIP3    H171386   2.480  -0.037   3.854 -1.4647 -0.2369 -1.0591
16657TIP3    H271387   2.590   0.064   3.878 -2.8567  0.9288  0.8057
16658TIP3   OH271388   1.471   3.520  16.047 -0.3987  0.0185 -0.8691
16658TIP3    H171389   1.469   3.573  16.127  1.0348 -0.5350 -0.4199
16658TIP3    H271390   1.379   3.503  16.027 -0.7992 -0.1171  0.8729
16659TIP3   OH271391   3.453   3.449   3.120 -0.6308 -0.2467 -0.5958
16659TIP3    H171392   3.408   3.410   3.045 -0.2813  1.8883 -1.9849
16659TIP3    H271393   3.402   3.527   3.141 -0.2208 -0.3457  0.8584
16660TIP3   OH271394   5.876   4.151  14.091  0.1500  0.0578  0.4420
16660TIP3    H171395   5.805   4.170  14.030 -0.3170  0.9625  1.2383
16660TIP3    H271396   5.917   4.071  14.056  1.0562  1.5051 -2.0583
16661TIP3   OH271397   6.071   3.021  13.739  0.2286  0.2588  0.0437
16661TIP3    H171398   6.147   3.008  13.682 -0.2654 -0.3119 -0.5127
16661TIP3    H271399   5.996   3.009  13.681 -0.2887  1.2214  0.4988
16662TIP3   OH271400   4.161   6.426  13.313  0.0428  0.2352  0.3629
16662TIP3    H171401   4.126   6.357  13.257  0.3797  0.3383  0.0244
16662TIP3    H271402   4.084   6.472  13.347 -0.1560  0.2942 -0.1673
16663TIP3   OH271403   6.194   0.840  16.375  0.7059 -0.0307 -0.1715
16663TIP3    H171404   6.143   0.869  16.451 -1.3641  1.1471 -1.8944
16663TIP3    H271405   6.265   0.903  16.368  1.9846 -1.1525  1.7249
16664TIP3   OH271406   2.206   3.886   1.275  0.2414  0.1980  0.2498
16664TIP3    H171407   2.263   3.915   1.346 -0.4063  1.1815  0.3901
16664TIP3    H271408   2.255   3.908   1.195  0.5017  0.0779  0.3743
16665TIP3   OH271409   2.792   4.100   6.134 -0.4904 -0.3605  0.1959
16665TIP3    H171410   2.777   4.025   6.191 -1.0397 -1.5524 -1.4555
16665TIP3    H271411   2.885   4.094   6.110  0.1338  0.9643  2.0055
16666TIP3   OH271412   5.334   6.142  14.942 -0.3909  0.5607  0.4380
16666TIP3    H171413   5.314   6.232  14.915 -0.0823  0.1869 -1.1395
16666TIP3    H271414   5.263   6.119  15.002 -1.9360  1.0054 -1.1273
16667TIP3   OH271415   5.761   0.555   2.722  0.1619 -0.1060 -0.2408
16667TIP3    H171416   5.682   0.558   2.776 -1.1258 -0.7667 -1.9948
16667TIP3    H271417   5.777   0.462   2.709  0.5506  0.0411 -0.8436
16668TIP3   OH271418   0.282   1.613  11.254 -0.2789 -0.2714  0.3174
16668TIP3    H171419   0.292   1.595  11.161 -1.6077 -3.2148  0.6610
16668TIP3    H271420   0.285   1.528  11.296 -1.9258  0.7553  2.7612
16669TIP3   OH271421   6.761   2.325   6.465 -0.1700 -0.2562  0.3040
16669TIP3    H171422   6.708   2.247   6.487 -0.8707 -0.0367 -0.5553
16669TIP3    H271423   6.700   2.398   6.476  0.4928  0.1955  1.1267
16670TIP3   OH271424   0.642   5.799   2.656  0.2773  0.3922  0.2642
16670TIP3    H171425   0.720   5.744   2.644  0.7041  0.4966  2.1457
16670TIP3    H271426   0.668   5.861   2.724 -1.1075  1.1541  0.1272
16671TIP3   OH271427   3.132   5.325  14.015  1.0879  0.1937  0.3557
16671TIP3    H171428   3.215   5.367  14.038  0.7805  2.0795 -1.6379
16671TIP3    H271429   3.073   5.350  14.086  1.2422  2.2507 -0.1579
16672TIP3   OH271430   3.606   6.235  16.927  0.1139 -0.1256  0.3565
16672TIP3    H171431   3.606   6.316  16.875 -1.1551  1.3142  2.4237
16672TIP3    H271432   3.514   6.216  16.942  0.3691 -2.3933 -0.6292
16673TIP3   OH271433   1.024   3.902   5.742 -0.4456 -0.1935 -0.3622
16673TIP3    H171434   1.085   3.976   5.740 -0.9191  0.1751 -1.3819
16673TIP3    H271435   1.071   3.831   5.698 -1.2078  0.4675 -2.3259
16674TIP3   OH271436   4.392   6.189  15.814  0.1584  0.3890  0.1431
16674TIP3    H171437   4.340   6.257  15.856 -0.6726  0.2940 -0.7012
16674TIP3    H271438   4.400   6.217  15.723  1.0904  0.1007  0.1197
16675TIP3   OH271439   6.059   1.312  11.565 -0.0096 -0.0581  0.3148
16675TIP3    H171440   6.018   1.290  11.482 -1.6623  1.3752  0.6850
16675TIP3    H271441   6.133   1.369  11.542  0.3319 -0.7203 -0.2359
16676TIP3   OH271442   1.984   6.470   4.968  0.2981  0.2223  0.0315
16676TIP3    H171443   2.016   6.392   4.923 -0.4877 -0.6063  0.8683
16676TIP3    H271444   1.991   6.540   4.903 -0.4513 -0.8568 -1.2499
16677TIP3   OH271445   6.351   4.904   5.126  0.7479 -0.3732  0.6721
16677TIP3    H171446   6.422   4.846   5.098  0.4363 -0.7898  0.7305
16677TIP3    H271447   6.356   4.978   5.066  1.8456  0.0705  1.2884
16678TIP3   OH271448   6.344   3.664   0.738  0.8423 -0.2518 -0.5844
16678TIP3    H171449   6.273   3.683   0.800  2.2905 -1.0301  1.4122
16678TIP3    H271450   6.384   3.749   0.720 -0.2243  0.1225 -1.3234
16679TIP3   OH271451   6.546   6.394   3.403 -0.9238 -0.1757  0.1286
16679TIP3    H171452   6.637   6.366   3.398 -0.7377  0.0337  1.8821
16679TIP3    H271453   6.499   6.318   3.437 -1.4532 -0.3425 -0.9338
16680TIP3   OH271454   2.618   2.572   0.162 -0.3169 -0.6799 -0.5556
16680TIP3    H171455   2.551   2.617   0.110 -0.9816 -1.6120 -0.5201
16680TIP3    H271456   2.571   2.536   0.237  0.1911 -1.4599 -0.5964
16681TIP3   OH271457   5.923   0.207   3.922  0.2220 -0.3299 -0.0376
16681TIP3    H171458   5.852   0.161   3.967 -0.0192 -0.6565 -0.7425
16681TIP3    H271459   5.924   0.170   3.834  0.7605  0.2255 -0.2732
16682TIP3   OH271460   5.150   1.528   4.788  0.1685 -0.3064  0.0396
16682TIP3    H171461   5.085   1.478   4.738  0.1005 -1.2316  1.0092
16682TIP3    H271462   5.099   1.587   4.843  0.2578  2.5656 -2.6633
16683TIP3   OH271463   6.260   5.661  16.549 -0.1468  0.0010  0.3447
16683TIP3    H171464   6.289   5.585  16.599 -0.9601  0.0494  0.9198
16683TIP3    H271465   6.164   5.656  16.552 -0.2773 -0.6695 -2.2449
16684TIP3   OH271466   1.055   0.578  14.435 -0.4553  0.1410 -0.3632
16684TIP3    H171467   0.972   0.579  14.388  0.1667 -0.6797 -1.5362
16684TIP3    H271468   1.112   0.634  14.383 -0.3301  0.8978  0.5698
16685TIP3   OH271469   6.439   5.495  11.548  0.3312  0.4197 -0.3972
16685TIP3    H171470   6.449   5.568  11.609  1.0710  0.1343 -0.1690
16685TIP3    H271471   6.347   5.470  11.556  0.0483  1.3838 -0.5516
16686TIP3   OH271472   6.470   3.067  12.663  0.2326  0.6092 -0.6348
16686TIP3    H171473   6.420   3.001  12.614 -1.7427  0.6655  1.1663
16686TIP3    H271474   6.404   3.132  12.688  0.8162 -0.0490  3.1197
16687TIP3   OH271475   3.599   0.622  12.862  0.1855  0.0337 -0.1333
16687TIP3    H171476   3.550   0.681  12.919  0.8658  1.5929 -1.0920
16687TIP3    H271477   3.558   0.537  12.875 -1.5859  0.9220  0.4597
16688TIP3   OH271478   2.374   0.151  15.934 -0.5571  0.7924 -0.3180
16688TIP3    H171479   2.455   0.177  15.890 -0.9916  2.6126 -0.1492
16688TIP3    H271480   2.305   0.175  15.872 -1.0708  1.5200  0.5166
16689TIP3   OH271481   3.905   3.446  17.189  0.8241 -0.2613 -0.6045
16689TIP3    H171482   3.819   3.411  17.166 -0.8760  2.2364  1.4737
16689TIP3    H271483   3.931   3.499  17.114 -1.4490  2.2695  0.2612
16690TIP3   OH271484   4.602   1.504   5.492 -0.3757 -0.2808 -0.4342
16690TIP3    H171485   4.683   1.499   5.542  0.1085 -0.5759 -1.2296
16690TIP3    H271486   4.579   1.413   5.473 -1.9934 -0.3331  1.4717
16691TIP3   OH271487   4.126   4.610  14.909 -0.5153  0.1149 -0.7268
16691TIP3    H171488   4.125   4.585  15.002  0.8033  0.2554 -0.6484
16691TIP3    H271489   4.133   4.705  14.910  0.5517  0.0565 -0.9352
16692TIP3   OH271490   1.697   2.078  11.672  0.2642 -0.4254 -0.0461
16692TIP3    H171491   1.710   2.108  11.762 -1.0283 -2.0870  0.7642
16692TIP3    H271492   1.785   2.075  11.635  0.6064  2.7656  0.2468
16693TIP3   OH271493   6.488   0.665  12.967 -0.4320 -0.2609 -0.5200
16693TIP3    H171494   6.426   0.618  13.023 -0.3864  0.6776  0.3437
16693TIP3    H271495   6.574   0.648  13.006 -0.2392 -0.7284 -1.1229
16694TIP3   OH271496   0.391   1.357  11.374  0.1177  0.1647  0.4378
16694TIP3    H171497   0.374   1.267  11.403  0.6510 -0.3734 -0.8374
16694TIP3    H271498   0.487   1.363  11.370  0.0686  0.4400 -0.4901
16695TIP3   OH271499   3.794   2.844  13.301  0.1626 -0.1007  0.1278
16695TIP3    H171500   3.710   2.842  13.256 -0.0636 -1.7726  0.5957
16695TIP3    H271501   3.856   2.869  13.232 -0.3539 -1.4635 -0.8857
16696TIP3   OH271502   1.241   4.305   3.549  0.2023  0.0340 -0.1689
16696TIP3    H171503   1.261   4.386   3.597 -0.7083  0.6412 -0.7922
16696TIP3    H271504   1.184   4.332   3.478  2.8379 -0.5699 -2.6892
16697TIP3   OH271505   5.279   4.622   2.221 -0.3634 -0.0149  0.1671
16697TIP3    H171506   5.217   4.671   2.274 -1.2095  0.3988 -1.1524
16697TIP3    H271507   5.250   4.531   2.227  0.0462 -0.0996  1.0505
16698TIP3   OH271508   0.688   2.214   0.790 -0.3397 -0.2825  0.1204
16698TIP3    H171509   0.751   2.185   0.724 -0.3375 -0.2781  0.1205
16698TIP3    H271510   0.739   2.268   0.851 -0.3815 -0.1292  0.0188
16699TIP3   OH271511   6.273   5.022   4.500 -0.2084  0.0977 -0.2195
16699TIP3    H171512   6.306   4.944   4.456 -0.5155  0.1834 -0.6085
16699TIP3    H271513   6.224   5.069   4.433 -1.2231 -0.0880  0.3598
16700TIP3   OH271514   2.278   0.262   0.119  0.0368  1.1164  0.0823
16700TIP3    H171515   2.334   0.245   0.194 -1.3006 -0.1059  0.8594
16700TIP3    H271516   2.293   0.354   0.097 -0.3104  1.8156  2.5472
16701TIP3   OH271517   5.826   5.577   1.094  0.0150  0.2183 -0.0550
16701TIP3    H171518   5.833   5.629   1.174 -0.8816 -0.6320  0.5857
16701TIP3    H271519   5.911   5.533   1.086  0.9208  1.9683 -0.7841
16702TIP3   OH271520   1.261   0.069   0.833  0.2382  0.1892  0.0774
16702TIP3    H171521   1.245   0.065   0.927  0.1474 -1.8797  0.0075
16702TIP3    H271522   1.186   0.117   0.798 -1.0271 -1.1839  0.8073
16703TIP3   OH271523   5.063   1.483  15.694 -0.3151 -0.0747 -0.3472
16703TIP3    H171524   5.099   1.460  15.779  2.3205  2.2937 -0.6601
16703TIP3    H271525   4.986   1.536  15.714 -0.9135 -1.2313  0.4812
16704TIP3   OH271526   0.818   4.067  17.138  0.0053  0.0426  0.0433
16704TIP3    H171527   0.774   3.992  17.177  0.2402  0.4989  1.2531
16704TIP3    H271528   0.790   4.141  17.193  0.3020  0.7304 -0.7147
16705TIP3   OH271529   5.098   2.774   0.309  0.2716  0.3220 -0.1264
16705TIP3    H171530   5.137   2.859   0.288  0.3612 -0.0127 -1.3549
16705TIP3    H271531   5.027   2.764   0.247  1.3609 -1.2770 -1.2024
16706TIP3   OH271532   0.566   0.169   2.311  0.5744  0.0146  0.0645
16706TIP3    H171533   0.623   0.107   2.264 -0.1341 -1.3701  0.9491
16706TIP3    H271534   0.627   0.231   2.351  1.2875  0.1603 -1.1837
16707TIP3   OH271535   4.722   3.349   4.944 -0.1484 -0.1211 -0.8128
16707TIP3    H171536   4.767   3.368   5.026 -1.1062  2.1173 -0.7119
16707TIP3    H271537   4.630   3.348   4.967 -0.3847 -0.1899 -1.7414
16708TIP3   OH271538   1.266   0.346  13.378 -0.3820 -0.5069 -0.6255
16708TIP3    H171539   1.293   0.326  13.288  1.5903  1.4293 -0.5681
16708TIP3    H271540   1.343   0.326  13.431 -0.6103  0.8032  0.2514
16709TIP3   OH271541   3.692   6.339  12.543  0.0739  0.1377  0.0769
16709TIP3    H171542   3.738   6.263  12.580 -0.1642  0.1306  0.3596
16709TIP3    H271543   3.648   6.379  12.618 -0.1907  0.2789 -0.1540
16710TIP3   OH271544   6.597   2.361  17.188  0.7479  0.1558 -0.1068
16710TIP3    H171545   6.616   2.405  17.271 -0.6422  0.4559  0.0757
16710TIP3    H271546   6.677   2.313  17.167  2.3483  2.7169 -0.3060
16711TIP3   OH271547   5.553   2.719  10.719 -0.0392  0.4667  0.0070
16711TIP3    H171548   5.534   2.626  10.704  0.2294  0.4637 -0.3120
16711TIP3    H271549   5.487   2.746  10.783 -0.8529  0.3411 -0.7516
16712TIP3   OH271550   4.714   0.473   1.301 -0.0621  0.3621  0.0394
16712TIP3    H171551   4.729   0.379   1.306 -0.9338  0.1510 -1.1471
16712TIP3    H271552   4.734   0.496   1.210 -1.5196  1.0128 -0.1384
16713TIP3   OH271553   1.178   4.140   5.720  0.0300 -0.3234 -0.3502
16713TIP3    H171554   1.196   4.123   5.628 -2.0110 -0.1465 -0.8100
16713TIP3    H271555   1.260   4.116   5.765  1.1396 -0.1751 -2.2006
16714TIP3   OH271556   6.712   3.591  11.173  0.1790 -0.4646  0.2641
16714TIP3    H171557   6.637   3.602  11.114  0.1907 -0.9223  0.1594
16714TIP3    H271558   6.777   3.546  11.120  0.7913  0.5417  0.1467
16715TIP3   OH271559   3.971   5.769  12.722  0.5667 -0.0840 -0.2076
16715TIP3    H171560   4.017   5.701  12.672 -1.3651  0.7998 -3.4436
16715TIP3    H271561   3.973   5.846  12.666 -0.2817  1.5645  1.8849
16716TIP3   OH271562   2.633   1.857   6.764 -0.0173 -0.0179  0.2178
16716TIP3    H171563   2.601   1.862   6.854 -0.2746 -1.1323  0.2118
16716TIP3    H271564   2.590   1.929   6.718  1.1357  1.4026  1.2710
16717TIP3   OH271565   1.314   6.664   2.451  0.2075 -0.1422  0.3809
16717TIP3    H171566   1.308   6.760   2.443  0.4026 -0.1873 -0.3500
16717TIP3    H271567   1.272   6.631   2.372 -3.0729 -0.7578  2.1894
16718TIP3   OH271568   0.322   3.015  16.072 -0.8141  0.2021  0.3516
16718TIP3    H171569   0.347   3.106  16.052  1.1733 -0.6075 -1.1831
16718TIP3    H271570   0.229   3.010  16.051 -1.0165  1.9217  0.6827
16719TIP3   OH271571   2.344   2.319  15.188  0.6446  0.6056 -0.4085
16719TIP3    H171572   2.394   2.389  15.146 -0.4722  0.4782 -2.0133
16719TIP3    H271573   2.257   2.324  15.149 -0.3843  0.2490  1.6791
16720TIP3   OH271574   2.108   3.702   4.549 -0.2232  0.3175  0.2897
16720TIP3    H171575   2.187   3.753   4.530 -0.5146  0.5589 -0.2984
16720TIP3    H271576   2.051   3.763   4.596 -0.7015  0.6560 -0.6932
16721TIP3   OH271577   0.461   1.032   0.712  0.3278  0.3939  0.3745
16721TIP3    H171578   0.535   1.090   0.732  0.7433  0.0896 -0.2499
16721TIP3    H271579   0.387   1.072   0.757  0.6634  1.2671  0.1811
16722TIP3   OH271580   4.734   1.889  16.884  0.0861  0.5242  0.5071
16722TIP3    H171581   4.804   1.932  16.835 -0.6993 -0.0165 -1.1256
16722TIP3    H271582   4.744   1.796  16.863 -0.9287  0.4100  0.5057
16723TIP3   OH271583   3.492   2.122  15.986 -0.0822 -0.7076 -0.2357
16723TIP3    H171584   3.418   2.066  15.962 -0.7679  0.0947 -0.0433
16723TIP3    H271585   3.452   2.198  16.028  0.8029  0.0673 -0.7435
16724TIP3   OH271586   1.817   3.816   0.045 -0.0633 -0.6178  0.3847
16724TIP3    H171587   1.760   3.877   0.091  2.5685  2.1818  0.2249
16724TIP3    H271588   1.793   3.826  -0.047 -0.4913 -0.8243  0.4688
16725TIP3   OH271589   0.960   0.560   0.540 -0.4192  0.2100 -0.1903
16725TIP3    H171590   0.896   0.489   0.542  1.6686 -1.7632  1.5409
16725TIP3    H271591   0.968   0.583   0.448  0.6380 -3.6097 -1.2299
16726TIP3   OH271592   3.669   5.313   3.771  0.0598 -0.0103 -1.4598
16726TIP3    H171593   3.626   5.388   3.812  1.2690 -0.3230  0.5007
16726TIP3    H271594   3.609   5.287   3.701 -1.1590  1.7641 -1.1560
16727TIP3   OH271595   2.924   2.169  16.453  0.4718  0.2594 -0.8301
16727TIP3    H171596   3.001   2.129  16.494  1.2007  1.2852 -1.1305
16727TIP3    H271597   2.961   2.222  16.382 -0.3074  2.3408  0.2236
16728TIP3   OH271598   1.320   1.740   3.963 -0.2227 -0.3238 -1.0148
16728TIP3    H171599   1.387   1.682   3.998 -0.6485 -1.4866 -2.0517
16728TIP3    H271600   1.237   1.693   3.977 -0.8916  1.1664  0.4252
16729TIP3   OH271601   1.245   6.152  14.757 -0.3054 -0.3874 -0.2187
16729TIP3    H171602   1.288   6.212  14.696 -0.7009 -1.6143 -1.7669
16729TIP3    H271603   1.152   6.157  14.735 -0.5871 -0.1317  0.9538
16730TIP3   OH271604   5.396   6.765   3.100  0.2415  0.0589 -0.1427
16730TIP3    H171605   5.479   6.793   3.137  0.8950  0.0094 -1.4939
16730TIP3    H271606   5.420   6.713   3.023 -1.0145 -1.0897  0.1799
16731TIP3   OH271607   1.921   2.677  15.705  0.4575  0.6568 -0.2587
16731TIP3    H171608   2.000   2.724  15.678  0.6885 -0.2823 -1.2844
16731TIP3    H271609   1.884   2.644  15.623 -1.0631  1.1691  0.1914
16732TIP3   OH271610   6.505   3.022   2.969  0.3091  0.7792 -0.3401
16732TIP3    H171611   6.428   3.039   3.023  0.4625  0.3578  0.0156
16732TIP3    H271612   6.566   3.093   2.990  1.4016 -0.7077  1.9751
16733TIP3   OH271613   2.314   2.924   5.224  0.2657  0.1713 -0.5424
16733TIP3    H171614   2.334   2.992   5.159 -0.2897  0.4031 -0.4827
16733TIP3    H271615   2.251   2.867   5.180  0.1243  0.1521 -0.3147
16734TIP3   OH271616   6.605   5.323   5.129 -0.4596 -0.6640  0.2734
16734TIP3    H171617   6.673   5.356   5.188 -1.3830 -1.0245  1.6128
16734TIP3    H271618   6.628   5.231   5.116  0.7696 -0.1532 -1.4879
16735TIP3   OH271619   6.012   0.006   5.698  0.3716  0.5349  0.7654
16735TIP3    H171620   6.011   0.021   5.792 -2.4578 -1.9927  1.2794
16735TIP3    H271621   5.936   0.054   5.665 -0.7682 -1.4103  0.4038
16736TIP3   OH271622   2.244   2.979   4.531  0.2033  0.3042  0.1412
16736TIP3    H171623   2.292   3.054   4.567  2.1150 -0.8885  0.1932
16736TIP3    H271624   2.232   3.001   4.438  2.7515 -0.2212 -0.3845
16737TIP3   OH271625   6.221   4.329   4.878  0.2127 -0.4759  0.3787
16737TIP3    H171626   6.213   4.285   4.963  0.1572 -2.3964 -0.5599
16737TIP3    H271627   6.177   4.270   4.816  0.2563  0.8685 -0.9944
16738TIP3   OH271628   6.323   1.943   1.956  0.3311 -0.2976  0.7626
16738TIP3    H171629   6.229   1.933   1.972  0.2615 -1.3796 -0.1396
16738TIP3    H271630   6.350   1.858   1.921  1.5149  0.2135  0.3788
16739TIP3   OH271631   6.786   1.515  12.249  0.6188 -0.2755  0.5489
16739TIP3    H171632   6.874   1.519  12.212  0.0930  1.0491 -0.6467
16739TIP3    H271633   6.764   1.605  12.271 -0.1683 -0.6812  1.5205
16740TIP3   OH271634   5.911   5.123   5.179  0.1447  0.0928  0.3955
16740TIP3    H171635   5.903   5.057   5.111  1.5975 -1.5061  1.6884
16740TIP3    H271636   5.879   5.204   5.139 -1.7982 -1.3893 -1.2011
16741TIP3   OH271637   3.771   1.207   3.449 -0.7607 -0.7855 -0.0023
16741TIP3    H171638   3.837   1.186   3.515  0.3937  0.9973 -0.5194
16741TIP3    H271639   3.762   1.127   3.398 -0.4749 -1.6724  1.2744
16742TIP3   OH271640   0.924   6.569   0.789 -0.3295 -0.0786  0.6649
16742TIP3    H171641   0.938   6.493   0.732 -0.6785  0.4649 -0.1598
16742TIP3    H271642   1.003   6.573   0.843  1.2009  0.9040 -1.5239
16743TIP3   OH271643   6.398   4.553   4.338 -0.2445 -0.5567  0.1019
16743TIP3    H171644   6.464   4.621   4.323 -1.7564  0.7399 -0.9770
16743TIP3    H271645   6.369   4.567   4.429  2.5148 -2.6431  1.4582
16744TIP3   OH271646   0.449   2.108   5.476 -0.0290 -0.0316  0.0496
16744TIP3    H171647   0.471   2.018   5.450  1.8781  0.3797  0.0685
16744TIP3    H271648   0.488   2.163   5.407  1.3074  0.8796  1.4574
16745TIP3   OH271649   2.919   5.882   0.985  0.3071 -0.1811 -0.5750
16745TIP3    H171650   2.971   5.941   0.929  0.3023  0.2201 -0.1620
16745TIP3    H271651   2.924   5.922   1.072 -0.0492 -0.5677 -0.3786
16746TIP3   OH271652   3.877   1.269  16.592 -0.2345  0.2706  0.0088
16746TIP3    H171653   3.890   1.302  16.681 -1.7264  1.0844 -0.0345
16746TIP3    H271654   3.783   1.275  16.578 -0.3820 -2.4086 -0.6681
16747TIP3   OH271655   5.932   5.084   1.491  0.4876  0.5012 -0.6044
16747TIP3    H171656   5.868   5.015   1.472 -1.2823  1.3553  1.8273
16747TIP3    H271657   6.014   5.037   1.508 -1.0790 -1.2974  2.8149
16748TIP3   OH271658   0.426   4.524   2.601 -0.3601 -0.8020 -0.0469
16748TIP3    H171659   0.427   4.542   2.695  2.9518  0.3607 -0.1618
16748TIP3    H271660   0.400   4.608   2.561 -0.7362 -0.9927 -0.2050
16749TIP3   OH271661   6.024   4.417  13.306  0.1693  0.5981 -0.2117
16749TIP3    H171662   6.065   4.486  13.359 -0.8559  1.4744 -0.5159
16749TIP3    H271663   5.959   4.378  13.364 -2.7131  3.1886 -1.3914
16750TIP3   OH271664   6.394   1.633   0.901  0.1645  0.0161  0.6428
16750TIP3    H171665   6.353   1.694   0.839  0.5548  1.4323  1.7048
16750TIP3    H271666   6.323   1.576   0.929 -0.1554 -0.2289 -0.6155
16751TIP3   OH271667   2.175   6.434   6.468 -0.2590  0.1163  0.0617
16751TIP3    H171668   2.219   6.456   6.386 -0.1908 -0.0691  0.0489
16751TIP3    H271669   2.101   6.495   6.472  0.0411  0.4797  0.1213
16752TIP3   OH271670   0.637   6.557  13.868  0.5152  0.2004  0.3371
16752TIP3    H171671   0.641   6.569  13.963  0.4059  0.0283  0.3631
16752TIP3    H271672   0.554   6.598  13.843  0.2038 -0.3773  0.4093
16753TIP3   OH271673   1.115   4.847  13.663  0.3302  0.6321 -0.0139
16753TIP3    H171674   1.096   4.849  13.757 -1.1990  1.7548 -0.3199
16753TIP3    H271675   1.039   4.805  13.624  1.2910 -0.5214 -0.7127
16754TIP3   OH271676   3.213   5.647   3.070  0.1013  0.0429  0.0165
16754TIP3    H171677   3.136   5.590   3.075  0.3877 -0.4358 -0.8420
16754TIP3    H271678   3.191   5.723   3.124 -1.3045  0.2909 -0.8603
16755TIP3   OH271679   3.571   1.700   2.706  0.2321  0.5880 -0.0444
16755TIP3    H171680   3.557   1.788   2.670  2.6977  1.1044  0.0423
16755TIP3    H271681   3.570   1.642   2.630  0.1859  0.9351 -0.3107
16756TIP3   OH271682   2.038   6.165   0.150  0.2934  0.1291  0.1224
16756TIP3    H171683   2.102   6.221   0.105 -1.3890  1.5239 -0.6527
16756TIP3    H271684   2.075   6.152   0.237  2.6336 -0.8962 -0.9548
16757TIP3   OH271685   0.536   5.579  16.544 -0.3601 -0.7015  0.7003
16757TIP3    H171686   0.597   5.521  16.589  0.1906 -0.7543 -0.0941
16757TIP3    H271687   0.551   5.563  16.451  1.4294  2.2703  0.3309
16758TIP3   OH271688   0.864   5.400  14.256  0.2786  0.0854 -0.2012
16758TIP3    H171689   0.926   5.455  14.303  1.7468 -1.0496 -0.7517
16758TIP3    H271690   0.863   5.436  14.168 -1.5832  1.4763  0.3218
16759TIP3   OH271691   4.348   4.234   2.789  0.1908  0.3566 -0.3109
16759TIP3    H171692   4.313   4.321   2.811  1.8485  0.7597  0.9476
16759TIP3    H271693   4.366   4.239   2.695 -0.6388  1.0251 -0.4508
16760TIP3   OH271694   4.461   3.187  15.853  0.1420  0.0515 -0.8739
16760TIP3    H171695   4.466   3.147  15.939  0.8553  1.6399 -0.1246
16760TIP3    H271696   4.377   3.232  15.852 -0.2048 -0.6033 -1.3076
16761TIP3   OH271697   3.158   6.086  12.003  0.0740  0.1646  0.2672
16761TIP3    H171698   3.129   6.043  12.084 -0.2022  1.2197  0.7515
16761TIP3    H271699   3.247   6.115  12.022  0.1910 -0.0404  0.0170
16762TIP3   OH271700   6.374   4.218  13.228 -0.1242 -0.4240 -0.3570
16762TIP3    H171701   6.334   4.238  13.143 -1.2446 -0.7212  0.0827
16762TIP3    H271702   6.390   4.124  13.225  2.6198 -0.0041 -1.3691
16763TIP3   OH271703   3.945   6.734  14.106 -0.2916 -0.2312  0.2738
16763TIP3    H171704   3.885   6.660  14.113 -2.2169  1.3658  2.3714
16763TIP3    H271705   3.896   6.801  14.059  1.9777 -0.6616 -3.0257
16764TIP3   OH271706   0.528   1.650  15.232  0.3231  0.0308 -0.0124
16764TIP3    H171707   0.601   1.642  15.171 -0.0257 -2.6195 -0.2015
16764TIP3    H271708   0.451   1.659  15.176  0.2713  0.4850  0.1278
16765TIP3   OH271709   4.896   6.162  12.900 -0.1537  0.4390  0.1301
16765TIP3    H171710   4.877   6.208  12.818  0.5662  1.2284  0.3954
16765TIP3    H271711   4.921   6.074  12.873 -1.7176  0.1186 -0.3745
16766TIP3   OH271712   0.240   4.745  16.510  0.2462 -0.4221 -0.0610
16766TIP3    H171713   0.286   4.747  16.594 -1.9897 -1.7190  1.2795
16766TIP3    H271714   0.233   4.652  16.489  0.4168 -0.1262 -1.5053
16767TIP3   OH271715   2.210   5.235   4.940  0.7238  0.2365  0.1883
16767TIP3    H171716   2.167   5.314   4.973 -2.9716 -1.8230  0.8820
16767TIP3    H271717   2.275   5.213   5.007  1.3881  2.2622  0.2886
16768TIP3   OH271718   3.370   5.758  15.781 -0.5821  0.5084  0.1818
16768TIP3    H171719   3.447   5.773  15.837 -1.1546 -0.5557  1.3125
16768TIP3    H271720   3.296   5.789  15.834 -1.2520 -1.5140  0.4930
16769TIP3   OH271721   1.446   6.268   5.928 -0.4861  0.1525 -0.3324
16769TIP3    H171722   1.361   6.312   5.922 -1.0098 -0.8553 -0.5115
16769TIP3    H271723   1.487   6.306   6.006 -0.6269  1.4244 -0.8445
16770TIP3   OH271724   2.004   1.861   6.006 -0.4747 -0.3942  0.2775
16770TIP3    H171725   1.977   1.777   6.043 -0.0537 -0.5741  0.1891
16770TIP3    H271726   1.941   1.924   6.039  1.0685 -0.1589  3.0514
16771TIP3   OH271727   5.817   4.032  12.563  0.0231 -0.0542 -0.0019
16771TIP3    H171728   5.826   3.952  12.614 -0.6006  0.8358  1.5709
16771TIP3    H271729   5.838   4.102  12.624 -0.7661  1.0615 -0.9696
16772TIP3   OH271730   3.709   4.120  13.033  0.9376  0.4809 -0.2070
16772TIP3    H171731   3.660   4.122  13.116  1.1034 -2.1517  0.0408
16772TIP3    H271732   3.642   4.106  12.966  1.0651 -0.3131 -0.1758
16773TIP3   OH271733   4.842   3.356   3.061 -0.0023  0.0390  0.4129
16773TIP3    H171734   4.917   3.408   3.032 -0.0168  0.8563  1.7576
16773TIP3    H271735   4.821   3.391   3.147 -0.8174 -1.3751  0.8132
16774TIP3   OH271736   6.265   3.362  15.115 -0.5715 -0.4769 -0.2439
16774TIP3    H171737   6.234   3.414  15.189 -1.6687  0.8196 -1.5611
16774TIP3    H271738   6.196   3.298  15.100 -3.0973  2.5872 -3.3554
16775TIP3   OH271739   5.002   5.273   2.631  0.4059  0.0470 -0.1093
16775TIP3    H171740   5.015   5.221   2.710  2.0473  2.5988  1.4499
16775TIP3    H271741   4.912   5.305   2.638  1.1107  1.8430  1.8894
16776TIP3   OH271742   2.487   3.364  12.803  0.4455  0.0869 -0.1363
16776TIP3    H171743   2.408   3.418  12.805  0.4202  0.0601  1.7915
16776TIP3    H271744   2.558   3.426  12.819  0.5943 -0.1738  0.2187
16777TIP3   OH271745   1.778   3.576   4.514  0.3403  0.1566  0.4289
16777TIP3    H171746   1.727   3.638   4.565  1.0476  0.0729  1.2569
16777TIP3    H271747   1.713   3.519   4.472 -0.3661  1.8580 -0.9123
16778TIP3   OH271748   2.674   3.638  11.470  0.0437 -0.1396 -0.3480
16778TIP3    H171749   2.749   3.627  11.412  1.3820 -0.1637  1.3232
16778TIP3    H271750   2.637   3.550  11.477  0.2827 -0.2647 -0.6397
16779TIP3   OH271751   3.679   4.356  16.752 -0.6377  0.1473 -0.1204
16779TIP3    H171752   3.594   4.320  16.725 -0.2373 -1.3634  0.5558
16779TIP3    H271753   3.659   4.409  16.829 -0.7773 -1.7231  1.2073
16780TIP3   OH271754   2.647   5.926  13.508 -0.4586  0.1072  0.6156
16780TIP3    H171755   2.684   5.871  13.439  3.0660  0.1917  2.2222
16780TIP3    H271756   2.653   5.873  13.587  0.0663  1.6214  1.6434
16781TIP3   OH271757   0.063   5.069   0.497 -0.0606 -0.3639  0.6213
16781TIP3    H171758   0.076   4.987   0.544 -2.2355 -0.4032  1.2665
16781TIP3    H271759   0.029   5.130   0.563 -0.3937  0.4418 -0.2650
16782TIP3   OH271760   5.580   4.945   2.777  0.2117  0.3429  0.1002
16782TIP3    H171761   5.630   4.964   2.857  0.5416 -1.7272  0.4398
16782TIP3    H271762   5.645   4.940   2.708  0.5506 -2.1613  0.5089
16783TIP3   OH271763   2.794   3.802  12.953 -0.6822 -0.1803 -0.2641
16783TIP3    H171764   2.754   3.884  12.925 -1.2930 -0.1977  0.5228
16783TIP3    H271765   2.869   3.828  13.006  0.3738 -0.1474 -1.7231
16784TIP3   OH271766   3.569   3.532   6.799  0.1343 -0.2692 -0.4139
16784TIP3    H171767   3.477   3.536   6.824  0.1021 -1.6427 -0.2534
16784TIP3    H271768   3.576   3.592   6.724 -0.1356  2.5292  1.6407
16785TIP3   OH271769   4.590   6.500   4.949  0.2790 -0.4946  0.0949
16785TIP3    H171770   4.532   6.427   4.969  1.6802 -1.4675  0.7472
16785TIP3    H271771   4.645   6.469   4.877 -0.3734  0.6372 -0.9319
16786TIP3   OH271772   0.272   2.494  11.664 -0.3309 -0.0208  1.1223
16786TIP3    H171773   0.357   2.459  11.638 -0.8008 -0.3784  0.0206
16786TIP3    H271774   0.212   2.419  11.657 -0.9609  0.5121  0.6996
16787TIP3   OH271775   3.366   4.842   5.226 -0.2595  0.4596  0.2445
16787TIP3    H171776   3.441   4.860   5.169 -0.8776  0.4396 -0.5900
16787TIP3    H271777   3.400   4.781   5.291  0.1928 -0.3228 -0.7043
16788TIP3   OH271778   6.117   3.929  13.007 -0.1241  0.0389  0.5269
16788TIP3    H171779   6.127   4.008  13.059 -0.1281 -0.4702  1.3245
16788TIP3    H271780   6.192   3.874  13.032 -0.6313 -0.5934  0.6932
16789TIP3   OH271781   2.143   5.467   6.345  0.1635  0.0366 -0.2708
16789TIP3    H171782   2.170   5.386   6.302  2.0760  0.5985 -0.2216
16789TIP3    H271783   2.166   5.454   6.437 -1.3493 -0.0914  0.1155
16790TIP3   OH271784   0.357   5.740  15.802 -0.1128  0.0185  0.2084
16790TIP3    H171785   0.374   5.824  15.845 -0.4078 -0.3129  0.9983
16790TIP3    H271786   0.333   5.763  15.713 -0.6185  0.8046  0.5372
16791TIP3   OH271787   2.235   3.389   5.374 -0.3283 -0.6206  0.4215
16791TIP3    H171788   2.238   3.471   5.422 -1.2731  0.8359 -1.8282
16791TIP3    H271789   2.327   3.367   5.357 -0.0254 -0.6794  2.0041
16792TIP3   OH271790   3.911   2.466   0.219  0.2099  0.0568 -0.0212
16792TIP3    H171791   3.969   2.525   0.171  0.4168  0.7045  0.9902
16792TIP3    H271792   3.886   2.399   0.155  1.4617  0.1917 -0.6825
16793TIP3   OH271793   4.775   4.185  12.559 -0.3168  0.5280 -0.1827
16793TIP3    H171794   4.858   4.218  12.526 -0.2656  0.1028 -0.4833
16793TIP3    H271795   4.711   4.252  12.533 -0.2583  0.2590 -1.0382
16794TIP3   OH271796   4.196   0.762  10.764 -0.1259 -0.0420  0.0338
16794TIP3    H171797   4.283   0.782  10.798 -0.7468  0.2175  1.5424
16794TIP3    H271798   4.159   0.846  10.739 -0.3514 -0.0239  0.4227
16795TIP3   OH271799   1.165   0.452  15.737 -0.0242  0.0614  0.0188
16795TIP3    H171800   1.135   0.362  15.724  2.2204 -1.0450  1.8128
16795TIP3    H271801   1.163   0.491  15.650 -1.4724 -1.5619 -0.7316
16796TIP3   OH271802   6.459   5.408  17.091  0.6351 -0.0599 -0.0093
16796TIP3    H171803   6.423   5.328  17.050  0.5349  0.6854 -1.4492
16796TIP3    H271804   6.534   5.430  17.036  0.7270  0.7802  0.4523
16797TIP3   OH271805   4.947   0.513  13.578  0.4502  0.2000 -0.1799
16797TIP3    H171806   4.864   0.513  13.529  0.2173  0.9436  0.1929
16797TIP3    H271807   4.983   0.426  13.564  0.3255  0.3474 -1.5778
16798TIP3   OH271808   5.559   3.257  12.886  0.3707  0.4482 -0.3377
16798TIP3    H171809   5.472   3.295  12.883 -0.0519 -0.2744  1.5839
16798TIP3    H271810   5.611   3.319  12.938  0.1888 -0.5377  1.0914
16799TIP3   OH271811   6.780   2.613  14.568 -0.1430  0.0973 -0.1007
16799TIP3    H171812   6.832   2.581  14.642  0.6658  1.4904 -0.0099
16799TIP3    H271813   6.792   2.547  14.499 -0.7289 -1.1036  0.9223
16800TIP3   OH271814   2.709   2.005   4.109  0.4461  0.5018 -0.3160
16800TIP3    H171815   2.699   2.079   4.169 -0.0039 -0.4497  0.8155
16800TIP3    H271816   2.663   1.933   4.152 -1.6885  0.2826 -2.7527
16801TIP3   OH271817   5.377   6.212   3.766  0.0663 -0.0791 -0.0470
16801TIP3    H171818   5.348   6.217   3.675  1.3306 -1.3349 -0.5497
16801TIP3    H271819   5.302   6.178   3.814 -1.3440  2.5627 -0.1954
16802TIP3   OH271820   3.941   4.614  12.206  0.2937 -0.3946  0.1055
16802TIP3    H171821   4.033   4.638  12.197  0.3034 -0.8000 -0.9903
16802TIP3    H271822   3.894   4.697  12.213  0.5966 -0.1346 -0.8662
16803TIP3   OH271823   3.205   6.089   3.268  0.3554  0.3173  0.3252
16803TIP3    H171824   3.295   6.087   3.302  0.2796 -1.7231  0.5341
16803TIP3    H271825   3.175   6.178   3.285  1.7914  0.5848  1.7102
16804TIP3   OH271826   2.223   3.943   2.624 -0.4848  0.3121 -0.2473
16804TIP3    H171827   2.187   3.940   2.535  2.1940 -0.9189 -1.4023
16804TIP3    H271828   2.270   4.027   2.627 -1.4293  0.8410  0.4350
16805TIP3   OH271829   5.599   0.318  17.096 -0.1709 -0.7992 -0.5299
16805TIP3    H171830   5.615   0.229  17.065 -1.3822 -0.4085 -2.4536
16805TIP3    H271831   5.686   0.356  17.107  0.3440 -1.9576 -0.4548
16806TIP3   OH271832   1.998   4.494  12.157 -0.0954  0.2359  0.0433
16806TIP3    H171833   1.947   4.466  12.233  0.1497 -0.2699  0.0283
16806TIP3    H271834   1.936   4.492  12.084 -0.0174 -0.5505 -0.0084
16807TIP3   OH271835   2.852   6.291   3.551 -0.8031  0.0803 -0.1590
16807TIP3    H171836   2.764   6.302   3.585 -1.3230 -0.8732 -1.1381
16807TIP3    H271837   2.889   6.380   3.552 -2.1801  0.6997 -0.8256
16808TIP3   OH271838   4.146   4.528   1.880 -0.2572  0.5249 -0.1198
16808TIP3    H171839   4.186   4.589   1.817 -0.6222 -0.7111 -1.6046
16808TIP3    H271840   4.057   4.562   1.892 -0.0742  0.9705  0.0146
16809TIP3   OH271841   1.309   5.544  13.110 -0.1026 -0.3335  0.4274
16809TIP3    H171842   1.275   5.491  13.038 -2.1107  0.6651  0.5685
16809TIP3    H271843   1.266   5.509  13.188  0.7565 -0.3260  0.9116
16810TIP3   OH271844   5.909   0.766  16.468 -0.7817  0.2593  0.0837
16810TIP3    H171845   5.845   0.811  16.524 -0.1900  2.0916 -0.6462
16810TIP3    H271846   5.993   0.787  16.507 -0.4199  0.8393 -0.9698
16811TIP3   OH271847   1.801   1.890  16.569 -0.0520  0.0118 -0.0100
16811TIP3    H171848   1.786   1.806  16.527 -1.5283 -0.3951  1.2219
16811TIP3    H271849   1.743   1.889  16.645 -0.3713  2.2911 -0.1599
16812TIP3   OH271850   4.321   0.298  14.660 -0.1921 -0.3106  0.0578
16812TIP3    H171851   4.268   0.375  14.680 -1.0488 -0.6279 -0.8639
16812TIP3    H271852   4.258   0.225  14.662  0.4847 -0.8982  0.3043
16813TIP3   OH271853   0.422   1.295  17.091  0.3829  0.1148  0.1525
16813TIP3    H171854   0.483   1.368  17.076  0.2452  0.2813  0.3885
16813TIP3    H271855   0.384   1.278  17.005  0.4968  0.2525  0.0744
16814TIP3   OH271856   4.051   6.057   2.066 -0.3517  0.4319  0.2352
16814TIP3    H171857   4.105   5.990   2.024 -0.0619  1.1503 -0.5656
16814TIP3    H271858   4.032   6.022   2.153  0.4791 -0.3198  0.1242
16815TIP3   OH271859   0.721   5.948   0.624 -0.2110 -0.0713  0.2083
16815TIP3    H171860   0.751   5.990   0.704 -1.0254  2.5470 -0.7539
16815TIP3    H271861   0.627   5.964   0.622 -0.4227 -1.2501 -0.6550
16816TIP3   OH271862   2.564   2.887   2.767  0.0251  0.0824 -0.5253
16816TIP3    H171863   2.537   2.916   2.854 -1.8820  1.0405 -1.3619
16816TIP3    H271864   2.657   2.908   2.762  0.1606  0.0293  1.2564
16817TIP3   OH271865   4.842   5.127  12.325 -0.3797 -0.2773  0.0675
16817TIP3    H171866   4.932   5.159  12.318 -0.3068 -0.6717 -0.9230
16817TIP3    H271867   4.790   5.206  12.342 -0.0428  0.2098 -1.0444
16818TIP3   OH271868   0.139   0.056   3.482  0.9458 -0.1187 -0.5006
16818TIP3    H171869   0.182   0.125   3.532  0.6168 -1.1616  1.3173
16818TIP3    H271870   0.144  -0.021   3.539 -0.8335 -0.9662 -1.4219
16819TIP3   OH271871   1.402   5.722   1.572 -0.1516  0.1926  0.0700
16819TIP3    H171872   1.412   5.808   1.612 -0.3180 -0.6174  1.9202
16819TIP3    H271873   1.490   5.700   1.541  0.2956  0.2444  1.2653
16820TIP3   OH271874   1.592   3.433  12.833  0.0429 -0.0467  0.2225
16820TIP3    H171875   1.593   3.494  12.906 -2.6993  0.3887 -0.0053
16820TIP3    H271876   1.504   3.440  12.796  0.4321 -2.3039 -1.3895
16821TIP3   OH271877   6.263   5.522   3.607  0.1395  0.2228 -0.4475
16821TIP3    H171878   6.232   5.611   3.621 -0.0764  0.0158  0.4175
16821TIP3    H271879   6.188   5.476   3.569 -0.8686 -0.3982  2.0699
16822TIP3   OH271880   2.748   0.314  17.026  0.1986 -0.4050 -0.6423
16822TIP3    H171881   2.731   0.404  17.000  0.0172  0.4151  2.1138
16822TIP3    H271882   2.840   0.313  17.052  0.3960 -1.2256 -1.3088
16823TIP3   OH271883   6.587   0.166   2.552  0.6662 -0.0123  0.2416
16823TIP3    H171884   6.654   0.232   2.569 -0.7570  1.6852 -0.3214
16823TIP3    H271885   6.576   0.167   2.457 -0.2929 -0.0822  0.3404
16824TIP3   OH271886   6.358   3.802   3.734 -0.0680 -0.4628  0.1062
16824TIP3    H171887   6.285   3.768   3.682  0.9969 -2.4899 -0.1302
16824TIP3    H271888   6.407   3.857   3.672 -0.3157 -0.6636 -0.2781
16825TIP3   OH271889   6.432   3.942  15.300  0.0682  0.2026  0.5091
16825TIP3    H171890   6.367   3.883  15.262 -0.0729  0.0068  1.0483
16825TIP3    H271891   6.494   3.957  15.229 -0.8702  0.8558 -0.1941
16826TIP3   OH271892   0.303   6.757   3.805 -0.5768  0.2683 -0.5218
16826TIP3    H171893   0.376   6.731   3.862 -1.3217  1.8569  1.2589
16826TIP3    H271894   0.339   6.824   3.748  0.0345 -0.9530 -1.6361
16827TIP3   OH271895   1.037   2.896   5.287  0.3117 -0.1485  0.5220
16827TIP3    H171896   1.132   2.897   5.297  0.3707  1.2770 -0.0419
16827TIP3    H271897   1.008   2.982   5.315 -0.9579 -0.9360  1.7561
16828TIP3   OH271898   0.818   6.408  12.221  0.4921  0.0528 -0.5106
16828TIP3    H171899   0.738   6.462  12.225  0.5109  0.1458 -1.2827
16828TIP3    H271900   0.848   6.404  12.312  0.1864  0.8940 -0.3572
16829TIP3   OH271901   2.100   5.176   0.002 -0.4228 -0.1095  0.2146
16829TIP3    H171902   2.180   5.148   0.046 -0.8668 -1.0453  0.4527
16829TIP3    H271903   2.056   5.232   0.065  0.8691  1.9297 -0.5650
16830TIP3   OH271904   1.425   3.827   1.340  0.1251 -0.3816 -0.3705
16830TIP3    H171905   1.501   3.873   1.375  0.6620 -0.8183 -0.9378
16830TIP3    H271906   1.361   3.829   1.411  0.2389  0.9770 -0.2802
16831TIP3   OH271907   0.744   2.230  12.775 -0.2734  0.2124  0.3993
16831TIP3    H171908   0.728   2.148  12.821 -2.5152  0.4856  0.1913
16831TIP3    H271909   0.821   2.267  12.818 -0.1950 -1.2125  1.5480
16832TIP3   OH271910   5.438   5.053  15.317 -0.3481 -0.3227 -0.0765
16832TIP3    H171911   5.456   5.132  15.266 -1.5108 -0.1390 -0.2163
16832TIP3    H271912   5.439   5.083  15.408 -0.0923 -0.2959 -0.0848
16833TIP3   OH271913   1.172   6.143   3.722  0.3772  0.4060  0.0217
16833TIP3    H171914   1.120   6.084   3.668 -1.6904  1.4693  0.7610
16833TIP3    H271915   1.263   6.126   3.696 -0.3144 -1.5174 -1.3064
16834TIP3   OH271916   0.800   3.184  12.148  0.2844 -0.2542  0.2561
16834TIP3    H171917   0.856   3.134  12.208  1.2134  0.6742  0.2053
16834TIP3    H271918   0.721   3.203  12.198 -0.0588 -1.6703  0.3008
16835TIP3   OH271919   4.170   1.519  15.864  0.0355 -0.4401 -0.3897
16835TIP3    H171920   4.255   1.501  15.823  0.9347  1.4578  0.5071
16835TIP3    H271921   4.127   1.578  15.802 -0.7666 -1.5749 -0.9480
16836TIP3   OH271922   4.468   5.954  16.516 -0.7638  0.0449 -0.5783
16836TIP3    H171923   4.381   5.959  16.477 -0.5367  1.5835 -0.9399
16836TIP3    H271924   4.517   6.024  16.475  1.2886 -2.0120 -1.8759
16837TIP3   OH271925   5.368   4.576  16.281 -0.3554  0.1655 -0.5131
16837TIP3    H171926   5.336   4.537  16.363  0.4884  0.1721 -0.1684
16837TIP3    H271927   5.307   4.646  16.262 -0.7261 -0.0228 -0.0390
16838TIP3   OH271928   2.642   4.902  11.527  0.1681  0.5319  0.0380
16838TIP3    H171929   2.604   4.814  11.519  2.3398 -0.4045 -0.8721
16838TIP3    H271930   2.661   4.928  11.437  0.9210  1.2834  0.3951
16839TIP3   OH271931   1.775   6.509  11.153  0.0750  0.0717  1.1051
16839TIP3    H171932   1.712   6.527  11.083  0.8876  2.3672  0.8679
16839TIP3    H271933   1.833   6.442  11.117  1.0037  1.7979 -0.8675
16840TIP3   OH271934   1.029   3.851   5.379  0.0389 -0.3435  0.8526
16840TIP3    H171935   0.975   3.869   5.302  1.6719 -1.0070 -0.5197
16840TIP3    H271936   0.975   3.794   5.433 -0.8083 -0.6583 -0.2821
16841TIP3   OH271937   6.637   0.651  16.643 -0.9954 -0.9174  1.0299
16841TIP3    H171938   6.663   0.566  16.678  0.1212 -0.4654  1.3468
16841TIP3    H271939   6.657   0.646  16.550  0.8008 -0.4025  1.3497
16842TIP3   OH271940   4.437   3.794  15.100 -0.2073 -0.0473  0.4778
16842TIP3    H171941   4.493   3.845  15.042 -0.0523 -1.1235 -0.3432
16842TIP3    H271942   4.350   3.834  15.091 -0.2756 -0.4494 -0.8222
16843TIP3   OH271943   3.573   0.354   4.351 -0.2178  1.4955 -0.4328
16843TIP3    H171944   3.665   0.364   4.327 -0.2447  0.2035 -1.1323
16843TIP3    H271945   3.563   0.262   4.371 -1.3457  1.6386 -0.2803
16844TIP3   OH271946   4.601   2.698   2.358  0.4372 -0.2246 -0.1235
16844TIP3    H171947   4.641   2.683   2.273  0.9226  1.0985 -0.1524
16844TIP3    H271948   4.670   2.741   2.410 -0.8528  2.0592 -0.1638
16845TIP3   OH271949   1.412   5.900  16.914 -0.5464 -0.4748 -0.2650
16845TIP3    H171950   1.430   5.993  16.929 -1.0777 -0.7763  2.7548
16845TIP3    H271951   1.345   5.877  16.978  0.2415 -3.1815 -0.2718
16846TIP3   OH271952   0.003   2.792   2.702  0.4276  0.4476 -0.0272
16846TIP3    H171953   0.043   2.777   2.788  1.0040 -0.5860 -0.4596
16846TIP3    H271954  -0.089   2.770   2.715  0.5798 -0.0465  0.2511
16847TIP3   OH271955   4.701   5.718  16.536 -0.0112  0.0146 -0.3026
16847TIP3    H171956   4.626   5.677  16.493 -1.5062  0.5475  1.6073
16847TIP3    H271957   4.702   5.808  16.503 -0.1573 -0.0270 -0.4212
16848TIP3   OH271958   1.728   4.081   2.818  0.3563  1.0265  0.1631
16848TIP3    H171959   1.677   4.146   2.770  1.1731 -0.3168 -2.8135
16848TIP3    H271960   1.813   4.121   2.831  1.0981  0.4588 -2.3136
16849TIP3   OH271961   0.835   4.464   4.214 -0.0833  0.0611 -0.1909
16849TIP3    H171962   0.868   4.464   4.304  0.4441 -0.7414 -0.3771
16849TIP3    H271963   0.848   4.554   4.184 -0.9774  0.5427  0.7804
16850TIP3   OH271964   6.629   0.862  13.261  0.4733 -0.3437 -0.5638
16850TIP3    H171965   6.723   0.874  13.270  0.3305  1.2379 -0.9360
16850TIP3    H271966   6.602   0.824  13.345  1.0034  2.2530  0.9066
16851TIP3   OH271967   2.066   1.759   5.548 -0.0635  0.6699 -0.1997
16851TIP3    H171968   2.106   1.746   5.462  0.6336  2.7426 -0.2320
16851TIP3    H271969   1.981   1.798   5.529 -0.6111 -0.3534  0.0317
16852TIP3   OH271970   3.479   5.176  13.878  0.0260 -0.4965  0.9423
16852TIP3    H171971   3.394   5.154  13.916 -0.4617  0.8259  0.6811
16852TIP3    H271972   3.528   5.094  13.878 -1.2907 -1.3002  0.9865
16853TIP3   OH271973   5.851   0.184   0.769  0.1762 -0.2124 -0.0113
16853TIP3    H171974   5.772   0.233   0.748  0.4763  0.6183  0.7593
16853TIP3    H271975   5.824   0.092   0.763 -0.8241  0.0576  0.1589
16854TIP3   OH271976   1.213   5.631   4.872 -0.2161 -0.0828  0.1295
16854TIP3    H171977   1.257   5.677   4.800 -1.6255  0.3344 -0.5080
16854TIP3    H271978   1.253   5.544   4.873  1.1058  0.4892  0.0576
16855TIP3   OH271979   0.362   5.736   3.646  0.5181  0.1002  0.2540
16855TIP3    H171980   0.388   5.788   3.570  1.2882 -0.1383  0.3483
16855TIP3    H271981   0.356   5.799   3.718  1.5182  0.0590  0.3853
16856TIP3   OH271982   0.227   0.553  15.466 -0.0399 -0.7083 -0.0985
16856TIP3    H171983   0.213   0.632  15.415  0.0260  0.0186  0.9800
16856TIP3    H271984   0.152   0.548  15.525 -0.9810 -2.4421 -1.3518
16857TIP3   OH271985   5.979   5.074   2.780 -0.4567 -0.0701  0.5016
16857TIP3    H171986   5.929   5.084   2.861 -2.1730 -1.7706 -0.2908
16857TIP3    H271987   6.001   5.164   2.755 -0.6607  0.5496  2.3426
16858TIP3   OH271988   0.185   1.456   3.981 -0.0955  0.6866  0.0607
16858TIP3    H171989   0.190   1.441   4.075  1.2353  0.5255 -0.0120
16858TIP3    H271990   0.195   1.369   3.942 -2.6201  0.4502 -0.2427
16859TIP3   OH271991   4.977   4.020   4.581 -0.1950  0.4850 -0.0035
16859TIP3    H171992   4.886   4.048   4.593 -1.1039 -1.0475 -2.5874
16859TIP3    H271993   5.013   4.082   4.517 -0.5682 -0.9285 -1.6492
16860TIP3   OH271994   2.986   4.317  11.764  0.5227 -0.0951  0.0941
16860TIP3    H171995   2.990   4.348  11.674 -0.6325 -1.0875 -0.3282
16860TIP3    H271996   2.975   4.397  11.816 -1.4814  0.3288 -0.8800
16861TIP3   OH271997   4.197   4.577   0.873  0.4422 -0.3598 -0.5937
16861TIP3    H171998   4.116   4.613   0.837  0.1828 -0.3479 -0.0192
16861TIP3    H271999   4.198   4.607   0.964  1.1194 -0.3150 -0.6081
16862TIP3   OH272000   0.484   0.918   5.130 -0.5238  0.5867  0.5843
16862TIP3    H172001   0.450   0.998   5.091 -2.9639 -0.7184 -0.1843
16862TIP3    H272002   0.406   0.870   5.159  0.8523 -1.3793  1.2820
16863TIP3   OH272003   6.399   5.451  12.097  0.3369  0.5257 -0.4723
16863TIP3    H172004   6.321   5.406  12.065  0.8341 -2.2921  1.8058
16863TIP3    H272005   6.367   5.510  12.165  0.0696  0.3755 -0.4692
16864TIP3   OH272006   1.130   2.179   0.858  0.4045 -0.0014  0.4291
16864TIP3    H172007   1.059   2.152   0.799  0.8557  1.0861 -0.6721
16864TIP3    H272008   1.127   2.117   0.930 -0.3336 -1.2527 -0.6336
16865TIP3   OH272009   6.129   3.062  14.366 -0.6638 -0.1011  0.0677
16865TIP3    H172010   6.061   3.090  14.427  1.7359  3.1995  1.5326
16865TIP3    H272011   6.178   2.995  14.415  0.9781  2.2108  1.8366
16866TIP3   OH272012   6.666   6.094   2.014 -0.4685  0.1680  0.0647
16866TIP3    H172013   6.671   6.059   1.925  1.4670 -0.5483  0.4112
16866TIP3    H272014   6.756   6.094   2.045 -0.6166  3.5596  0.8855
16867TIP3   OH272015   4.551   4.788   3.609 -0.4936 -0.3010  0.2684
16867TIP3    H172016   4.540   4.859   3.671  0.1867 -0.3153  0.4112
16867TIP3    H272017   4.485   4.723   3.634  0.7217 -0.9754  1.9198
16868TIP3   OH272018   5.225   0.685   1.519  0.1070  0.5700  0.2852
16868TIP3    H172019   5.277   0.720   1.447 -0.2948  2.3342  0.7924
16868TIP3    H272020   5.281   0.696   1.596 -0.1462  0.3540  0.5008
16869TIP3   OH272021   1.412   5.125  17.007  0.4570 -0.9258 -0.9703
16869TIP3    H172022   1.461   5.128  16.925 -0.6557 -0.0770 -1.6347
16869TIP3    H272023   1.420   5.214  17.043  2.0055 -1.6121  0.5286
16870TIP3   OH272024   3.837   2.028   0.163 -0.1660  0.6877  0.3078
16870TIP3    H172025   3.928   2.000   0.165 -0.4463 -0.2395  0.2991
16870TIP3    H272026   3.841   2.119   0.132  0.6700  0.2539 -0.9574
16871TIP3   OH272027   0.434   4.753   0.158  0.1829 -0.2489  0.1933
16871TIP3    H172028   0.353   4.711   0.188 -2.6330  2.2256 -3.1571
16871TIP3    H272029   0.494   4.680   0.141 -2.8444 -2.6348 -1.2038
16872TIP3   OH272030   6.313   3.246  13.714  0.3161  0.4908  0.5969
16872TIP3    H172031   6.298   3.191  13.791 -1.7687 -0.3192 -0.3010
16872TIP3    H272032   6.343   3.330  13.750 -0.5555  0.1215  2.3034
16873TIP3   OH272033   4.685   6.440   5.894  0.5002 -0.4122 -0.0414
16873TIP3    H172034   4.780   6.451   5.905  0.5409  0.2643 -1.0078
16873TIP3    H272035   4.673   6.346   5.886  1.0871 -0.5040  0.0933
16874TIP3   OH272036   1.109   1.796   6.052 -0.2873  0.5125 -0.2687
16874TIP3    H172037   1.094   1.743   6.131  0.7364  0.3584 -0.1542
16874TIP3    H272038   1.036   1.776   5.995 -0.1663 -0.6796 -0.0306
16875TIP3   OH272039   4.380   3.950   1.125  0.4576 -0.0158 -0.2975
16875TIP3    H172040   4.439   3.941   1.199  1.2069 -1.5612 -1.0220
16875TIP3    H272041   4.292   3.939   1.162  0.8910 -2.2881  0.2157
16876TIP3   OH272042   4.916   3.986   1.464  0.2065  0.3044  0.2178
16876TIP3    H172043   5.010   3.997   1.451  0.0426  0.5027 -0.9111
16876TIP3    H272044   4.900   3.893   1.447  0.4585 -0.1458  2.2579
16877TIP3   OH272045   6.456   4.314  12.254  0.1372  0.2697  0.4517
16877TIP3    H172046   6.507   4.394  12.251  0.9642 -0.2839 -1.2969
16877TIP3    H272047   6.520   4.247  12.281  0.4583 -0.4560 -1.9132
16878TIP3   OH272048   3.615   5.196   5.513 -0.0764  0.3577 -0.4955
16878TIP3    H172049   3.538   5.248   5.490  0.4796  0.7723 -1.4659
16878TIP3    H272050   3.594   5.158   5.598 -0.5734  2.0077  0.1404
16879TIP3   OH272051   4.729   0.990  14.462  0.2888  0.2981  0.0066
16879TIP3    H172052   4.777   0.918  14.422  0.9903  1.6626 -1.7246
16879TIP3    H272053   4.637   0.962  14.459  0.4875 -0.2932 -1.1607
16880TIP3   OH272054   5.984   1.452   0.674  0.0680 -0.1131  0.1508
16880TIP3    H172055   5.955   1.534   0.634 -0.7988 -0.8728 -0.8460
16880TIP3    H272056   6.051   1.418   0.614  0.5342 -0.0608  0.6370
16881TIP3   OH272057   2.175   5.790   3.470 -0.4074 -0.7424 -0.5152
16881TIP3    H172058   2.171   5.804   3.565 -0.5560 -0.1171 -0.6116
16881TIP3    H272059   2.091   5.823   3.437  0.2841  0.5337 -1.0475
16882TIP3   OH272060   4.610   4.750   4.330 -0.2228 -0.9348 -0.3161
16882TIP3    H172061   4.541   4.787   4.384 -0.0918 -2.6699  1.1099
16882TIP3    H272062   4.691   4.778   4.373  0.0332  0.7969 -1.7841
16883TIP3   OH272063   4.422   0.625  17.182 -0.2890  0.2052  0.0148
16883TIP3    H172064   4.494   0.688  17.183  2.1199 -2.3576  1.2474
16883TIP3    H272065   4.363   0.655  17.251  1.0728  0.8715  0.9405
16884TIP3   OH272066   2.124   3.245   3.990  0.1173  0.1161  0.0388
16884TIP3    H172067   2.031   3.224   3.999 -0.1224  0.5991 -1.1547
16884TIP3    H272068   2.169   3.168   4.024 -0.7223 -1.1441 -1.5372
16885TIP3   OH272069   5.214   5.897   0.456 -0.3661 -0.0230 -0.0415
16885TIP3    H172070   5.284   5.851   0.503 -0.4134  0.7471  0.7977
16885TIP3    H272071   5.233   5.880   0.363  0.8703  0.0862  0.1703
16886TIP3   OH272072   0.664   1.451   4.772  0.3234 -0.1425  0.3232
16886TIP3    H172073   0.719   1.499   4.834  0.1202 -1.2840  1.4222
16886TIP3    H272074   0.629   1.377   4.822 -2.8071  0.8916 -0.1002
16887TIP3   OH272075   6.565   3.109  13.669  0.4499  0.0289  0.2207
16887TIP3    H172076   6.659   3.093  13.679  0.6907  1.7965  1.2214
16887TIP3    H272077   6.537   3.142  13.755 -1.0779 -0.4050 -0.0784
16888TIP3   OH272078   4.939   0.974   0.238  0.0964  0.1624  0.1312
16888TIP3    H172079   4.862   0.989   0.183 -1.3917 -0.7539  1.8727
16888TIP3    H272080   4.949   1.055   0.288  0.5924  0.4628 -0.4357
16889TIP3   OH272081   0.774   4.234   4.631 -0.5652  0.1185  0.4385
16889TIP3    H172082   0.742   4.185   4.707 -0.9700 -1.2863 -0.5960
16889TIP3    H272083   0.868   4.220   4.632 -0.7193 -1.1813 -0.1236
16890TIP3   OH272084   2.097   3.022  12.897  0.2924 -0.0554 -0.0743
16890TIP3    H172085   2.181   3.008  12.854  0.5877  1.9891 -0.2830
16890TIP3    H272086   2.032   3.002  12.829  0.6240 -0.7065 -0.2100
16891TIP3   OH272087   5.561   4.720  11.047  0.2090  0.4215  0.1134
16891TIP3    H172088   5.514   4.723  10.964  0.5925  0.8120 -0.0901
16891TIP3    H272089   5.639   4.773  11.033  1.4534 -1.3672 -0.0121
16892TIP3   OH272090   5.713   2.935   5.682  0.7504  0.2799  0.2164
16892TIP3    H172091   5.782   2.869   5.674  0.3338 -0.0128 -1.1593
16892TIP3    H272092   5.632   2.887   5.670  0.4843  1.1742 -2.1634
16893TIP3   OH272093   3.124   4.760   5.357  0.2723 -0.0237  0.0854
16893TIP3    H172094   3.219   4.770   5.349  0.0234  2.0230 -1.1876
16893TIP3    H272095   3.096   4.840   5.403 -0.9340 -0.1158 -0.4624
16894TIP3   OH272096   0.009   0.489  15.611  0.3465 -0.1319  0.2913
16894TIP3    H172097  -0.033   0.410  15.576  1.9566 -0.6701 -0.5630
16894TIP3    H272098  -0.063   0.545  15.638 -0.9284 -0.7449 -1.6489
16895TIP3   OH272099   4.788   5.458   1.049 -0.1437 -0.2358 -0.0115
16895TIP3    H172100   4.785   5.537   0.995  0.9481  0.9108  1.5387
16895TIP3    H272101   4.879   5.428   1.043 -0.1486 -0.4153  0.7353
16896TIP3   OH272102   3.452   6.218  15.163 -0.0033 -0.4686 -0.1389
16896TIP3    H172103   3.425   6.161  15.236 -0.6966  0.0619  0.0327
16896TIP3    H272104   3.436   6.165  15.085 -0.1548 -0.7012  0.0472
16897TIP3   OH272105   5.575   6.247   2.907 -0.0485  1.3549  0.1991
16897TIP3    H172106   5.650   6.294   2.945  0.2993  0.5493  0.5467
16897TIP3    H272107   5.566   6.284   2.820  1.0323  1.1878 -0.0033
16898TIP3   OH272108   3.084   4.680   4.729 -0.1209 -0.5339 -0.4251
16898TIP3    H172109   3.086   4.611   4.794 -1.0932  0.9885  1.3022
16898TIP3    H272110   3.089   4.634   4.645 -2.8584 -2.8640  0.5307
16899TIP3   OH272111   0.480   2.716  14.983  0.2978 -0.0699  0.0380
16899TIP3    H172112   0.408   2.656  15.002 -0.3337  0.9439  1.0025
16899TIP3    H272113   0.453   2.762  14.903  0.5133 -0.6350 -0.3674
16900TIP3   OH272114   4.452   3.557  12.405 -0.0896  0.1049  0.0336
16900TIP3    H172115   4.501   3.616  12.462  0.3999 -1.1317  0.9220
16900TIP3    H272116   4.415   3.491  12.464 -1.4326  0.0511 -0.8207
16901TIP3   OH272117   0.184   0.854  13.616  0.4543  0.5839 -0.2223
16901TIP3    H172118   0.191   0.928  13.555  1.6413 -0.5710 -1.5725
16901TIP3    H272119   0.090   0.841  13.627  0.1782  0.6392 -2.1123
16902TIP3   OH272120   4.914   0.567  11.959 -0.3433  0.5551  0.0332
16902TIP3    H172121   4.901   0.599  11.870 -0.4099 -0.3064 -0.2769
16902TIP3    H272122   4.978   0.627  11.998  1.8918 -0.7027 -1.5130
16903TIP3   OH272123   1.270   5.604   5.694 -0.1295 -0.0039 -0.1336
16903TIP3    H172124   1.349   5.621   5.746 -0.1145 -2.1646  0.6394
16903TIP3    H272125   1.304   5.581   5.607  0.1326 -1.0466  0.2297
16904TIP3   OH272126   2.337   3.087  16.030 -0.1749  0.0950  0.3988
16904TIP3    H172127   2.243   3.090  16.012 -0.1985 -1.0095  0.2400
16904TIP3    H272128   2.342   3.069  16.124 -0.0887  1.7772  0.7468
16905TIP3   OH272129   0.892   5.688  15.720  0.2884  0.3671 -0.0423
16905TIP3    H172130   0.972   5.637  15.733  1.5131  2.1341 -0.2186
16905TIP3    H272131   0.821   5.625  15.732  1.6876 -1.2179  0.3491
16906TIP3   OH272132   1.270   0.643  12.323  0.4167  0.0360  0.0178
16906TIP3    H172133   1.232   0.691  12.249  1.2386  0.5713 -0.0783
16906TIP3    H272134   1.292   0.557  12.288 -3.4897 -1.5065  0.8318
16907TIP3   OH272135   5.459   2.547  15.158 -0.4159  0.0032 -0.0792
16907TIP3    H172136   5.462   2.476  15.222  0.7881  0.1203  0.0145
16907TIP3    H272137   5.487   2.624  15.206  2.0434 -0.1765 -1.0439
16908TIP3   OH272138   1.444   1.787  16.247  0.9013 -0.4434 -0.4019
16908TIP3    H172139   1.525   1.824  16.211  1.2624  1.0442  1.7213
16908TIP3    H272140   1.474   1.726  16.315  0.2852  0.3312  0.5903
16909TIP3   OH272141   5.559   2.383   5.741 -0.3554  0.2506 -0.0455
16909TIP3    H172142   5.478   2.423   5.773 -0.5554  0.9700 -1.3405
16909TIP3    H272143   5.629   2.425   5.791 -0.6605  1.2058 -0.4034
16910TIP3   OH272144   0.811   2.705   0.842  0.4933  0.0327 -0.0659
16910TIP3    H172145   0.898   2.685   0.809  0.3799 -0.3298 -0.1519
16910TIP3    H272146   0.776   2.770   0.781  1.3499  1.4930  0.9347
16911TIP3   OH272147   0.628   0.976   2.935  0.0844  0.2953 -0.0489
16911TIP3    H172148   0.591   1.064   2.933 -1.1202 -0.2002 -0.6782
16911TIP3    H272149   0.610   0.944   3.023  1.2969  0.9585  0.4785
16912TIP3   OH272150   1.757   2.999   4.939  0.1899 -0.6030  0.4021
16912TIP3    H172151   1.735   3.064   4.872 -0.7860 -2.9585 -1.7423
16912TIP3    H272152   1.850   3.012   4.956  0.0952  1.0925 -0.2079
16913TIP3   OH272153   6.695   5.977   4.312 -0.0204 -0.1792 -0.4785
16913TIP3    H172154   6.748   6.026   4.375  1.1659 -1.6046 -0.3201
16913TIP3    H272155   6.694   5.888   4.345  1.1392 -1.1119 -2.7482
16914TIP3   OH272156   6.681   4.426  15.610 -0.0921  0.2471  0.0070
16914TIP3    H172157   6.716   4.514  15.621  2.7949 -0.8921  1.0010
16914TIP3    H272158   6.727   4.391  15.534  0.2542 -1.0131  0.7559
16915TIP3   OH272159   3.268   4.608  12.273  0.1099  0.0855 -0.3423
16915TIP3    H172160   3.351   4.649  12.248 -1.0541  1.1512 -2.7234
16915TIP3    H272161   3.222   4.677  12.322  0.1522 -0.1104 -0.0242
16916TIP3   OH272162   2.108   0.637  15.401  0.1991  0.1813  0.4157
16916TIP3    H172163   2.044   0.680  15.459 -1.2938  1.6681 -2.1506
16916TIP3    H272164   2.177   0.609  15.460 -1.4993  1.0069  3.0072
16917TIP3   OH272165   5.595   5.462   0.472 -0.3626 -0.8601 -0.0834
16917TIP3    H172166   5.683   5.480   0.507 -0.2823 -1.4256  0.0088
16917TIP3    H272167   5.536   5.482   0.545 -0.1951 -2.0375  0.3920
16918TIP3   OH272168   3.820   0.412  16.556  0.4870 -0.3885 -0.0309
16918TIP3    H172169   3.793   0.345  16.494  1.8377 -1.1968  0.2072
16918TIP3    H272170   3.861   0.480  16.502  0.8755 -0.6820 -0.1117
16919TIP3   OH272171   2.329   3.435   3.473 -0.6296 -1.0480  0.2217
16919TIP3    H172172   2.258   3.491   3.442  0.8791  0.6400 -0.3309
16919TIP3    H272173   2.350   3.468   3.560  1.3091  0.3671 -0.7115
16920TIP3   OH272174   2.081   2.332   4.416  0.2260 -0.2224  0.4548
16920TIP3    H172175   2.021   2.398   4.381 -0.0420 -1.8830 -2.4775
16920TIP3    H272176   2.071   2.340   4.511 -2.5792  1.4030  0.1586
16921TIP3   OH272177   1.911   6.558  16.246  0.1592 -0.2192 -0.0679
16921TIP3    H172178   1.895   6.498  16.320 -0.8359 -0.7158 -0.6612
16921TIP3    H272179   1.899   6.504  16.168 -0.0542  0.5873 -0.6089
16922TIP3   OH272180   3.986   3.095  16.969 -0.3311  0.5176 -0.6976
16922TIP3    H172181   4.037   3.036  17.024  0.3802  0.7092 -1.1371
16922TIP3    H272182   3.900   3.100  17.011 -0.6034 -1.2696 -0.9426
16923TIP3   OH272183   3.476   1.483  16.277  0.0457  0.1558  0.8989
16923TIP3    H172184   3.473   1.543  16.351 -0.9651  2.9860 -1.2642
16923TIP3    H272185   3.385   1.473  16.250  0.5449  2.0898 -1.9810
16924TIP3   OH272186   3.972   6.291  14.620  0.4476 -0.0488 -0.7542
16924TIP3    H172187   4.023   6.247  14.553  0.6625  0.0703 -0.6685
16924TIP3    H272188   4.013   6.265  14.702  0.0006 -0.4385 -0.6450
16925TIP3   OH272189   0.949   1.822  12.178 -0.3855  0.7809  0.4840
16925TIP3    H172190   0.962   1.728  12.164 -2.8040  0.8444 -3.5876
16925TIP3    H272191   1.036   1.855  12.200  1.1003 -2.0198 -0.6617
16926TIP3   OH272192   0.133   5.025  15.620  0.0813 -0.1428  0.3689
16926TIP3    H172193   0.048   5.018  15.663 -0.5159  0.8597 -0.5766
16926TIP3    H272194   0.113   5.018  15.526  1.3419 -2.3493  0.1752
16927TIP3   OH272195   2.992   0.471  15.199  0.0886 -0.6338  0.3720
16927TIP3    H172196   2.974   0.379  15.179 -0.0895 -0.7221  0.9219
16927TIP3    H272197   2.970   0.480  15.292  0.6620 -0.1743  0.4671
16928TIP3   OH272198   0.604   4.519   5.983  0.1155  0.0624  0.1714
16928TIP3    H172199   0.642   4.435   5.958  0.0725  0.2140 -0.4332
16928TIP3    H272200   0.529   4.530   5.924  0.5175  0.8302 -0.2144
16929TIP3   OH272201   2.350   4.299  14.743  0.0067 -0.3849 -0.2655
16929TIP3    H172202   2.370   4.324  14.653  0.5373  0.7805  0.1643
16929TIP3    H272203   2.399   4.217  14.755  1.6406  0.5189 -0.4022
16930TIP3   OH272204   2.800   2.889  15.242  0.5167  0.1968 -0.7338
16930TIP3    H172205   2.727   2.931  15.197 -0.0784  0.2426  0.2512
16930TIP3    H272206   2.872   2.951  15.234  0.1688  0.5864 -0.8730
16931TIP3   OH272207   1.881   5.658  13.413  0.2626 -0.1897  0.1208
16931TIP3    H172208   1.827   5.586  13.381  0.5035 -0.6202  0.6741
16931TIP3    H272209   1.855   5.733  13.359 -0.4951 -0.5195  0.0144
16932TIP3   OH272210   4.553   2.911   5.761 -0.9552 -0.5099 -0.2384
16932TIP3    H172211   4.598   2.827   5.753  0.1301  0.1272 -1.0400
16932TIP3    H272212   4.536   2.920   5.855  2.4190  0.1400  0.4115
16933TIP3   OH272213   1.969   6.527   4.144 -0.1417 -0.7082 -0.0374
16933TIP3    H172214   2.041   6.555   4.200 -0.0685 -2.1166  0.5977
16933TIP3    H272215   1.979   6.432   4.136 -2.2524 -1.0280  0.5280
16934TIP3   OH272216   1.505   1.772   2.047 -0.0233  0.1375 -0.3361
16934TIP3    H172217   1.505   1.689   2.000  0.5619  0.1085 -0.2946
16934TIP3    H272218   1.443   1.827   2.000  0.6536  0.1594 -1.2379
16935TIP3   OH272219   1.958   5.125   0.339  0.3828 -0.3776  0.3924
16935TIP3    H172220   2.054   5.132   0.337  0.4115 -0.9630 -0.5928
16935TIP3    H272221   1.930   5.202   0.389  1.4849 -1.5353  2.9482
16936TIP3   OH272222   2.938   5.125  11.966 -0.3296 -0.2907  0.2273
16936TIP3    H172223   2.886   5.079  11.900 -0.6760  0.4412 -0.0239
16936TIP3    H272224   2.985   5.192  11.917  1.3504 -1.3202  0.3560
16937TIP3   OH272225   0.899   0.622   2.202 -1.2891 -0.8523  0.1019
16937TIP3    H172226   0.902   0.533   2.166 -0.1824 -0.9766  0.4655
16937TIP3    H272227   0.987   0.656   2.190 -1.5095 -0.0630  0.6392
16938TIP3   OH272228   5.688   0.822   0.771  0.4814 -0.4549  0.4066
16938TIP3    H172229   5.600   0.829   0.810 -0.3412 -0.5812 -1.3425
16938TIP3    H272230   5.737   0.769   0.834 -0.6687 -0.3550  1.4477
16939TIP3   OH272231   5.750   5.417  11.753  0.3495 -0.3389 -0.1280
16939TIP3    H172232   5.741   5.368  11.835 -1.5311 -1.1018 -0.7263
16939TIP3    H272233   5.724   5.506  11.776  2.5243  0.1322  0.6808
16940TIP3   OH272234   6.587   3.148   1.631 -0.3330  0.1889  0.7425
16940TIP3    H172235   6.505   3.154   1.679 -1.8277 -0.0329 -1.6116
16940TIP3    H272236   6.566   3.096   1.554  2.3392 -0.8588  0.6179
16941TIP3   OH272237   6.520   0.504   3.255  0.1379  0.1086  0.5727
16941TIP3    H172238   6.588   0.513   3.189  0.3913 -1.8358  0.5326
16941TIP3    H272239   6.472   0.587   3.251  0.9872  0.5556 -1.0901
16942TIP3   OH272240   5.384   3.298  16.840  0.1006  0.3902 -0.2567
16942TIP3    H172241   5.315   3.258  16.892 -0.6721  0.2078 -1.3784
16942TIP3    H272242   5.417   3.226  16.785  0.0034  0.8542 -0.9343
16943TIP3   OH272243   3.325   3.096   1.300  0.5907 -0.0148 -0.0400
16943TIP3    H172244   3.343   3.178   1.347  0.1159 -1.0982  2.1781
16943TIP3    H272245   3.409   3.073   1.259  2.0657 -0.6268  3.0115
16944TIP3   OH272246   1.338   5.991   3.271 -0.5673  0.3583 -0.1776
16944TIP3    H172247   1.267   5.948   3.319 -1.6712 -0.5957 -2.5131
16944TIP3    H272248   1.413   5.932   3.281 -0.8111  0.1254  0.2858
16945TIP3   OH272249   0.690   0.558  11.810  0.1432  0.5992 -0.0759
16945TIP3    H172250   0.636   0.499  11.756  0.2820  0.8852 -0.5304
16945TIP3    H272251   0.661   0.541  11.900 -1.5132  1.5485 -0.3817
16946TIP3   OH272252   0.249   3.085   6.381  0.1122  0.5861  0.1832
16946TIP3    H172253   0.235   3.172   6.342 -1.5174  0.3998  0.2892
16946TIP3    H272254   0.334   3.057   6.346 -0.2982  1.3422 -1.5307
16947TIP3   OH272255   2.223   6.387  15.805 -0.0911  0.3767 -0.1317
16947TIP3    H172256   2.260   6.317  15.859  1.4431  1.1271 -0.1520
16947TIP3    H272257   2.204   6.346  15.720  0.0378 -0.1853  0.1145
16948TIP3   OH272258   6.130   3.925   1.771 -0.1019  0.3407 -0.2856
16948TIP3    H172259   6.096   3.866   1.838  1.0914 -0.0088  0.0436
16948TIP3    H272260   6.092   3.893   1.689 -2.0489  1.1390  0.2635
16949TIP3   OH272261   3.260   5.474   1.526  0.4453 -0.5439 -0.4056
16949TIP3    H172262   3.285   5.538   1.459 -1.5682 -0.1969 -0.9048
16949TIP3    H272263   3.339   5.463   1.579  1.2415  1.3940 -1.0702
16950TIP3   OH272264   5.517   5.756  15.626 -0.4999 -0.6502  0.0621
16950TIP3    H172265   5.543   5.740  15.717 -2.8705  0.7994  1.0966
16950TIP3    H272266   5.586   5.716  15.574  1.0917 -1.2855  2.4941
16951TIP3   OH272267   4.083   0.002   0.801  0.0013 -0.1685  0.1155
16951TIP3    H172268   4.148   0.062   0.765 -1.1549  2.0734  1.5367
16951TIP3    H272269   4.000   0.048   0.790 -0.6242 -0.0483  3.8906
16952TIP3   OH272270   0.132   3.555  14.241 -0.1117 -0.1796  0.3679
16952TIP3    H172271   0.069   3.582  14.308 -0.2866  0.0932  0.0924
16952TIP3    H272272   0.120   3.460  14.235 -0.6462 -0.1018  0.1651
16953TIP3   OH272273   0.519   3.630  11.987  0.3729 -0.7108 -0.6835
16953TIP3    H172274   0.425   3.632  12.005  0.3507 -1.1261 -0.7487
16953TIP3    H272275   0.530   3.557  11.926  1.3045 -3.4827  2.5616
16954TIP3   OH272276   0.373   1.643   0.112 -0.3579  0.2263  0.3485
16954TIP3    H172277   0.461   1.615   0.087  0.0705  1.1567  0.7885
16954TIP3    H272278   0.319   1.621   0.036  0.3215  0.0270 -0.0862
16955TIP3   OH272279   5.073   6.784  16.304 -0.3250  0.1971 -0.9760
16955TIP3    H172280   5.040   6.773  16.393 -2.1422  2.5975 -1.2668
16955TIP3    H272281   5.037   6.710  16.255  0.9895 -1.3566  0.2659
16956TIP3   OH272282   1.661   5.823  13.315 -0.4907  0.7137 -0.1922
16956TIP3    H172283   1.650   5.854  13.225  0.5472 -0.3913 -0.7331
16956TIP3    H272284   1.572   5.813  13.348 -1.1356 -2.5597 -2.4312
16957TIP3   OH272285   1.522   3.843   6.315  0.3947  0.1521 -0.1462
16957TIP3    H172286   1.511   3.874   6.405 -0.0568  0.2494 -0.2315
16957TIP3    H272287   1.462   3.768   6.309 -0.8156  1.1424 -0.8470
16958TIP3   OH272288   3.678   0.899  13.928  0.1558  0.5367  1.1834
16958TIP3    H172289   3.698   0.974  13.872  3.7451  0.0437  1.6032
16958TIP3    H272290   3.713   0.823  13.881  2.5430 -0.0026  3.5670
16959TIP3   OH272291   0.717   6.730   5.601  0.5623 -0.2885  0.5154
16959TIP3    H172292   0.753   6.801   5.547 -0.1177 -0.4025 -0.0977
16959TIP3    H272293   0.775   6.656   5.585  0.4262 -0.2901  0.0144
16960TIP3   OH272294   6.018   2.139   2.439 -0.0331 -0.3599  0.7446
16960TIP3    H172295   6.023   2.220   2.490  1.8890 -0.4016  0.6646
16960TIP3    H272296   6.065   2.074   2.491  0.2491 -0.9038 -0.1658
16961TIP3   OH272297   6.739   4.974  11.843 -0.6178  0.0191  0.2213
16961TIP3    H172298   6.714   4.918  11.916  0.4067  2.3004  2.5197
16961TIP3    H272299   6.834   4.983  11.852 -0.6184  1.2211 -0.6997
16962TIP3   OH272300   1.276   2.298  12.885  0.1102  0.1940  0.5144
16962TIP3    H172301   1.228   2.251  12.817 -0.6554  0.7893  0.6262
16962TIP3    H272302   1.243   2.263  12.967  1.2908 -0.7768  0.6059
16963TIP3   OH272303   4.987   6.574   1.916 -0.3404 -0.2791 -0.2234
16963TIP3    H172304   4.925   6.647   1.909 -0.0309 -0.0114 -0.1634
16963TIP3    H272305   5.022   6.564   1.828  0.8623  0.7400  0.1157
16964TIP3   OH272306   1.564   5.734  12.833  0.1553  0.7855 -0.0493
16964TIP3    H172307   1.639   5.712  12.778  0.1106 -1.5468  0.7255
16964TIP3    H272308   1.491   5.743  12.771  0.2530 -1.0830 -0.5059
16965TIP3   OH272309   3.558   6.664   1.318  0.4549  0.0753 -0.2749
16965TIP3    H172310   3.528   6.754   1.310 -0.1544 -0.0012  0.9314
16965TIP3    H272311   3.614   6.664   1.396 -2.2709 -1.2101  1.8710
16966TIP3   OH272312   4.675   2.744   2.889 -0.0464  0.3138  0.4398
16966TIP3    H172313   4.763   2.780   2.904  0.0091  0.6385 -0.5520
16966TIP3    H272314   4.627   2.761   2.970  0.9432 -0.3050  1.1781
16967TIP3   OH272315   0.398   4.961   2.747  0.6930  0.5141  0.4402
16967TIP3    H172316   0.397   5.016   2.825 -0.1001 -0.7025  1.3244
16967TIP3    H272317   0.489   4.931   2.739  0.6942  0.3015  1.1686
16968TIP3   OH272318   3.316   2.586   1.688 -0.1691  0.0421 -0.5205
16968TIP3    H172319   3.401   2.600   1.730 -1.0821  1.0317  1.1075
16968TIP3    H272320   3.253   2.595   1.760 -1.7459  0.7095 -1.9457
16969TIP3   OH272321   2.507   0.849   1.845 -0.0108  0.0113 -0.9012
16969TIP3    H172322   2.457   0.868   1.924  1.3516  0.4290 -0.1062
16969TIP3    H272323   2.533   0.935   1.811  1.6933 -0.1988 -0.2553
16970TIP3   OH272324   0.742   0.361   2.431  0.2054 -0.3467  0.2976
16970TIP3    H172325   0.738   0.454   2.451 -0.8308 -0.9801  3.5912
16970TIP3    H272326   0.832   0.336   2.450 -0.1449 -0.4488  1.9503
16971TIP3   OH272327   6.059   6.749   1.622  0.5509 -0.0567 -0.4942
16971TIP3    H172328   6.052   6.839   1.590  0.7780  0.1978  0.1415
16971TIP3    H272329   6.140   6.716   1.585  2.9362  1.5413  2.7875
16972TIP3   OH272330   2.169   1.069  11.729  0.1392  0.1871 -0.0805
16972TIP3    H172331   2.171   1.015  11.649  0.8989  2.5157 -1.7217
16972TIP3    H272332   2.243   1.037  11.781 -0.9824 -2.0645  0.2731
16973TIP3   OH272333   1.193   2.720  15.655  0.2485 -0.4342 -0.0677
16973TIP3    H172334   1.181   2.632  15.620  0.9353 -1.0283  1.1190
16973TIP3    H272335   1.157   2.778  15.588  0.7717 -1.5491 -1.3574
16974TIP3   OH272336   1.868   6.023  14.609  0.0297 -0.3113  0.2874
16974TIP3    H172337   1.809   6.091  14.643  0.2517  0.1393 -0.2221
16974TIP3    H272338   1.956   6.055  14.630  0.1276 -0.5237  0.1964
16975TIP3   OH272339   4.210   3.603   3.844  0.7703 -0.0539  0.3312
16975TIP3    H172340   4.284   3.549   3.873  1.9742  0.4059 -1.7196
16975TIP3    H272341   4.135   3.544   3.849  1.7638 -1.4321 -0.2539
16976TIP3   OH272342   4.641   2.624  13.666  0.2849  0.0660 -0.6391
16976TIP3    H172343   4.622   2.582  13.582  1.2735 -0.2902 -0.6976
16976TIP3    H272344   4.571   2.689  13.677 -0.3862 -0.5285 -1.2853
16977TIP3   OH272345   0.323   3.794  16.949 -0.1310 -0.1830 -0.0238
16977TIP3    H172346   0.387   3.728  16.976  0.1991  1.0979  2.6078
16977TIP3    H272347   0.239   3.748  16.950  0.2399 -0.8643  0.5677
16978TIP3   OH272348   0.821   0.073  16.573  0.0047 -0.3917  0.5821
16978TIP3    H172349   0.844  -0.018  16.550  1.1025 -0.0157  0.1071
16978TIP3    H272350   0.904   0.121  16.566 -0.7039  0.8032  0.0718
16979TIP3   OH272351   5.860   3.003   3.857  0.1478 -0.2285  0.1337
16979TIP3    H172352   5.938   3.001   3.913 -0.4868  0.9251  1.1055
16979TIP3    H272353   5.871   3.080   3.802 -0.6742  0.4538  0.8828
16980TIP3   OH272354   6.637   3.579  17.138  0.0231 -0.1249 -0.4775
16980TIP3    H172355   6.638   3.489  17.105  1.8881 -0.3359  0.0414
16980TIP3    H272356   6.639   3.569  17.233  0.1618  0.4450 -0.4214
16981TIP3   OH272357   0.673   1.506  12.211  0.5258 -0.5158  0.4914
16981TIP3    H172358   0.755   1.509  12.162  0.1042  0.5324 -0.1939
16981TIP3    H272359   0.698   1.479  12.299  1.5912 -0.3027  0.2599
16982TIP3   OH272360   5.363   4.701   1.130 -0.7104  0.2033 -0.4481
16982TIP3    H172361   5.345   4.612   1.100 -0.5290 -0.4629  1.3262
16982TIP3    H272362   5.387   4.691   1.222 -0.8382  2.1130 -0.1726
16983TIP3   OH272363   1.824   1.877   5.405 -0.4413  0.5258 -0.2923
16983TIP3    H172364   1.846   1.855   5.314 -3.9419  1.8309 -1.6522
16983TIP3    H272365   1.784   1.964   5.399 -0.8829  0.5965  2.5147
16984TIP3   OH272366   0.226   4.665   5.311 -0.0999  0.2297  0.2307
16984TIP3    H172367   0.264   4.584   5.278 -0.0660  0.1224  0.5279
16984TIP3    H272368   0.197   4.644   5.399 -0.6142  0.3865  0.1020
16985TIP3   OH272369   1.550   5.554   3.342  0.3246  0.7021  0.1347
16985TIP3    H172370   1.549   5.573   3.436  0.0443  0.9704  0.0763
16985TIP3    H272371   1.529   5.460   3.338 -0.0446  0.7733  0.3197
16986TIP3   OH272372   3.787   4.106   3.235  0.7900  0.7824 -0.2774
16986TIP3    H172373   3.792   4.179   3.173 -0.6717  1.0595 -0.0952
16986TIP3    H272374   3.788   4.028   3.180 -1.9530  1.0455 -0.8302
16987TIP3   OH272375   3.145   1.202   5.641 -0.8714  0.2944  0.0661
16987TIP3    H172376   3.174   1.255   5.714 -0.0713 -0.6794  0.4812
16987TIP3    H272377   3.131   1.264   5.569  3.1669  0.8254 -0.4978
16988TIP3   OH272378   4.785   5.694   1.328  0.0730 -0.2083 -0.3312
16988TIP3    H172379   4.720   5.701   1.258 -0.1619 -2.2246 -0.3799
16988TIP3    H272380   4.737   5.708   1.409 -0.1522 -0.2891 -0.4512
16989TIP3   OH272381   4.786   6.146  14.856 -0.2673 -0.0567 -0.0595
16989TIP3    H172382   4.743   6.087  14.793 -1.1669  0.2656  0.2396
16989TIP3    H272383   4.877   6.149  14.826 -0.4375 -0.7580 -0.7106
16990TIP3   OH272384   1.088   1.752  17.222 -0.4784 -0.0817 -0.3153
16990TIP3    H172385   1.018   1.753  17.156  0.1812  0.3806 -1.0276
16990TIP3    H272386   1.153   1.692  17.185 -0.2449 -0.0635  0.0687
16991TIP3   OH272387   1.843   0.927   4.077  0.3157 -0.0815 -0.5064
16991TIP3    H172388   1.768   0.873   4.052  0.6950  0.0868 -2.0941
16991TIP3    H272389   1.810   0.980   4.151 -0.6724 -1.0066 -0.2507
16992TIP3   OH272390   1.298   4.121   3.746 -0.3743 -0.0012 -0.0638
16992TIP3    H172391   1.378   4.070   3.735 -0.8808 -1.2921  1.7973
16992TIP3    H272392   1.300   4.184   3.674  2.4533  0.2158  0.0833
16993TIP3   OH272393   1.850   2.120   4.086  0.2533  0.3240 -0.2161
16993TIP3    H172394   1.830   2.196   4.140 -1.3900 -2.1634  3.0470
16993TIP3    H272395   1.793   2.128   4.010 -0.9483  1.6296  0.7778
16994TIP3   OH272396   5.186   2.533  17.190  0.6408 -0.4857  0.5522
16994TIP3    H172397   5.135   2.585  17.252 -1.0300 -2.4614  0.9415
16994TIP3    H272398   5.173   2.578  17.106  0.9626  0.8715  1.2076
16995TIP3   OH272399   2.338   4.731  13.833 -0.0974 -0.0511 -0.6764
16995TIP3    H172400   2.293   4.799  13.783  0.1760  1.4707  1.0839
16995TIP3    H272401   2.273   4.699  13.895  0.3365 -0.0510 -0.2152
16996TIP3   OH272402   6.538   2.319  11.831  0.7376  0.3119  0.6109
16996TIP3    H172403   6.472   2.353  11.891  0.6566 -1.8678  1.8787
16996TIP3    H272404   6.533   2.376  11.755 -2.9066  0.0382  0.4670
16997TIP3   OH272405   1.134   0.219   3.398 -0.0019 -0.4259 -0.2526
16997TIP3    H172406   1.164   0.134   3.365  0.9434 -0.0259 -0.4522
16997TIP3    H272407   1.042   0.205   3.419 -0.1676 -1.1781 -1.4003
16998TIP3   OH272408   2.755   3.857   2.287 -0.0449 -0.3623  0.1656
16998TIP3    H172409   2.790   3.770   2.306 -1.1852 -0.9350 -0.2375
16998TIP3    H272410   2.699   3.844   2.211  2.4913  1.3838 -2.2075
16999TIP3   OH272411   0.520   3.739  13.348  0.2029 -0.1349 -0.2002
16999TIP3    H172412   0.443   3.761  13.401 -0.1817 -0.8931 -0.4258
16999TIP3    H272413   0.593   3.784  13.391 -0.3892  0.7457 -0.0876
17000TIP3   OH272414   0.355   4.084   0.210 -0.5080 -0.1528  0.1510
17000TIP3    H172415   0.382   4.168   0.246 -2.5886  0.5616  0.2102
17000TIP3    H272416   0.359   4.096   0.115  3.3906 -1.5058 -0.0524
17001TIP3   OH272417   2.212   1.155   6.453  0.4266  0.6026  0.3751
17001TIP3    H172418   2.236   1.075   6.406 -1.9160  0.6122 -0.9734
17001TIP3    H272419   2.286   1.214   6.439  0.2166  0.2965 -2.6709
17002TIP3   OH272420   4.657   0.852  13.545  0.1610  0.4752 -0.2619
17002TIP3    H172421   4.691   0.783  13.488 -1.6396 -1.0132  0.3854
17002TIP3    H272422   4.661   0.815  13.633 -0.0071  1.5497  0.2199
17003TIP3   OH272423   6.233   2.071  16.507 -0.2855 -0.0688  0.0612
17003TIP3    H172424   6.265   2.124  16.433  2.1844 -0.3162  0.8776
17003TIP3    H272425   6.266   2.116  16.584 -1.4632 -0.7180  0.9726
17004TIP3   OH272426   6.252   1.707   5.369  0.5702 -0.6079  0.5100
17004TIP3    H172427   6.253   1.720   5.464  0.5410  0.3762  0.3832
17004TIP3    H272428   6.298   1.783   5.333  0.4666 -0.9027 -0.2721
17005TIP3   OH272429   4.604   0.620  12.313  0.1761  0.2418 -0.1255
17005TIP3    H172430   4.525   0.643  12.264  0.5813  2.9099  0.2953
17005TIP3    H272431   4.578   0.627  12.405  0.7505  0.6429  0.0123
17006TIP3   OH272432   0.760   5.930   1.834  0.0810  0.0039  0.5633
17006TIP3    H172433   0.845   5.971   1.849 -0.5755  1.6136  0.0783
17006TIP3    H272434   0.764   5.899   1.744  0.4142 -0.5844  0.7795
17007TIP3   OH272435   3.134   5.228  13.569 -0.3275  0.3474 -0.9134
17007TIP3    H172436   3.223   5.228  13.603 -0.9631  0.5245  0.8115
17007TIP3    H272437   3.137   5.166  13.496  0.2714 -2.8872  1.6434
17008TIP3   OH272438   6.208   5.170   0.281 -0.2364 -0.1497 -0.0746
17008TIP3    H172439   6.258   5.202   0.206  1.5503 -1.4686  0.4779
17008TIP3    H272440   6.130   5.129   0.242  0.6945 -0.8829 -1.2468
17009TIP3   OH272441   4.630   2.928   6.802 -0.4288  0.6749 -0.4460
17009TIP3    H172442   4.657   2.836   6.803 -2.0501  0.1407 -1.5333
17009TIP3    H272443   4.550   2.930   6.855 -0.2063  1.5294 -0.1338
17010TIP3   OH272444   5.967   2.266   4.612 -0.1395 -0.1229  0.5190
17010TIP3    H172445   5.916   2.330   4.562  1.4343  0.7136 -0.1085
17010TIP3    H272446   5.961   2.185   4.561  1.0283  0.5894 -0.8377
17011TIP3   OH272447   4.755   2.135   1.784  0.1462  0.0006  0.0393
17011TIP3    H172448   4.760   2.194   1.859  1.0706 -0.7143  0.5678
17011TIP3    H272449   4.778   2.188   1.708  0.1205  0.5052  0.3847
17012TIP3   OH272450   5.168   3.890   0.937 -0.1621  0.0392  0.0713
17012TIP3    H172451   5.198   3.813   0.889  2.3651  1.0024 -0.0335
17012TIP3    H272452   5.100   3.929   0.881  0.3264 -0.7280 -1.0784
17013TIP3   OH272453   3.564   0.168   0.622  0.1447 -0.2639 -0.4109
17013TIP3    H172454   3.510   0.091   0.640  0.6833 -0.4052  0.6855
17013TIP3    H272455   3.559   0.220   0.702 -1.5699  1.7140 -1.6819
17014TIP3   OH272456   0.925   1.135   3.832 -0.4497  0.0687 -0.9371
17014TIP3    H172457   0.935   1.057   3.886  2.3008  0.6319 -0.5087
17014TIP3    H272458   0.890   1.103   3.749 -0.6992 -1.4013 -0.2860
17015TIP3   OH272459   0.570   4.243   4.987  0.3158  0.3120  0.1227
17015TIP3    H172460   0.550   4.277   5.074  1.8503  1.0057  0.2446
17015TIP3    H272461   0.572   4.148   4.997 -2.8655  0.1374  0.0454
17016TIP3   OH272462   0.040   6.063   0.008  0.7269 -0.0114  0.4997
17016TIP3    H172463   0.068   6.115   0.084  1.0902 -0.8105  0.9261
17016TIP3    H272464   0.090   6.099  -0.065 -2.5374  3.5263 -0.2980
17017TIP3   OH272465   4.801   1.809  13.945  0.0233  0.1421 -0.1613
17017TIP3    H172466   4.776   1.888  13.994 -0.2796 -0.8399  1.3555
17017TIP3    H272467   4.892   1.793  13.972  0.4070  0.4898 -1.2118
17018TIP3   OH272468   3.824   4.091   2.255  0.7031  0.3834  0.1432
17018TIP3    H172469   3.909   4.064   2.290  0.7708  0.7504  0.2733
17018TIP3    H272470   3.807   4.176   2.297 -0.4078 -0.3478  1.2410
17019TIP3   OH272471   3.308   2.862   5.005  0.2255  0.2916  0.7739
17019TIP3    H172472   3.277   2.916   5.078 -2.2114 -0.3505  0.3258
17019TIP3    H272473   3.233   2.858   4.946  0.9938 -1.9472 -0.1527
17020TIP3   OH272474   1.756   0.452   1.359 -0.4487 -0.2850  0.4157
17020TIP3    H172475   1.836   0.460   1.307 -0.7092 -0.6662 -0.0481
17020TIP3    H272476   1.759   0.363   1.394 -0.4301 -0.1352  0.7963
17021TIP3   OH272477   3.268   6.059  11.747  0.2971 -0.0584 -0.4062
17021TIP3    H172478   3.225   6.060  11.833  0.1998 -0.5971 -0.4417
17021TIP3    H272479   3.261   5.968  11.719  0.3541  0.1122 -0.9733
17022TIP3   OH272480   3.590   2.764   3.181 -0.1719  0.4188 -0.1456
17022TIP3    H172481   3.536   2.817   3.121 -0.1505  0.5440 -0.0540
17022TIP3    H272482   3.615   2.825   3.250  2.0036  0.9932 -1.3345
17023TIP3   OH272483   0.934   5.942   2.113 -0.1684 -0.6585 -0.8059
17023TIP3    H172484   0.949   5.848   2.097 -1.3652 -0.7383 -1.5681
17023TIP3    H272485   0.983   5.986   2.043 -1.0068 -0.7938 -1.4879
17024TIP3   OH272486   5.613   2.571  12.995  0.3521 -0.4421  0.3014
17024TIP3    H172487   5.669   2.510  12.947 -0.9616 -2.2135  0.9456
17024TIP3    H272488   5.628   2.656  12.952  2.0805 -1.2250 -0.7368
17025TIP3   OH272489   2.178   6.398   2.552 -0.8613  0.0535 -0.0143
17025TIP3    H172490   2.267   6.413   2.520 -0.7478  0.2156  0.3733
17025TIP3    H272491   2.147   6.484   2.578 -1.8500  0.3513 -1.9401
17026TIP3   OH272492   4.449   5.507  12.147 -0.0896  0.1930 -0.1016
17026TIP3    H172493   4.499   5.444  12.095  1.0483  1.1753 -0.2545
17026TIP3    H272494   4.397   5.454  12.207  1.0131 -0.8912 -0.0675
17027TIP3   OH272495   3.491   3.054   0.259  0.3862  0.4211 -0.1407
17027TIP3    H172496   3.521   2.982   0.314 -0.1630 -0.5640 -1.0971
17027TIP3    H272497   3.445   3.113   0.319  0.2618 -0.3596  0.5399
17028TIP3   OH272498   2.876   2.583   1.573  0.5906  0.7298  0.6123
17028TIP3    H172499   2.912   2.518   1.513  1.5955  1.0086  0.8824
17028TIP3    H272500   2.922   2.664   1.550 -0.6237  1.3465  0.2997
17029TIP3   OH272501   0.307   4.291   4.522 -0.3804  0.5438  0.2425
17029TIP3    H172502   0.276   4.203   4.542 -1.9345  0.6183 -1.5658
17029TIP3    H272503   0.315   4.293   4.426  0.5131  2.0810  0.3104
17030TIP3   OH272504   4.183   5.172   1.960  0.0823 -0.1422  0.6591
17030TIP3    H172505   4.129   5.238   2.004 -0.5664 -0.9595  1.1179
17030TIP3    H272506   4.185   5.098   2.020  0.5873 -0.6497  0.0413
17031TIP3   OH272507   0.418   2.570  11.906 -0.4213  0.3682 -0.7842
17031TIP3    H172508   0.414   2.582  11.811 -0.2980 -2.4981 -1.2481
17031TIP3    H272509   0.384   2.481  11.920  2.9437 -0.7446  1.4423
17032TIP3   OH272510   0.212   1.710   1.256  0.3908  0.0444  0.4314
17032TIP3    H172511   0.203   1.695   1.161 -1.5854  0.4434  0.5190
17032TIP3    H272512   0.287   1.656   1.281 -0.2670 -1.6656 -1.0293
17033TIP3   OH272513   3.553   3.184   1.129 -0.2393  0.7024 -0.5776
17033TIP3    H172514   3.554   3.259   1.190 -1.5804  0.8595 -0.7217
17033TIP3    H272515   3.543   3.224   1.043 -2.0232  0.3427 -0.5705
17034TIP3   OH272516   1.510   0.952   1.349 -0.0326 -0.1841 -1.1756
17034TIP3    H172517   1.581   0.989   1.402 -0.6185  1.1848 -1.2917
17034TIP3    H272518   1.510   0.859   1.370 -0.2294  0.2922  1.2592
17035TIP3   OH272519   2.051   6.673   4.757 -0.4876  0.2789 -0.5030
17035TIP3    H172520   2.139   6.689   4.724 -1.0115  2.0827 -1.1552
17035TIP3    H272521   1.993   6.699   4.685 -1.5821  1.3503  0.7094
17036TIP3   OH272522   3.580   5.081   5.134 -0.4093  0.2110 -0.0493
17036TIP3    H172523   3.624   5.040   5.059 -0.3516  0.2197 -0.0202
17036TIP3    H272524   3.623   5.166   5.143 -1.7000  1.0312 -1.2101
17037TIP3   OH272525   0.056   1.590  13.826  0.0035  0.4813 -0.1840
17037TIP3    H172526   0.049   1.678  13.863  1.6036  0.1514  1.0282
17037TIP3    H272527  -0.014   1.541  13.869 -0.6483  1.0592 -0.5713
17038TIP3   OH272528   4.972   1.055   6.166  0.4328  0.2812 -0.0461
17038TIP3    H172529   4.952   1.064   6.073  1.4861 -1.3491 -0.4860
17038TIP3    H272530   4.891   1.024   6.205  0.3141 -0.2244 -0.6673
17039TIP3   OH272531   5.648   1.467   5.707  0.0550  0.9980 -0.5574
17039TIP3    H172532   5.557   1.438   5.704  0.8814 -1.8823 -1.8971
17039TIP3    H272533   5.674   1.471   5.614  1.2025  2.1967 -0.2142
17040TIP3   OH272534   3.679   6.043   4.849  0.2647 -0.0136 -0.1357
17040TIP3    H172535   3.626   5.984   4.795 -0.8791  0.5795  0.3150
17040TIP3    H272536   3.741   6.083   4.788  0.5232 -1.0633 -0.5898
17041TIP3   OH272537   2.865   5.424  12.688 -0.3048 -0.2498 -0.0546
17041TIP3    H172538   2.847   5.336  12.721  1.1849 -0.2315  0.9050
17041TIP3    H272539   2.781   5.469  12.692 -0.7815 -1.1829  0.8712
17042TIP3   OH272540   4.571   6.496   5.518  0.1847  0.4182 -0.2784
17042TIP3    H172541   4.526   6.566   5.564 -0.5702 -0.2160 -0.0281
17042TIP3    H272542   4.606   6.537   5.439  0.7911  1.3356  0.4447
17043TIP3   OH272543   4.494   3.215   5.975  0.6542 -0.2922  0.2208
17043TIP3    H172544   4.482   3.219   6.070 -1.5667 -2.4358  0.1322
17043TIP3    H272545   4.537   3.131   5.960  2.0824  0.5560 -0.6362
17044TIP3   OH272546   0.270   2.541  13.340  0.3669 -0.5553  0.2712
17044TIP3    H172547   0.199   2.598  13.309  0.1227 -0.8582  0.2697
17044TIP3    H272548   0.348   2.597  13.338 -0.1067  0.1881  1.5391
17045TIP3   OH272549   2.038   6.161   2.494  0.3628  0.5291 -0.0617
17045TIP3    H172550   2.078   6.120   2.571 -1.7076  2.2507  2.0855
17045TIP3    H272551   2.061   6.253   2.502  1.9922  0.4729 -2.8665
17046TIP3   OH272552   3.554   6.232  10.814 -0.0817 -0.3179  0.0362
17046TIP3    H172553   3.469   6.256  10.851  0.7222  2.0893  0.5305
17046TIP3    H272554   3.542   6.238  10.719 -0.7692 -1.2839  0.0507
17047TIP3   OH272555   2.658   4.652   3.300 -0.1345 -0.3437  0.2222
17047TIP3    H172556   2.752   4.642   3.283 -0.3922 -0.9102 -0.9855
17047TIP3    H272557   2.629   4.717   3.236 -0.2543  1.2033  1.7899
17048TIP3   OH272558   2.898   2.416  12.548 -0.1876 -0.3971 -1.0128
17048TIP3    H172559   2.888   2.501  12.590  1.3069  0.3966 -2.1534
17048TIP3    H272560   2.809   2.392  12.521 -0.7138  0.5175 -0.1494
17049TIP3   OH272561   2.930   6.752   4.913  0.6715 -0.0077  0.2280
17049TIP3    H172562   2.837   6.740   4.896  0.6188 -0.7278  0.9383
17049TIP3    H272563   2.952   6.836   4.875  0.2803 -0.9237 -2.1596
17050TIP3   OH272564   0.185   1.891   5.033  0.1389 -0.1570 -0.3866
17050TIP3    H172565   0.263   1.946   5.022  0.1002 -0.2088 -0.9447
17050TIP3    H272566   0.217   1.812   5.077 -0.1870  1.2333  2.5621
17051TIP3   OH272567   4.074   0.925  13.703  0.5618 -0.4718 -0.2147
17051TIP3    H172568   4.011   0.991  13.732  1.3059  0.0535  0.2621
17051TIP3    H272569   4.087   0.944  13.610  1.2864  0.5240  0.0695
17052TIP3   OH272570   5.037   2.670  13.524 -0.1911  0.8823  0.0483
17052TIP3    H172571   5.105   2.725  13.484 -0.3858  1.4668  0.4974
17052TIP3    H272572   5.075   2.583  13.527  0.6920  1.2629  0.6019
17053TIP3   OH272573   1.570   4.993  15.916  0.2189  0.0905  0.0585
17053TIP3    H172574   1.603   4.949  15.837  0.0684  1.6886 -0.9425
17053TIP3    H272575   1.496   4.939  15.944  0.4701 -0.6834 -0.6930
17054TIP3   OH272576   2.041   4.079   0.697  0.7293 -0.1157 -0.1426
17054TIP3    H172577   2.036   4.146   0.628  1.1073 -0.5794 -0.6373
17054TIP3    H272578   2.094   4.119   0.765 -1.9076  1.4186  1.1641
17055TIP3   OH272579   5.033   4.525  15.389 -0.4846  0.5325  0.2678
17055TIP3    H172580   5.079   4.443  15.370 -0.5469  0.2750  1.2016
17055TIP3    H272581   5.034   4.572  15.305  0.7101  0.1551  0.0432
17056TIP3   OH272582   0.630   5.724  12.472  0.0958 -0.6097  0.6157
17056TIP3    H172583   0.587   5.660  12.416  0.4077 -0.1721 -0.1496
17056TIP3    H272584   0.695   5.766  12.414  0.8783 -0.6027  1.4804
17057TIP3   OH272585   1.868   5.419  11.915  0.3227  0.3260  0.4464
17057TIP3    H172586   1.931   5.387  11.851 -1.7195 -0.1395 -1.4688
17057TIP3    H272587   1.823   5.340  11.945  0.0459  0.7269  1.1024
17058TIP3   OH272588   5.882   2.135  14.768 -0.0967  0.1525  0.1999
17058TIP3    H172589   5.909   2.168  14.854  2.8324 -0.1674 -0.4778
17058TIP3    H272590   5.805   2.187  14.745  1.0686  2.6537  1.5429
17059TIP3   OH272591   4.343   2.628  14.828  1.1425 -0.6759  0.4777
17059TIP3    H172592   4.364   2.535  14.824 -0.3210 -0.9902 -0.9304
17059TIP3    H272593   4.427   2.673  14.822  1.6698 -1.8781 -2.0367
17060TIP3   OH272594   0.392   0.335   1.556 -0.5798 -0.2218  0.1107
17060TIP3    H172595   0.432   0.381   1.630 -0.2237 -0.6685  0.2010
17060TIP3    H272596   0.321   0.392   1.527  0.4166  0.8206 -0.3421
17061TIP3   OH272597   0.991   1.693   1.004 -0.1288  0.4829  0.7588
17061TIP3    H172598   1.052   1.671   1.075  2.5949  1.5111 -1.0979
17061TIP3    H272599   0.963   1.608   0.970 -0.8772 -0.0133  2.4997
17062TIP3   OH272600   4.667   1.648  11.981  0.2522  0.0388  0.1213
17062TIP3    H172601   4.704   1.612  11.900  0.0327 -0.3760  0.2027
17062TIP3    H272602   4.743   1.660  12.038  0.4070  0.3261 -0.1444
17063TIP3   OH272603   3.150   3.730  12.021 -0.2379 -0.4563 -0.0600
17063TIP3    H172604   3.237   3.765  12.004 -0.2720 -0.6098 -0.5789
17063TIP3    H272605   3.119   3.700  11.935 -1.2690  0.6694 -0.1173
17064TIP3   OH272606   3.488   2.869   4.338 -0.3594  0.7998  0.0412
17064TIP3    H172607   3.509   2.832   4.252  0.3421 -3.5503  1.8273
17064TIP3    H272608   3.392   2.870   4.340 -0.4271 -1.6448  0.0925
17065TIP3   OH272609   5.932   6.378   4.282 -0.0614 -0.3606  0.6654
17065TIP3    H172610   5.845   6.351   4.311 -0.3764  0.4348  0.5024
17065TIP3    H272611   5.938   6.470   4.308 -0.1146  0.2121 -1.1670
17066TIP3   OH272612   5.083   4.316  12.398  0.3607  0.1518  0.2508
17066TIP3    H172613   5.092   4.224  12.373 -0.7888  0.3391 -0.9305
17066TIP3    H272614   5.163   4.357  12.365  1.0889 -0.4757  1.1720
17067TIP3   OH272615   4.995   2.596   2.129  0.3212 -0.2462 -0.3883
17067TIP3    H172616   5.073   2.619   2.078 -0.2733  0.3321 -1.0641
17067TIP3    H272617   4.991   2.500   2.125  0.1439 -0.2043 -1.6770
17068TIP3   OH272618   2.400   5.056   4.619  0.0150 -0.6593  0.6222
17068TIP3    H172619   2.492   5.042   4.644  0.4781  0.6635 -0.2451
17068TIP3    H272620   2.404   5.068   4.524 -0.7758  1.5063  0.8247
17069TIP3   OH272621   4.186   1.857   2.679 -0.3683  0.0422  0.0906
17069TIP3    H172622   4.275   1.837   2.649 -0.7943 -0.4303 -0.9234
17069TIP3    H272623   4.197   1.924   2.746  0.7384  0.1371 -0.1769
17070TIP3   OH272624   2.106   5.210  14.821 -0.8167  0.2326 -0.3478
17070TIP3    H172625   2.112   5.136  14.881 -1.2821  0.5455  0.0997
17070TIP3    H272626   2.136   5.176  14.737 -3.4617 -1.2183 -0.8264
17071TIP3   OH272627   3.442   4.678   5.471 -0.1594 -0.2581  0.1404
17071TIP3    H172628   3.395   4.680   5.554  1.1631  2.2672  0.9305
17071TIP3    H272629   3.508   4.747   5.479 -2.3175  2.8651 -4.3628
17072TIP3   OH272630   0.528   4.886  14.441 -0.4698 -0.6757 -0.7115
17072TIP3    H172631   0.503   4.971  14.405  0.0758 -0.2707 -0.1514
17072TIP3    H272632   0.591   4.906  14.510 -0.9859 -1.4813  0.0155
17073TIP3   OH272633   0.571   1.943   3.883  0.7492 -0.0111  0.7573
17073TIP3    H172634   0.481   1.921   3.857  0.5442  0.8552  0.6985
17073TIP3    H272635   0.570   1.942   3.978  0.7222 -0.1713  0.7558
17074TIP3   OH272636   3.572   4.428   5.481  0.8349 -0.6842 -0.0656
17074TIP3    H172637   3.502   4.492   5.493  1.3317 -0.2947  0.8176
17074TIP3    H272638   3.638   4.451   5.546  2.4641 -0.1343 -1.8017
17075TIP3   OH272639   2.247   1.407  12.165 -0.1409  0.3806  0.0339
17075TIP3    H172640   2.183   1.402  12.094 -0.8252 -0.1912  0.6658
17075TIP3    H272641   2.206   1.465  12.229  0.3650  0.7030  0.0693
17076TIP3   OH272642   5.963   4.287  13.810  0.4194 -0.1878 -0.0381
17076TIP3    H172643   5.870   4.299  13.829  0.5030  0.7037 -0.1629
17076TIP3    H272644   5.978   4.193  13.821 -0.6451 -0.4480 -0.7029
17077TIP3   OH272645   6.631   5.895   6.036  0.3191 -0.4491  0.1095
17077TIP3    H172646   6.567   5.836   6.075  0.5574 -0.1439  1.0147
17077TIP3    H272647   6.706   5.839   6.015 -0.0448 -0.7208 -0.4854
17078TIP3   OH272648   5.253   0.891  11.472  0.1874 -0.1650 -0.0311
17078TIP3    H172649   5.233   0.845  11.391  0.3211 -2.0717  0.9797
17078TIP3    H272650   5.190   0.964  11.474 -0.3106 -0.5201 -1.4605
17079TIP3   OH272651   4.359   4.463  15.526 -0.2487 -0.5495 -0.6509
17079TIP3    H172652   4.393   4.386  15.572 -2.0087 -1.7144 -1.1993
17079TIP3    H272653   4.437   4.511  15.498  0.9791  0.1719  3.3234
17080TIP3   OH272654   5.209   5.868   5.416 -0.2389 -0.7652 -0.2766
17080TIP3    H172655   5.129   5.880   5.466 -0.8271  0.2771 -1.4129
17080TIP3    H272656   5.279   5.899   5.475 -1.1174  2.6118 -0.7976
17081TIP3   OH272657   5.327   0.667  14.235 -0.0996 -0.2512  0.6686
17081TIP3    H172658   5.310   0.639  14.325 -1.5941 -2.7165 -0.2906
17081TIP3    H272659   5.347   0.586  14.189  0.6425  0.9694 -1.2507
17082TIP3   OH272660   3.500   6.608   2.089 -0.2358  0.3953 -0.1658
17082TIP3    H172661   3.498   6.541   2.020  0.8605  0.2717 -0.0924
17082TIP3    H272662   3.503   6.559   2.171  2.0453  0.4591 -0.1429
17083TIP3   OH272663   1.889   6.072  15.569 -0.1089  0.0997  0.0972
17083TIP3    H172664   1.981   6.066  15.543 -0.3288 -0.9440 -0.4970
17083TIP3    H272665   1.843   6.016  15.506 -1.0224 -0.1709  0.9907
17084TIP3   OH272666   1.095   1.029  12.923 -0.2257 -0.1372  0.6963
17084TIP3    H172667   1.175   1.078  12.901 -0.3539  0.2983  1.1850
17084TIP3    H272668   1.127   0.950  12.966  0.1062 -1.6399 -2.0947
17085TIP3   OH272669   6.023   0.451  12.162  0.0419  0.5775  0.1119
17085TIP3    H172670   6.019   0.531  12.214 -0.0008 -0.4006  1.6863
17085TIP3    H272671   5.936   0.413  12.170 -0.6405  1.4206 -2.4517
17086TIP3   OH272672   1.021   6.447   2.793  0.6474  0.4095 -0.2308
17086TIP3    H172673   1.074   6.499   2.732  1.8075 -0.5001 -0.0498
17086TIP3    H272674   0.957   6.508   2.828  2.7610  2.0865  0.9416
17087TIP3   OH272675   5.609   1.107  16.529  0.0834  0.0345 -0.4617
17087TIP3    H172676   5.654   1.041  16.582 -1.0129  0.7385  1.4354
17087TIP3    H272677   5.641   1.092  16.440  1.9683 -1.2300  0.3628
17088TIP3   OH272678   6.167   2.699  15.735  0.1024 -0.0927 -0.1338
17088TIP3    H172679   6.113   2.745  15.671  1.3257 -0.8140 -1.7346
17088TIP3    H272680   6.208   2.769  15.787 -1.3671  0.4768  0.2930
17089TIP3   OH272681   1.343   0.278   4.277  0.0277 -0.1467  0.2894
17089TIP3    H172682   1.309   0.191   4.295 -1.3721  0.4458  0.6660
17089TIP3    H272683   1.372   0.275   4.186 -1.8050 -0.4823 -0.3191
17090TIP3   OH272684   3.587   5.826   2.623 -0.0492 -0.0389  0.5454
17090TIP3    H172685   3.537   5.755   2.584 -0.5348 -0.7164  2.3122
17090TIP3    H272686   3.582   5.897   2.558  0.6978 -1.6542 -1.3783
17091TIP3   OH272687   3.868   6.233   5.020  0.1243 -0.0730  0.8037
17091TIP3    H172688   3.960   6.254   5.033  0.1299  1.6276 -1.3029
17091TIP3    H272689   3.868   6.162   4.955 -0.0215  0.5784  0.0710
17092TIP3   OH272690   3.740   0.868  16.453  0.2850 -0.3488 -0.7625
17092TIP3    H172691   3.660   0.836  16.495 -0.4889  2.1186 -0.1426
17092TIP3    H272692   3.782   0.790  16.418 -1.7691 -1.8803 -0.0340
17093TIP3   OH272693   6.722   5.282   3.844  0.8185 -0.3391 -0.3634
17093TIP3    H172694   6.741   5.215   3.779 -0.4912 -1.5212  0.4152
17093TIP3    H272695   6.723   5.236   3.928 -1.5232  0.2640  0.0737
17094TIP3   OH272696   5.080   2.048   5.967  0.1271 -0.1359 -0.1236
17094TIP3    H172697   5.033   1.973   5.932 -0.2301 -0.2760  0.6343
17094TIP3    H272698   5.074   2.114   5.898  1.3383 -1.1292 -1.2291
17095TIP3   OH272699   4.571   3.695  14.834 -0.1295 -0.7755 -0.1661
17095TIP3    H172700   4.548   3.759  14.901  1.0907  0.0872 -0.5339
17095TIP3    H272701   4.488   3.667  14.798 -0.7672 -0.5992  1.0940
17096TIP3   OH272702   5.166   1.365   6.618 -0.1340 -0.3873  0.0518
17096TIP3    H172703   5.106   1.298   6.585 -1.4216  0.7850 -0.0430
17096TIP3    H272704   5.212   1.395   6.539  3.1418 -3.5771  0.4723
17097TIP3   OH272705   3.043   6.381  15.162  0.1665  0.1250  0.0416
17097TIP3    H172706   3.113   6.365  15.098  1.5727  1.6267  1.1187
17097TIP3    H272707   3.055   6.472  15.188 -0.2143 -0.4659  2.5634
17098TIP3   OH272708   3.482   1.904   6.358 -0.0473 -0.1006  0.0948
17098TIP3    H172709   3.434   1.928   6.438  1.2440  0.8468  0.6207
17098TIP3    H272710   3.542   1.977   6.343  0.3446 -0.6644 -1.2626
17099TIP3   OH272711   6.175   5.979   5.543  0.5436 -0.2500 -0.5574
17099TIP3    H172712   6.175   5.963   5.638 -2.8896 -0.0563 -0.4151
17099TIP3    H272713   6.192   6.073   5.534 -1.6114  0.2571  0.1110
17100TIP3   OH272714   0.286   4.305  11.635  0.1687  0.2459 -0.1653
17100TIP3    H172715   0.259   4.338  11.549 -0.5926  0.4956  0.1614
17100TIP3    H272716   0.330   4.380  11.676  0.3504  0.1887 -0.2532
17101TIP3   OH272717   5.429   4.907  16.467 -0.5173  0.0046 -0.1091
17101TIP3    H172718   5.410   4.991  16.426  0.7846  1.3513  1.9131
17101TIP3    H272719   5.426   4.924  16.561  2.5175 -1.5037  0.3635
17102TIP3   OH272720   3.795   3.813  16.447 -0.1630  0.4963 -0.3510
17102TIP3    H172721   3.789   3.907  16.434  0.4615  0.2430 -3.0206
17102TIP3    H272722   3.845   3.781  16.372  0.4391 -1.8736  0.9399
17103TIP3   OH272723   4.953   5.196  11.161  0.0171 -0.0349  0.0581
17103TIP3    H172724   4.914   5.269  11.114 -0.6717  0.4127  1.2646
17103TIP3    H272725   5.028   5.170  11.107  0.3607  1.6466 -0.3518
17104TIP3   OH272726   1.796   3.857   3.888  0.0913  0.0998  0.1062
17104TIP3    H172727   1.709   3.826   3.915  0.6143 -0.9773  0.6269
17104TIP3    H272728   1.830   3.787   3.832  0.5189  0.6408 -0.3251
17105TIP3   OH272729   2.548   0.657   3.166 -0.1857  0.1572 -0.4033
17105TIP3    H172730   2.630   0.634   3.123  0.1118 -0.8106  0.6430
17105TIP3    H272731   2.515   0.575   3.202 -0.9264  0.7593  0.3420
17106TIP3   OH272732   4.114   0.550  12.960  0.4008  0.5480  0.5047
17106TIP3    H172733   4.025   0.560  12.995  0.5928 -0.1872  1.2389
17106TIP3    H272734   4.145   0.468  12.998  2.0740  1.6941  1.7417
17107TIP3   OH272735   1.614   1.855  12.357  0.0599 -0.1167  0.6872
17107TIP3    H172736   1.529   1.832  12.394 -0.9067 -0.6892 -1.7140
17107TIP3    H272737   1.632   1.786  12.293  1.2622  1.1499 -0.4134
17108TIP3   OH272738   0.541   2.485   5.329 -0.1060 -0.1013 -0.2966
17108TIP3    H172739   0.620   2.539   5.338  1.1829 -2.0628  0.9747
17108TIP3    H272740   0.574   2.401   5.297 -1.9756 -0.3708 -1.6939
17109TIP3   OH272741   5.059   3.599   1.585  0.2320 -0.3235  0.1208
17109TIP3    H172742   5.042   3.513   1.624 -2.7245  0.0238 -0.2411
17109TIP3    H272743   5.029   3.592   1.495 -0.6195  1.2345  0.2475
17110TIP3   OH272744   0.639   0.468  14.005  0.6845 -0.0999 -0.1018
17110TIP3    H172745   0.688   0.440  14.083  0.8921 -1.0135 -0.5519
17110TIP3    H272746   0.552   0.489  14.038  1.0612  0.5187  0.5378
17111TIP3   OH272747   0.840   3.229  14.071  0.2992  0.1628  0.2201
17111TIP3    H172748   0.923   3.254  14.030 -0.1066  0.8521 -0.1941
17111TIP3    H272749   0.856   3.240  14.165  0.8291 -0.1980  0.1797
17112TIP3   OH272750   6.123   4.251  15.723  0.0576 -0.1905  0.1542
17112TIP3    H172751   6.147   4.173  15.773 -1.4667  0.3617  1.8596
17112TIP3    H272752   6.059   4.220  15.658 -0.2346 -0.4266  0.5540
17113TIP3   OH272753   1.956   4.488  14.253  0.3516 -0.0050  0.1518
17113TIP3    H172754   1.863   4.465  14.261  0.0350  1.4170  1.0543
17113TIP3    H272755   1.973   4.487  14.159 -0.9726  1.0173 -0.1313
17114TIP3   OH272756   4.467   0.466   4.462 -0.1596  0.3114  0.1705
17114TIP3    H172757   4.385   0.493   4.502 -0.0429  3.5400 -1.4884
17114TIP3    H272758   4.522   0.544   4.464  2.3080 -1.2956 -0.2370
17115TIP3   OH272759   3.148   0.963  14.766  0.8067 -0.1987  0.7050
17115TIP3    H172760   3.212   0.893  14.761  0.2723 -0.6142 -1.4068
17115TIP3    H272761   3.065   0.918  14.785  0.9630  0.2402  2.5586
17116TIP3   OH272762   4.964   4.476  12.873  0.3517  0.2415 -0.0103
17116TIP3    H172763   4.990   4.404  12.816 -0.4811  1.3448 -1.8755
17116TIP3    H272764   4.872   4.493  12.850  0.5516  1.9368  0.2939
17117TIP3   OH272765   5.976   4.009   5.147  0.1454  0.4897  0.0840
17117TIP3    H172766   5.941   3.938   5.092  0.4272 -0.2216  0.8001
17117TIP3    H272767   5.933   4.088   5.114  0.5821  0.1460 -1.4001
17118TIP3   OH272768   6.023   6.367  12.546 -0.1403  0.2339 -0.0302
17118TIP3    H172769   6.051   6.379  12.455 -2.0237  0.2331 -0.6509
17118TIP3    H272770   6.097   6.398  12.598  0.7830  0.7058 -1.5581
17119TIP3   OH272771   5.114   4.560   1.294  0.1682 -0.5793 -0.1665
17119TIP3    H172772   5.156   4.505   1.228 -0.5437  0.4617 -1.5324
17119TIP3    H272773   5.182   4.573   1.361  1.2835 -0.7736 -1.2240
17120TIP3   OH272774   0.473   6.285   4.313 -0.4458  0.0056  0.3095
17120TIP3    H172775   0.381   6.260   4.321 -0.1107 -1.7142 -0.6885
17120TIP3    H272776   0.498   6.257   4.225  1.0824  0.2686  0.6297
17121TIP3   OH272777   2.612   2.848   0.489  0.2490 -0.2255 -0.2439
17121TIP3    H172778   2.604   2.936   0.451 -0.4211 -0.9393 -1.8390
17121TIP3    H272779   2.532   2.802   0.461 -0.6638 -0.6404  2.6183
17122TIP3   OH272780   4.899   0.717   6.193 -0.0520 -0.5174  0.1559
17122TIP3    H172781   4.865   0.799   6.156  1.7592  0.1976 -0.0180
17122TIP3    H272782   4.888   0.653   6.122  1.6342  0.4004 -1.0001
17123TIP3   OH272783   6.037   3.978  13.928 -0.1725  0.3645  0.1795
17123TIP3    H172784   6.079   3.994  13.844 -1.6113 -2.0654 -1.0943
17123TIP3    H272785   6.107   3.943  13.983  0.2911 -0.1294 -0.7117
17124TIP3   OH272786   5.767   2.224  16.647 -0.2282 -0.0193  0.6527
17124TIP3    H172787   5.827   2.151  16.664  0.0443 -0.5349 -2.0004
17124TIP3    H272788   5.710   2.227  16.724  2.1733 -0.5113  2.5640
17125TIP3   OH272789   5.226   5.562  13.836  0.1508  0.2951 -0.0201
17125TIP3    H172790   5.202   5.470  13.840 -0.5533  0.4890  0.3518
17125TIP3    H272791   5.171   5.598  13.766  0.6654  0.3665 -0.3950
17126TIP3   OH272792   6.182   1.921  14.011 -0.5881 -0.1548  0.1896
17126TIP3    H172793   6.145   1.870  14.083  0.9537 -1.7924 -0.1213
17126TIP3    H272794   6.171   1.866  13.934 -0.8490  0.9293 -0.5675
17127TIP3   OH272795   0.159   2.550   1.430 -0.2037 -0.8727 -0.2958
17127TIP3    H172796   0.216   2.476   1.406 -0.5095 -1.5676  1.0242
17127TIP3    H272797   0.076   2.530   1.387 -0.7101 -2.0363  1.1585
17128TIP3   OH272798   0.445   6.060   5.462 -0.2830 -0.1010  0.2604
17128TIP3    H172799   0.434   5.966   5.450  0.6774 -0.1496 -0.4111
17128TIP3    H272800   0.523   6.068   5.518 -0.7892  0.2862  0.9274
17129TIP3   OH272801   2.785   2.076  12.868  0.2110 -0.4638  0.0089
17129TIP3    H172802   2.858   2.099  12.811  1.5074  1.0744  2.1150
17129TIP3    H272803   2.723   2.149  12.859  0.0673 -0.5922 -0.0317
17130TIP3   OH272804   4.283   2.519   1.145  0.1067 -0.0362  0.3366
17130TIP3    H172805   4.304   2.611   1.133  1.1276 -0.5688 -2.5312
17130TIP3    H272806   4.365   2.478   1.172  0.7024 -0.6597 -2.1736
17131TIP3   OH272807   3.012   2.608   4.797 -0.3580 -0.4617 -0.2342
17131TIP3    H172808   3.063   2.537   4.835  0.0011 -0.5829 -0.9311
17131TIP3    H272809   3.066   2.686   4.808  0.0566 -0.6146 -1.1020
17132TIP3   OH272810   5.627   1.030   4.480 -0.1863 -0.0943 -0.4486
17132TIP3    H172811   5.615   1.120   4.508 -0.0260 -0.3905  0.5914
17132TIP3    H272812   5.712   1.029   4.436  1.0993 -0.2709  1.9088
17133TIP3   OH272813   3.182   0.243  12.960 -0.1233  0.2951 -0.0348
17133TIP3    H172814   3.145   0.294  12.888 -0.2698 -2.0923 -1.7665
17133TIP3    H272815   3.266   0.211  12.926  0.5966  0.4812  1.4975
17134TIP3   OH272816   6.388   3.373   4.684 -0.0156 -0.2385  0.2300
17134TIP3    H172817   6.397   3.409   4.595  1.9321  1.3560  0.9996
17134TIP3    H272818   6.457   3.307   4.690 -0.4271 -0.6572  0.4400
17135TIP3   OH272819   0.972   2.685   2.644  0.3529 -0.3710  0.3501
17135TIP3    H172820   0.900   2.674   2.707  1.0467 -1.6458  0.9802
17135TIP3    H272821   0.994   2.595   2.618  2.0621 -0.0493  0.5892
17136TIP3   OH272822   0.958   0.179  15.498  0.1494 -0.6368  0.7030
17136TIP3    H172823   1.038   0.127  15.492  1.0692  0.7235  0.6325
17136TIP3    H272824   0.955   0.208  15.590  1.0774  1.2823  0.1828
17137TIP3   OH272825   3.146   2.407  14.732  0.2379 -0.1105 -0.8059
17137TIP3    H172826   3.078   2.374  14.791 -0.8230  1.3470 -1.1650
17137TIP3    H272827   3.126   2.367  14.647 -1.2737  1.6165 -1.3318
17138TIP3   OH272828   2.778   2.685   2.305  0.1773 -0.0258  0.0589
17138TIP3    H172829   2.736   2.608   2.267  2.7022 -1.2566 -0.4657
17138TIP3    H272830   2.721   2.711   2.377 -1.9273 -0.9474 -1.1807
17139TIP3   OH272831   1.016   0.318   3.094 -0.2285 -0.3675 -0.0748
17139TIP3    H172832   0.993   0.370   3.171 -0.3223 -0.7323  0.1466
17139TIP3    H272833   1.017   0.381   3.022 -1.8077 -0.3033 -0.0731
17140TIP3   OH272834   0.594   0.826  16.361  0.2274  0.3596  0.2976
17140TIP3    H172835   0.561   0.856  16.446  1.7352  1.0988  0.6474
17140TIP3    H272836   0.681   0.792  16.380 -0.2715 -1.5251 -0.6082
17141TIP3   OH272837   0.271   5.308   2.817  0.1993 -0.3391 -0.4843
17141TIP3    H172838   0.236   5.320   2.728 -1.6920 -1.8885 -0.0348
17141TIP3    H272839   0.364   5.292   2.804  0.6784  2.9113 -1.8589
17142TIP3   OH272840   5.304   1.161  16.855  0.6077 -0.3860  0.4291
17142TIP3    H172841   5.300   1.067  16.837 -2.1307 -0.2056 -0.4051
17142TIP3    H272842   5.240   1.174  16.925 -0.1750  1.0344 -0.5180
17143TIP3   OH272843   6.426   6.706   4.721  0.5636 -0.0781  0.1540
17143TIP3    H172844   6.337   6.739   4.735 -0.2700 -2.2025  0.1980
17143TIP3    H272845   6.432   6.692   4.627  0.8724  0.0890  0.1482
17144TIP3   OH272846   1.544   5.880  14.339  0.4110  0.2369  0.7452
17144TIP3    H172847   1.520   5.807  14.397 -0.6967 -0.9052 -1.0493
17144TIP3    H272848   1.591   5.838  14.267 -0.2828  1.2827 -0.3499
17145TIP3   OH272849   5.301   6.391  14.802  0.7937  0.1733 -0.0879
17145TIP3    H172850   5.348   6.434  14.730 -0.9372  0.0954 -1.3192
17145TIP3    H272851   5.217   6.436  14.806 -0.8105 -2.5313 -0.9443
17146TIP3   OH272852   2.105   1.724  15.774  0.0813 -0.2636  0.0123
17146TIP3    H172853   2.032   1.754  15.719  0.5901  0.3786 -0.3275
17146TIP3    H272854   2.183   1.745  15.723  0.6167  1.2112  1.3439
17147TIP3   OH272855   5.518   4.106   2.385 -0.3271 -0.6896 -0.4324
17147TIP3    H172856   5.455   4.045   2.423 -0.8173  0.4905  0.7213
17147TIP3    H272857   5.486   4.122   2.297 -0.4626 -1.6960 -0.5824
17148TIP3   OH272858   2.525   1.966  12.835  0.1947  0.6355  0.4007
17148TIP3    H172859   2.553   1.945  12.924 -0.2914 -1.3531  0.1341
17148TIP3    H272860   2.461   2.036  12.847 -0.4218 -0.1032  1.7015
17149TIP3   OH272861   0.830   3.515  11.766 -0.2216 -0.1565 -0.4869
17149TIP3    H172862   0.878   3.483  11.843  0.2489  1.2642 -0.1583
17149TIP3    H272863   0.739   3.489  11.781 -0.2442  0.5887  0.8584
17150TIP3   OH272864   3.972   1.991   5.823  0.1617  0.5539 -0.0886
17150TIP3    H172865   3.991   2.015   5.914 -0.2167  1.1263 -0.1554
17150TIP3    H272866   3.933   2.069   5.785 -1.6550 -0.3343 -0.1489
17151TIP3   OH272867   0.178   3.295  12.972  0.1385 -0.0590 -0.2425
17151TIP3    H172868   0.219   3.322  13.054  0.9472  0.5948 -0.8377
17151TIP3    H272869   0.189   3.371  12.914  0.2754 -0.7748 -1.1925
17152TIP3   OH272870   2.226   2.884  14.639 -0.0591  0.1131  0.9093
17152TIP3    H172871   2.160   2.889  14.570  0.5437  0.1671  0.3300
17152TIP3    H272872   2.189   2.822  14.702 -0.9636  0.6544  0.9345
17153TIP3   OH272873   1.196   4.888  13.385 -0.2916 -0.4543  0.2429
17153TIP3    H172874   1.157   4.810  13.424 -0.5352 -0.7602 -0.6032
17153TIP3    H272875   1.121   4.939  13.355 -0.1790  0.4654  1.4221
17154TIP3   OH272876   1.214   5.885  17.184  0.5312  0.2792 -0.2635
17154TIP3    H172877   1.168   5.946  17.242  1.1233  0.3597  0.1384
17154TIP3    H272878   1.273   5.837  17.241  0.8135  0.0537 -0.7326
17155TIP3   OH272879   2.983   3.959   0.067  0.0055 -0.2628 -0.2968
17155TIP3    H172880   2.974   4.046   0.107 -3.3806 -0.4240 -0.4112
17155TIP3    H272881   2.907   3.910   0.099 -1.1257 -1.4606 -4.1709
17156TIP3   OH272882   0.510   3.859  13.101  0.1617 -0.0798  0.1388
17156TIP3    H172883   0.584   3.811  13.137  0.9476  0.2187 -1.0113
17156TIP3    H272884   0.459   3.887  13.177  0.0922 -2.0435  0.8687
17157TIP3   OH272885   2.219   1.322   1.145 -0.2532  0.3241  0.0207
17157TIP3    H172886   2.143   1.380   1.141 -0.3058  0.2444 -0.1811
17157TIP3    H272887   2.237   1.312   1.238 -0.7942 -0.0464  0.0888
17158TIP3   OH272888   0.919   4.133   3.570  0.3424  0.0786  0.5332
17158TIP3    H172889   0.943   4.226   3.571 -2.0182  0.7352  0.9310
17158TIP3    H272890   0.858   4.124   3.643  2.1364 -2.2922  1.8659
17159TIP3   OH272891   6.633   0.733   1.171 -0.6493 -0.2189 -0.2266
17159TIP3    H172892   6.548   0.691   1.161 -0.9155  0.4485 -0.8706
17159TIP3    H272893   6.664   0.747   1.082  0.4922 -1.1290 -0.0064
17160TIP3   OH272894   2.539   0.028  12.346  0.1111 -0.0917  0.0356
17160TIP3    H172895   2.449   0.003  12.325  0.3098  0.9077 -2.3450
17160TIP3    H272896   2.588  -0.054  12.342 -0.4692 -0.4443  0.0005
17161TIP3   OH272897   6.203   2.817   1.934  0.3128  0.2931 -0.3372
17161TIP3    H172898   6.132   2.814   1.869  0.4049 -1.9536 -0.4001
17161TIP3    H272899   6.280   2.788   1.886  1.6876  3.8803 -0.6076
17162TIP3   OH272900   1.409   4.558  10.965 -0.1018 -0.2437 -0.6283
17162TIP3    H172901   1.348   4.613  10.916 -0.6001 -0.3494 -0.1436
17162TIP3    H272902   1.408   4.474  10.920 -0.6354 -0.3732 -0.3774
17163TIP3   OH272903   1.581   4.614  14.032  0.2257  0.0257 -0.2733
17163TIP3    H172904   1.575   4.659  13.948  1.0140 -0.0456 -0.3726
17163TIP3    H272905   1.490   4.609  14.063  0.0922  1.5148 -0.3507
17164TIP3   OH272906   6.307   1.015   4.622 -0.4038  0.2263 -0.5704
17164TIP3    H172907   6.274   0.928   4.602  0.2313  0.2570 -1.8245
17164TIP3    H272908   6.315   1.016   4.718 -1.6197 -0.6282 -0.4421
17165TIP3   OH272909   2.717   0.020   1.987 -0.4888 -0.0640 -0.2057
17165TIP3    H172910   2.744   0.064   1.906 -0.5585 -0.8240 -0.6554
17165TIP3    H272911   2.626  -0.007   1.970 -0.8551  0.6651  0.5190
17166TIP3   OH272912   1.203   5.022   5.514  0.2145  0.0175  0.1664
17166TIP3    H172913   1.275   4.959   5.519 -1.1253 -1.5509  0.6241
17166TIP3    H272914   1.238   5.095   5.464  1.8008 -1.1410 -0.4923
17167TIP3   OH272915   4.705   0.088  13.237  0.3515  0.0865 -0.2058
17167TIP3    H172916   4.612   0.108  13.226  0.6732  1.4924 -0.6613
17167TIP3    H272917   4.720   0.010  13.184 -0.5965 -0.2359 -0.0120
17168TIP3   OH272918   4.462   2.820  12.661 -0.2861  0.3071  0.1867
17168TIP3    H172919   4.446   2.876  12.585 -0.5675  1.7264  1.2487
17168TIP3    H272920   4.498   2.879  12.727 -0.9759 -0.6737  1.4853
17169TIP3   OH272921   1.526   1.480  10.862  0.0644 -0.3677 -0.1125
17169TIP3    H172922   1.526   1.455  10.770  0.6951 -1.3070  0.1359
17169TIP3    H272923   1.474   1.413  10.906  0.9803 -0.7481  0.4196
17170TIP3   OH272924   2.763   2.731   5.823  0.3690 -0.2589  0.9054
17170TIP3    H172925   2.848   2.699   5.792  0.2568 -0.8116  1.1512
17170TIP3    H272926   2.699   2.687   5.765  0.3154  1.8325 -0.7466
17171TIP3   OH272927   3.104   2.701   4.229  0.0491  0.3094 -0.2897
17171TIP3    H172928   3.010   2.686   4.219 -0.1383  0.8831  0.5415
17171TIP3    H272929   3.141   2.675   4.145 -0.9699  0.9995 -0.9768
17172TIP3   OH272930   0.604   6.388   0.126  0.3289 -0.7763 -0.7125
17172TIP3    H172931   0.627   6.297   0.145  0.4811 -0.7838 -0.9237
17172TIP3    H272932   0.609   6.394   0.030  0.9075 -0.3968 -0.6656
17173TIP3   OH272933   1.568   5.914  13.055 -0.1253 -0.3784  0.9700
17173TIP3    H172934   1.586   5.855  12.981 -1.1467 -0.5462  0.8344
17173TIP3    H272935   1.481   5.887  13.085  0.4867 -0.6543  2.5769
17174TIP3   OH272936   1.090   3.058  12.975  0.0063 -0.3911 -0.0883
17174TIP3    H172937   1.079   3.049  12.881  0.9403 -1.2138 -0.1264
17174TIP3    H272938   1.002   3.045  13.011 -0.6495  1.4058 -0.9167
17175TIP3   OH272939   4.888   4.094  13.713  0.4025  0.2063 -0.4793
17175TIP3    H172940   4.981   4.078  13.698  0.2441  0.0818 -1.3713
17175TIP3    H272941   4.880   4.101  13.808  0.9395 -2.0458 -0.2209
17176TIP3   OH272942   0.722   3.957  11.005  0.4738  0.1247  0.2981
17176TIP3    H172943   0.718   3.885  11.067 -2.0596 -0.8544 -0.8516
17176TIP3    H272944   0.637   4.000  11.013  1.1983  1.7737 -0.4482
17177TIP3   OH272945   0.380   4.546  15.992 -0.1276 -0.1768  0.5141
17177TIP3    H172946   0.413   4.490  15.921 -0.6607  0.0519  0.0849
17177TIP3    H272947   0.413   4.633  15.971 -0.0645 -0.1587  0.6911
17178TIP3   OH272948   1.861   3.642  11.947 -0.2369  0.4146  0.1927
17178TIP3    H172949   1.823   3.672  12.030 -0.9863 -0.7196  0.2695
17178TIP3    H272950   1.799   3.673  11.880 -0.2032  0.3715  0.1413
17179TIP3   OH272951   1.073   0.940   0.578  0.2706 -0.0592 -0.0996
17179TIP3    H172952   1.117   0.983   0.505  0.6940  0.6038  0.5317
17179TIP3    H272953   1.135   0.946   0.651  0.8188 -2.7197 -0.2400
17180TIP3   OH272954   3.788   5.620  15.470  0.0343 -0.3632  0.3779
17180TIP3    H172955   3.843   5.571  15.530  0.1619  0.8141  1.2463
17180TIP3    H272956   3.803   5.712  15.492 -0.9350  0.0423 -0.5508
17181TIP3   OH272957   0.814   0.545   3.585 -0.1921  0.3690  1.0468
17181TIP3    H172958   0.794   0.494   3.664  0.0346  0.6489  1.2879
17181TIP3    H272959   0.893   0.595   3.608  0.6088 -0.4835  0.2201
17182TIP3   OH272960   4.704   0.353   3.911 -0.2196  0.5829  0.7201
17182TIP3    H172961   4.793   0.374   3.883 -0.2011 -0.1479  0.2010
17182TIP3    H272962   4.711   0.267   3.951 -0.4408  1.1653  2.0378
17183TIP3   OH272963   1.450   4.014  15.067 -0.1776 -0.3839 -0.2651
17183TIP3    H172964   1.433   4.032  15.159  0.8496  1.5762 -0.4192
17183TIP3    H272965   1.543   4.029  15.056 -0.3736 -0.0988 -1.7349
17184TIP3   OH272966   2.222   3.602  13.220 -0.2026 -0.0214 -1.3365
17184TIP3    H172967   2.133   3.584  13.190 -1.4592  1.7286  0.9983
17184TIP3    H272968   2.226   3.564  13.308  0.7319  1.4883 -0.6842
17185TIP3   OH272969   1.386   0.297   1.374 -0.1742  0.4300 -0.6898
17185TIP3    H172970   1.309   0.320   1.426  0.6015 -0.1640  0.7833
17185TIP3    H272971   1.393   0.367   1.309 -1.5853  0.8141 -0.4589
17186TIP3   OH272972   6.295   3.112   3.867 -0.0360 -0.0566  0.1889
17186TIP3    H172973   6.285   3.100   3.772 -0.5301 -0.4070  0.2749
17186TIP3    H272974   6.205   3.108   3.901  0.1732 -0.3924  0.7189
17187TIP3   OH272975   5.541   3.278   0.092 -0.2597  0.3931  0.0125
17187TIP3    H172976   5.613   3.232   0.135 -0.9842  0.8556  1.8245
17187TIP3    H272977   5.551   3.257  -0.001  1.7275 -0.1921  0.3062
17188TIP3   OH272978   5.951   3.991   2.530  0.1031 -0.1927 -0.1300
17188TIP3    H172979   5.929   4.040   2.450  0.9963  0.5654  0.0805
17188TIP3    H272980   6.040   4.019   2.552 -0.4027  0.1872  1.5686
17189TIP3   OH272981   4.276   5.714   3.045 -0.1617  0.8976  0.2039
17189TIP3    H172982   4.219   5.665   2.986  0.0236  1.1076 -0.1521
17189TIP3    H272983   4.265   5.805   3.020  0.6237  0.9069 -0.1300
17190TIP3   OH272984   2.474   4.598   1.455 -0.1375  0.0125 -0.0553
17190TIP3    H172985   2.421   4.545   1.396 -0.3647  0.7172 -0.4931
17190TIP3    H272986   2.474   4.550   1.538  0.0599 -0.9037 -0.5827
17191TIP3   OH272987   0.370   4.334  14.975  0.3858  0.0992  0.4824
17191TIP3    H172988   0.384   4.299  14.887 -1.3489  1.3112 -0.3352
17191TIP3    H272989   0.285   4.301  15.001  0.3314  0.7554  1.1915
17192TIP3   OH272990   1.460   6.270  16.408  0.2535  0.0073  0.1256
17192TIP3    H172991   1.545   6.237  16.379  1.2117  0.4327  2.2783
17192TIP3    H272992   1.443   6.223  16.489 -1.2866  0.3994  0.0553
17193TIP3   OH272993   3.828   1.958   2.165 -0.8217  0.9449  0.9569
17193TIP3    H172994   3.847   1.866   2.179  1.0646  0.7981 -1.7864
17193TIP3    H272995   3.735   1.967   2.187 -0.6815 -1.2102  2.7743
17194TIP3   OH272996   3.366   2.898  11.055  0.0827  0.2355  0.0649
17194TIP3    H172997   3.417   2.945  11.121 -0.6371 -0.3181  1.0401
17194TIP3    H272998   3.406   2.811  11.050 -1.6103 -0.7231  1.9347
17195TIP3   OH272999   1.932   5.584  16.001  0.3636 -0.2312 -0.1542
17195TIP3    H173000   1.869   5.638  15.953 -0.5284 -0.9410  0.1861
17195TIP3    H273001   2.018   5.616  15.973 -0.0886 -1.3247 -3.0414
17196TIP3   OH273002   2.584   1.933  13.658 -0.3770 -0.1887  0.0844
17196TIP3    H173003   2.517   1.933  13.725 -1.7345 -0.5719 -1.2083
17196TIP3    H273004   2.550   1.875  13.590  0.3835  1.0820 -1.4555
17197TIP3   OH273005   1.686   1.551  16.616  0.1239 -0.1941 -0.0439
17197TIP3    H173006   1.596   1.573  16.638  0.1158 -0.4608  0.2054
17197TIP3    H273007   1.698   1.583  16.527 -1.1625 -2.7328 -1.2675
17198TIP3   OH273008   2.848   4.856   2.744  0.2541 -0.5324 -0.3310
17198TIP3    H173009   2.884   4.771   2.717 -0.8304 -0.4521 -2.2600
17198TIP3    H273010   2.922   4.903   2.782  1.1503 -1.9225 -0.2876
17199TIP3   OH273011   1.226   0.596   2.269  0.0837  0.0714 -0.5213
17199TIP3    H173012   1.253   0.686   2.286  0.2317  0.0129 -0.4444
17199TIP3    H273013   1.301   0.543   2.296 -0.5008 -0.1652  0.6736
17200TIP3   OH273014   5.764   5.140  15.211 -0.1598 -0.2102 -0.2491
17200TIP3    H173015   5.744   5.055  15.171  0.6846  0.7719 -2.9881
17200TIP3    H273016   5.679   5.173  15.239 -0.8934 -0.8009 -1.6619
17201TIP3   OH273017   6.571   4.329  13.553  0.0446  0.2288  0.7262
17201TIP3    H173018   6.637   4.268  13.518  0.6712  0.7392  0.9931
17201TIP3    H273019   6.494   4.275  13.568  0.0167 -0.1734 -0.6748
17202TIP3   OH273020   0.183   1.339  13.802 -0.0285 -0.1567  0.5809
17202TIP3    H173021   0.145   1.413  13.849 -0.5209  0.4927 -0.7918
17202TIP3    H273022   0.111   1.304  13.749  1.1072  0.8840 -1.8043
17203TIP3   OH273023   1.199   6.283   4.238  0.0702 -0.3275 -0.1166
17203TIP3    H173024   1.240   6.318   4.158 -1.3039  0.8828 -0.3436
17203TIP3    H273025   1.214   6.351   4.304 -1.9369  0.4035 -0.3460
17204TIP3   OH273026   2.563   3.667   5.016  0.3155 -0.0342  0.1459
17204TIP3    H173027   2.486   3.613   5.034  0.5523 -0.5029 -0.2197
17204TIP3    H273028   2.542   3.753   5.053 -0.8577  0.1817 -0.9644
17205TIP3   OH273029   3.450   0.854   5.255 -0.0710  0.3185  0.5322
17205TIP3    H173030   3.392   0.902   5.197 -0.1061  1.6884  1.6535
17205TIP3    H273031   3.411   0.864   5.342 -0.0075 -1.6603  0.8271
17206TIP3   OH273032   1.967   2.165  12.849  0.0726  0.1110  0.7239
17206TIP3    H173033   1.959   2.253  12.888 -0.2347 -0.1947  1.3671
17206TIP3    H273034   1.876   2.140  12.829  0.2239  0.2692 -0.2319
17207TIP3   OH273035   1.969   1.443   1.091  0.2206  0.2787  0.1100
17207TIP3    H173036   1.955   1.486   1.007 -0.0339  0.2777  0.1530
17207TIP3    H273037   1.965   1.515   1.155 -0.7353  0.1194  0.2358
17208TIP3   OH273038   6.529   2.323   5.211  0.0944  0.5044 -0.3861
17208TIP3    H173039   6.461   2.274   5.258 -0.2011 -0.5500 -1.8122
17208TIP3    H273040   6.580   2.366   5.279  0.0082 -1.3544  0.9249
17209TIP3   OH273041   0.580   3.881  14.075 -0.0256  0.1967 -0.7010
17209TIP3    H173042   0.587   3.859  13.982  0.7036 -0.7528 -0.4345
17209TIP3    H273043   0.547   3.802  14.117 -1.9438  1.1302 -0.3433
17210TIP3   OH273044   6.504   0.791   0.478  0.0256 -0.0209  0.5525
17210TIP3    H173045   6.450   0.732   0.426  2.1960 -2.7266  1.1649
17210TIP3    H273046   6.441   0.839   0.532 -1.8746 -1.8160  0.0753
17211TIP3   OH273047   0.628   2.690  16.173  0.6765 -0.1466 -0.3529
17211TIP3    H173048   0.723   2.700  16.160  0.6229 -1.3370 -1.9554
17211TIP3    H273049   0.610   2.598  16.154 -0.8530  0.1409 -0.4470
17212TIP3   OH273050   1.461   1.666  13.261 -0.2872 -0.5361  0.1546
17212TIP3    H173051   1.488   1.686  13.351  0.0703 -0.7080  0.0855
17212TIP3    H273052   1.539   1.628  13.220 -0.6004 -0.9318 -0.0799
17213TIP3   OH273053   4.303   4.937   3.499 -0.2909  0.1911 -0.3469
17213TIP3    H173054   4.251   4.903   3.572  0.8194  0.0467  0.4030
17213TIP3    H273055   4.338   5.020   3.531  1.2424 -0.4751 -0.1998
17214TIP3   OH273056   3.017   1.753   4.807  0.1561 -0.3267  0.3194
17214TIP3    H173057   2.981   1.665   4.818 -0.3386 -0.2128 -0.3172
17214TIP3    H273058   2.974   1.787   4.728  1.0557  0.1267  0.0040
17215TIP3   OH273059   4.757   0.510   2.329  0.0554  0.6337 -0.0597
17215TIP3    H173060   4.682   0.499   2.387 -1.8327  1.4802 -2.2066
17215TIP3    H273061   4.796   0.594   2.355  0.1796  0.2785  0.9444
17216TIP3   OH273062   0.357   0.314  16.269 -0.5381 -0.1709 -0.8822
17216TIP3    H173063   0.394   0.399  16.246  1.0834 -0.6699 -0.2773
17216TIP3    H273064   0.289   0.334  16.333  0.5098  0.6268  0.0278
17217TIP3   OH273065   1.216   5.712   0.978  0.0160  0.4531  0.1251
17217TIP3    H173066   1.200   5.718   1.072  0.9057  2.2514  0.2010
17217TIP3    H273067   1.301   5.668   0.971 -1.7715 -3.3726 -0.0644
17218TIP3   OH273068   5.334   1.040  16.459  0.2379  0.1501 -0.3991
17218TIP3    H173069   5.414   1.037  16.511  0.7804 -0.7066 -1.2285
17218TIP3    H273070   5.297   1.126  16.475  1.1562  0.4343  0.2598
17219TIP3   OH273071   2.465   4.570  17.203  0.5818 -0.9200 -0.2547
17219TIP3    H173072   2.396   4.602  17.261 -0.5704  0.8998 -2.4523
17219TIP3    H273073   2.479   4.479  17.229 -0.9975 -0.6361  1.7723
17220TIP3   OH273074   4.609   2.810  16.940 -0.4315 -0.2089  0.7292
17220TIP3    H173075   4.622   2.885  16.882 -0.5842 -0.7169  0.0157
17220TIP3    H273076   4.585   2.738  16.881  2.9743 -1.7235  0.9437
17221TIP3   OH273077   2.157   6.674   5.083  0.4047 -0.5169 -0.2975
17221TIP3    H173078   2.108   6.699   5.161  0.1550 -0.7216 -0.3868
17221TIP3    H273079   2.127   6.585   5.063  1.1281 -0.8128 -0.1017
17222TIP3   OH273080   4.408   0.048  15.150  0.1678 -0.3541  0.1570
17222TIP3    H173081   4.484   0.037  15.207 -0.2901 -0.1873  0.8005
17222TIP3    H273082   4.332   0.041  15.208 -0.3698 -1.8273 -0.6703
17223TIP3   OH273083   4.627   4.016  10.580 -0.6511 -0.4013 -0.1533
17223TIP3    H173084   4.573   3.937  10.581  0.5078 -1.2785 -2.1167
17223TIP3    H273085   4.713   3.987  10.611 -0.8343  0.6847  1.5509
17224TIP3   OH273086   3.571   1.565   2.473 -0.1352  0.5858 -0.1292
17224TIP3    H173087   3.542   1.633   2.413 -0.3581  1.3462  0.8176
17224TIP3    H273088   3.562   1.484   2.423 -4.0628  0.6847  0.0855
17225TIP3   OH273089   5.650   0.097   1.069  0.2155 -0.5192 -0.1868
17225TIP3    H173090   5.684   0.166   1.013 -0.1081 -1.1140 -1.1416
17225TIP3    H273091   5.682   0.119   1.157 -0.0178  0.9139 -0.4413
17226TIP3   OH273092   1.519   5.756   5.886 -0.5745  0.1710  0.3278
17226TIP3    H173093   1.544   5.841   5.920 -0.0310 -1.0401  3.2988
17226TIP3    H273094   1.448   5.727   5.944 -1.6100 -0.9033 -1.3903
17227TIP3   OH273095   0.896   3.484  14.714  0.0509  0.0378 -0.0560
17227TIP3    H173096   0.991   3.484  14.706  0.0289  0.5048 -0.3468
17227TIP3    H273097   0.864   3.486  14.624 -0.1999  3.2864 -0.0051
17228TIP3   OH273098   6.172   2.695   5.473  0.1495 -0.4849  0.5022
17228TIP3    H173099   6.138   2.748   5.545  1.1921  1.2145 -0.1835
17228TIP3    H273100   6.258   2.733   5.455 -0.3114 -0.4841 -1.9936
17229TIP3   OH273101   6.643   4.123  14.615  0.0936 -0.2211 -0.0675
17229TIP3    H173102   6.735   4.098  14.625  0.3025  1.2233  2.7288
17229TIP3    H273103   6.595   4.042  14.630  0.8971 -0.3347  2.4730
17230TIP3   OH273104   0.530   3.174   0.066 -0.1334 -0.4816  0.1181
17230TIP3    H173105   0.505   3.122  -0.010 -0.0889  0.7421 -0.7589
17230TIP3    H273106   0.461   3.157   0.130 -0.8702 -0.5441 -0.6738
17231TIP3   OH273107   2.428   2.425  12.061  0.3047 -0.5023  0.7058
17231TIP3    H173108   2.356   2.445  12.122  1.4759  4.1292  0.8756
17231TIP3    H273109   2.388   2.428  11.975 -0.2267 -1.1395  0.9160
17232TIP3   OH273110   3.727   3.279   1.856 -0.8458 -0.3383 -0.2021
17232TIP3    H173111   3.764   3.252   1.940  0.8767 -0.2090 -0.8903
17232TIP3    H273112   3.781   3.235   1.790 -0.1662  1.9988 -1.2876
17233TIP3   OH273113   2.694   3.250  10.874  0.8003  0.4543  0.0676
17233TIP3    H173114   2.618   3.263  10.931  0.8260 -2.7605  1.0314
17233TIP3    H273115   2.657   3.234  10.788  0.0136 -3.5156  0.9566
17234TIP3   OH273116   4.839   6.552   0.004 -0.3226 -0.0052  0.4418
17234TIP3    H173117   4.905   6.604  -0.042  0.9595  0.1996  2.3633
17234TIP3    H273118   4.764   6.610   0.013 -0.7959 -0.2210 -1.7419
17235TIP3   OH273119   2.061   3.413  12.216 -0.1972  0.8229  0.0548
17235TIP3    H173120   2.114   3.430  12.138 -0.2167  0.3859 -0.0537
17235TIP3    H273121   2.101   3.467  12.284 -0.5350  1.6754 -0.3946
17236TIP3   OH273122   4.337   4.937   0.478  0.0510  0.5448 -0.0523
17236TIP3    H173123   4.369   4.851   0.505  0.3884  0.1813 -1.5103
17236TIP3    H273124   4.243   4.924   0.463 -0.3144  0.9530  1.6336
17237TIP3   OH273125   6.445   2.958  11.358 -0.8265 -0.3371 -0.5405
17237TIP3    H173126   6.494   2.879  11.333  1.5423  1.7605 -3.2013
17237TIP3    H273127   6.354   2.929  11.366 -0.0070 -3.3488 -1.1057
17238TIP3   OH273128   0.190   1.605  13.148  0.2444 -0.5857 -0.2784
17238TIP3    H173129   0.148   1.592  13.063  2.9307  1.1202 -2.0589
17238TIP3    H273130   0.187   1.700  13.161 -0.4333 -0.8435  1.7780
17239TIP3   OH273131   3.951   2.714  14.120 -0.1088  0.1373  0.0540
17239TIP3    H173132   4.020   2.650  14.104 -2.0168 -1.7845 -1.0059
17239TIP3    H273133   3.937   2.711  14.215 -0.3061 -1.2096 -0.0012
17240TIP3   OH273134   6.310   3.614  12.610 -0.4227 -0.0124 -0.4936
17240TIP3    H173135   6.315   3.700  12.651  2.1628 -0.5867  0.5334
17240TIP3    H273136   6.229   3.576  12.644 -0.4686  1.1616  0.7993
17241TIP3   OH273137   4.048   0.663   0.899  0.3850  0.2499  0.0854
17241TIP3    H173138   4.043   0.679   0.993  3.1797  0.7657  0.2530
17241TIP3    H273139   4.138   0.688   0.875  0.2412 -1.2328 -2.4518
17242TIP3   OH273140   6.055   6.718  15.678  0.2234  0.0935 -0.2056
17242TIP3    H173141   6.074   6.757  15.764 -0.7072  0.8514 -0.3408
17242TIP3    H273142   6.081   6.626  15.689  0.4125  0.2458  0.7921
17243TIP3   OH273143   4.811   3.936  16.223  0.0576  0.5124 -0.1381
17243TIP3    H173144   4.752   3.951  16.148 -1.2141  0.4053  0.8036
17243TIP3    H273145   4.886   3.891  16.185 -0.8689 -0.1720 -1.2536
17244TIP3   OH273146   5.015   4.682   3.851 -0.2445  0.1385  0.0483
17244TIP3    H173147   4.935   4.710   3.895  0.0058  0.3863  0.3529
17244TIP3    H273148   5.083   4.738   3.887  0.1492 -0.3929  0.1518
17245TIP3   OH273149   5.802   1.676   5.824  0.1291  0.0783  0.0160
17245TIP3    H173150   5.761   1.606   5.773  2.1346 -0.0944 -1.4995
17245TIP3    H273151   5.739   1.748   5.823 -1.2069 -1.0566  0.0685
17246TIP3   OH273152   4.825   5.045   1.862  0.1772  0.1594  0.0147
17246TIP3    H173153   4.756   5.002   1.812 -0.9690  0.9967  0.7992
17246TIP3    H273154   4.903   4.992   1.847 -0.5614 -0.6513 -1.1439
17247TIP3   OH273155   1.025   1.198   6.340 -0.1324  0.1392 -0.4092
17247TIP3    H173156   1.079   1.193   6.262 -0.6704 -0.4943 -0.7464
17247TIP3    H273157   1.028   1.110   6.378 -0.4441  0.2559 -0.1067
17248TIP3   OH273158   1.664   3.190   2.329 -0.2088  0.9793 -0.1111
17248TIP3    H173159   1.625   3.256   2.272 -1.0188  0.4770 -0.1555
17248TIP3    H273160   1.727   3.144   2.272 -1.5698 -0.0352 -0.8686
17249TIP3   OH273161   3.541   1.563   2.933  0.3847 -0.6817 -0.3186
17249TIP3    H173162   3.569   1.628   2.869  2.7970 -0.7729  0.5429
17249TIP3    H273163   3.447   1.554   2.919  0.0456  2.5563 -0.8811
17250TIP3   OH273164   0.132   2.839  13.402  0.2583  0.1570  0.6323
17250TIP3    H173165   0.190   2.907  13.366 -0.8397  1.2440  0.8306
17250TIP3    H273166   0.183   2.799  13.472  0.9358  0.7927  0.5257
17251TIP3   OH273167   6.065   2.865  15.553  0.0634 -0.0224 -0.1723
17251TIP3    H173168   6.053   2.911  15.469 -0.2021 -1.2777 -0.8382
17251TIP3    H273169   5.977   2.836  15.577 -0.0480  1.2333  1.1129
17252TIP3   OH273170   1.323   5.253  11.731 -0.1851 -0.4291  0.4010
17252TIP3    H173171   1.395   5.313  11.752 -0.3892  0.9680 -2.4030
17252TIP3    H273172   1.244   5.306  11.740 -0.4273 -0.4046 -1.4093
17253TIP3   OH273173   1.490   0.689  14.342  0.1295  0.4641  0.5156
17253TIP3    H173174   1.493   0.602  14.300 -0.3604  0.7717 -0.1774
17253TIP3    H273175   1.560   0.738  14.300 -2.2795  1.7954 -2.3608
17254TIP3   OH273176   3.358   5.435  13.130  0.2526  1.0922 -0.4590
17254TIP3    H173177   3.318   5.419  13.216  1.6342 -1.3370 -0.1993
17254TIP3    H273178   3.299   5.393  13.068  0.7165  0.3264 -0.3915
17255TIP3   OH273179   4.252   0.769   0.117 -0.2734  0.3588 -0.5568
17255TIP3    H173180   4.295   0.747   0.200 -0.4263 -1.7500 -0.9681
17255TIP3    H273181   4.298   0.847   0.086  0.0155  0.9908  1.3151
17256TIP3   OH273182   0.879   5.702   3.672 -0.3549 -0.1823 -0.4020
17256TIP3    H173183   0.868   5.712   3.767 -2.0221 -1.4536 -0.4014
17256TIP3    H273184   0.941   5.770   3.647  2.1013 -1.3945  1.9532
17257TIP3   OH273185   1.865   6.131   0.714  0.3708  1.0477  0.6122
17257TIP3    H173186   1.785   6.177   0.741 -0.4730  0.9173 -1.4463
17257TIP3    H273187   1.855   6.120   0.619  1.1055 -2.2192  0.7769
17258TIP3   OH273188   4.123   5.823   0.867 -0.2762  0.2666 -0.4055
17258TIP3    H173189   4.047   5.866   0.827 -0.2010  0.5374 -0.2596
17258TIP3    H273190   4.087   5.777   0.943 -0.2104  0.8621 -0.0052
17259TIP3   OH273191   5.539   1.623  16.828  0.4373  0.0961 -0.4495
17259TIP3    H173192   5.612   1.660  16.879 -0.1847 -0.7376  1.0927
17259TIP3    H273193   5.521   1.539  16.868 -2.2242  0.8146  0.0582
17260TIP3   OH273194   1.116   4.093  12.210  1.0125  0.3514 -0.5182
17260TIP3    H173195   1.129   4.161  12.143  1.4182 -0.8171 -1.6554
17260TIP3    H273196   1.035   4.118  12.254 -0.0142  0.4137 -2.3602
17261TIP3   OH273197   5.626   1.669   4.949  0.0263 -0.0173 -0.1752
17261TIP3    H173198   5.539   1.631   4.961 -0.3528  0.5388 -1.0764
17261TIP3    H273199   5.667   1.615   4.881 -0.0684  0.4404 -0.6018
17262TIP3   OH273200   5.761   0.955  15.260  0.2295  0.0192  0.3469
17262TIP3    H173201   5.748   0.889  15.192  1.7392  1.7407 -1.7440
17262TIP3    H273202   5.696   0.933  15.327 -0.4019 -2.5882 -0.9659
17263TIP3   OH273203   3.784   4.521   2.567 -0.6300  0.1356  0.7025
17263TIP3    H173204   3.856   4.465   2.539  0.2741  0.0839  2.9033
17263TIP3    H273205   3.716   4.508   2.501  1.1830 -0.1606 -1.2019
17264TIP3   OH273206   5.275   3.025   2.483 -0.4249  0.4407 -0.0048
17264TIP3    H173207   5.294   2.967   2.409 -1.0838 -0.1702  0.2937
17264TIP3    H273208   5.331   3.101   2.469  0.5889 -0.3375 -0.3208
17265TIP3   OH273209   1.180   3.011   5.677  0.0476 -0.5181  0.0765
17265TIP3    H173210   1.275   3.015   5.680  0.0455 -0.7467  0.4900
17265TIP3    H273211   1.152   3.025   5.767 -0.2918 -1.0175  0.0507
17266TIP3   OH273212   4.222   3.355  14.075  0.0919 -0.4200 -0.5213
17266TIP3    H173213   4.264   3.354  13.989 -0.8994 -0.5491 -1.0315
17266TIP3    H273214   4.224   3.447  14.101 -0.4288 -0.2194 -1.1348
17267TIP3   OH273215   5.309   4.800   5.240  0.4608 -0.3203 -0.2536
17267TIP3    H173216   5.399   4.828   5.227  0.6501 -1.3915 -1.4629
17267TIP3    H273217   5.311   4.705   5.231 -1.1178 -0.2271 -2.8351
17268TIP3   OH273218   0.218   2.820  13.948  0.2318 -0.1577  0.4334
17268TIP3    H173219   0.312   2.830  13.935  0.1660  1.7286  1.0940
17268TIP3    H273220   0.208   2.816  14.044 -0.2795 -1.7555  0.3540
17269TIP3   OH273221   3.755   0.815  12.999  0.0197  0.0362  0.3381
17269TIP3    H173222   3.738   0.892  13.053 -1.9028 -1.2165  1.6331
17269TIP3    H273223   3.676   0.804  12.947  0.4618 -0.7896 -0.1752
17270TIP3   OH273224   0.881   0.623   5.288 -0.3356  0.2095  0.3700
17270TIP3    H173225   0.813   0.687   5.267 -0.1353  0.4931  0.5882
17270TIP3    H273226   0.857   0.591   5.376 -0.9619 -0.7023 -0.1112
17271TIP3   OH273227   0.380   0.481   1.836 -0.9096  0.2292  0.0880
17271TIP3    H173228   0.357   0.439   1.919 -0.7273  0.8425  0.4548
17271TIP3    H273229   0.433   0.557   1.861 -0.1835 -0.0177 -0.6293
17272TIP3   OH273230   4.415   2.038   2.721 -0.0672  0.1933  0.4845
17272TIP3    H173231   4.394   2.079   2.637  2.6726  1.2573  0.2199
17272TIP3    H273232   4.371   2.093   2.786 -0.8095  0.3630 -0.1404
17273TIP3   OH273233   1.186   2.862  14.234 -0.2223 -0.1524 -0.0405
17273TIP3    H173234   1.198   2.894  14.145  0.5180  1.0715  0.4744
17273TIP3    H273235   1.092   2.844  14.240 -0.4156  0.5085 -0.8335
17274TIP3   OH273236   6.724   5.147   3.347  0.0020 -0.2751  0.3756
17274TIP3    H173237   6.809   5.143   3.389 -0.4965 -1.3318  1.3299
17274TIP3    H273238   6.671   5.202   3.404 -0.2812 -0.5719  0.4028
17275TIP3   OH273239   5.551   2.859  13.576  0.1601  0.2366  0.1265
17275TIP3    H173240   5.505   2.899  13.649  0.3339  0.8291 -0.0817
17275TIP3    H273241   5.644   2.871  13.596  0.2102  0.2712 -0.1160
17276TIP3   OH273242   3.817   0.870  15.608 -0.1929  0.2581 -0.3407
17276TIP3    H173243   3.798   0.885  15.700  1.6145  2.4649 -0.2218
17276TIP3    H273244   3.898   0.818  15.608  0.0827  0.6765 -0.6516
17277TIP3   OH273245   3.758   5.988  10.680 -0.4990  1.0672  0.3360
17277TIP3    H173246   3.852   6.001  10.669 -0.3084  0.0406  0.5765
17277TIP3    H273247   3.746   5.976  10.774 -0.3831 -1.7744  0.1011
17278TIP3   OH273248   2.527   5.728  11.286  0.0681  0.4172  0.1780
17278TIP3    H173249   2.515   5.800  11.223 -2.4893  0.2485  0.3557
17278TIP3    H273250   2.521   5.770  11.372 -1.4999  0.0644  0.2822
17279TIP3   OH273251   0.387   2.504  12.814 -0.1499  1.0467 -0.1057
17279TIP3    H173252   0.417   2.450  12.741  0.5218 -0.1243  1.0071
17279TIP3    H273253   0.459   2.501  12.877 -0.4109  2.6492  0.3058
17280TIP3   OH273254   2.852   5.158   4.743  0.0664  0.1929 -0.1510
17280TIP3    H173255   2.795   5.222   4.784 -0.3523  0.9770 -1.8808
17280TIP3    H273256   2.926   5.150   4.804  0.4008  2.7274 -0.1167
17281TIP3   OH273257   4.972   4.325   5.983 -0.0823  0.0309 -0.0457
17281TIP3    H173258   4.971   4.360   6.072  0.8070  2.0201 -0.7570
17281TIP3    H273259   4.970   4.230   5.994 -2.5095  0.1933  2.0329
17282TIP3   OH273260   4.696   1.122  12.029 -0.5859 -0.0239  0.3160
17282TIP3    H173261   4.647   1.085  11.956 -1.0437  0.7256  0.2344
17282TIP3    H273262   4.777   1.154  11.990 -0.1597 -0.9668  0.3970
17283TIP3   OH273263   3.387   1.291  13.096 -0.0861  0.7695  0.0331
17283TIP3    H173264   3.475   1.322  13.072 -0.9298  2.9173 -0.4666
17283TIP3    H273265   3.359   1.351  13.165 -0.5272 -0.9705  1.4429
17284TIP3   OH273266   1.553   1.938   5.589  0.0303 -0.4004 -0.5176
17284TIP3    H173267   1.574   1.981   5.506  0.9666 -0.7125 -0.4627
17284TIP3    H273268   1.521   1.852   5.564 -2.7635  0.6061 -0.6704
17285TIP3   OH273269   5.494   2.321   3.601  0.2190  0.2933 -0.5118
17285TIP3    H173270   5.462   2.394   3.654  0.3035 -0.0024 -0.0464
17285TIP3    H273271   5.475   2.244   3.653 -0.5334 -0.0825 -1.3236
17286TIP3   OH273272   4.888   1.453  13.526 -0.7844 -0.5124 -0.2982
17286TIP3    H173273   4.821   1.389  13.550  1.1815 -2.5928  0.0387
17286TIP3    H273274   4.944   1.407  13.463 -0.0048  1.3546 -1.0489
17287TIP3   OH273275   3.398   0.871  11.569 -0.5209 -0.1182 -0.4105
17287TIP3    H173276   3.317   0.821  11.559  0.9632 -2.4575 -1.5627
17287TIP3    H273277   3.467   0.812  11.537  1.5234  2.1977 -0.5667
17288TIP3   OH273278   0.023   3.672   5.691  0.0825  0.1196 -0.7474
17288TIP3    H173279   0.118   3.675   5.693  0.1014 -0.6620  0.5861
17288TIP3    H273280  -0.004   3.749   5.741 -0.0540  1.3330 -2.5730
17289TIP3   OH273281   0.287   2.223   4.340 -0.0558 -0.6528 -0.5096
17289TIP3    H173282   0.241   2.198   4.260 -1.6514 -2.0762  0.7705
17289TIP3    H273283   0.221   2.266   4.393  1.0085  0.3663  0.0375
17290TIP3   OH273284   3.079   1.689   1.103  0.0552 -0.2804 -0.2238
17290TIP3    H173285   3.125   1.692   1.019 -0.2852 -0.0875 -0.4060
17290TIP3    H273286   3.007   1.628   1.088 -0.2436  0.0609 -0.1937
17291TIP3   OH273287   1.269   0.906  10.967 -0.0199 -0.2973 -0.2908
17291TIP3    H173288   1.338   0.861  10.919  1.1075 -1.4300  2.2201
17291TIP3    H273289   1.189   0.860  10.941  0.6636 -1.4440 -0.4543
17292TIP3   OH273290   3.933   3.007  14.110 -0.0722  0.3514 -0.5611
17292TIP3    H173291   3.946   2.913  14.100  0.2848  0.3078  0.2174
17292TIP3    H273292   3.855   3.026  14.058  0.0431 -0.3150 -0.9893
17293TIP3   OH273293   6.341   3.517  11.748  0.6063  0.2969  0.3178
17293TIP3    H173294   6.388   3.434  11.751 -0.3430 -0.4220 -2.2400
17293TIP3    H273295   6.255   3.498  11.786  0.2929  0.0153 -0.5169
17294TIP3   OH273296   6.286   5.066   0.746  0.3852 -0.4886 -0.4555
17294TIP3    H173297   6.318   5.038   0.832  1.8077  2.1037 -0.0495
17294TIP3    H273298   6.204   5.111   0.765  0.5248 -0.2137 -0.5066
17295TIP3   OH273299   1.831   1.392  15.685 -0.3365 -0.6164 -0.3941
17295TIP3    H173300   1.742   1.365  15.663 -0.3773 -0.7666 -0.0458
17295TIP3    H273301   1.887   1.335  15.632 -0.4537  0.0512 -1.2582
17296TIP3   OH273302   4.433   0.320  11.302  0.1508 -0.3056 -0.0085
17296TIP3    H173303   4.364   0.375  11.338 -0.3596  0.3217 -1.8521
17296TIP3    H273304   4.496   0.311  11.373  0.9668  3.8309 -0.0089
17297TIP3   OH273305   4.028   4.918  15.408 -0.1169  0.1305 -0.0638
17297TIP3    H173306   4.108   4.971  15.399  0.6612 -1.0577 -0.4421
17297TIP3    H273307   3.966   4.958  15.347  0.4240  0.6558 -0.2837
17298TIP3   OH273308   3.439   6.333   2.809 -0.7524 -0.4039 -0.1897
17298TIP3    H173309   3.493   6.267   2.853 -0.2379 -1.5868 -2.4507
17298TIP3    H273310   3.469   6.417   2.844 -0.2571 -1.2510  1.5249
17299TIP3   OH273311   4.217   4.344   5.145 -0.0117  0.0183  0.1744
17299TIP3    H173312   4.199   4.271   5.204 -1.9074  0.9139  0.7639
17299TIP3    H273313   4.208   4.422   5.199 -1.1622  0.8341 -1.1330
17300TIP3   OH273314   2.522   5.774   5.633 -0.8687 -0.3418  0.2605
17300TIP3    H173315   2.598   5.828   5.657 -3.0013  2.3233  1.5015
17300TIP3    H273316   2.502   5.799   5.543 -2.2192  1.5702  1.0251
17301TIP3   OH273317   4.130   4.012   4.263  0.3058  0.3597  0.2077
17301TIP3    H173318   4.187   4.088   4.250 -0.2852  0.6563 -0.7790
17301TIP3    H273319   4.163   3.947   4.200 -0.9741  0.8599 -1.0220
17302TIP3   OH273320   0.595   6.315   2.789  0.9436  0.1158 -0.4766
17302TIP3    H173321   0.589   6.377   2.716 -0.5092 -0.5037 -0.9414
17302TIP3    H273322   0.522   6.339   2.847 -0.2710 -1.7051 -1.1572
17303TIP3   OH273323   2.267   2.861  13.617  0.9856 -0.0458  0.5671
17303TIP3    H173324   2.286   2.906  13.699 -0.4359 -0.3868  1.1054
17303TIP3    H273325   2.198   2.912  13.576  0.8813 -0.5194  0.1349
17304TIP3   OH273326   1.914   3.256  15.726  0.2932  0.2514 -0.2590
17304TIP3    H173327   1.826   3.219  15.737  0.5652 -0.2262  0.3754
17304TIP3    H273328   1.914   3.293  15.638 -0.8872  1.2031  0.1064
17305TIP3   OH273329   4.183   3.530  15.178  0.2084 -0.2461 -0.2755
17305TIP3    H173330   4.160   3.533  15.085 -1.3153  0.0826  0.0786
17305TIP3    H273331   4.265   3.481  15.181  1.1769  1.1543 -1.9320
17306TIP3   OH273332   0.526   3.365  15.024 -0.7542  0.7136  0.0765
17306TIP3    H173333   0.520   3.315  15.105  0.4098 -1.1506 -0.9003
17306TIP3    H273334   0.587   3.436  15.044 -0.8591  0.5650  0.9644
17307TIP3   OH273335   0.272   0.711   3.815 -0.2244 -0.3295 -0.2865
17307TIP3    H173336   0.270   0.636   3.755  0.7257 -0.6504  0.0652
17307TIP3    H273337   0.180   0.728   3.834 -0.4606 -1.9370  0.2401
17308TIP3   OH273338   1.212   4.339   1.726 -1.5336 -0.3083  0.8280
17308TIP3    H173339   1.133   4.329   1.779 -2.0548  0.5280  0.2398
17308TIP3    H273340   1.184   4.395   1.653 -0.7409 -1.1378 -0.1217
17309TIP3   OH273341   4.569   5.338   0.975 -0.0887  0.0625  0.2389
17309TIP3    H173342   4.513   5.363   1.049  0.1481  1.0976  0.0846
17309TIP3    H273343   4.651   5.385   0.991  0.2034 -0.2487 -0.3243
17310TIP3   OH273344   4.665   3.192  14.705  0.5216  0.5403  0.3252
17310TIP3    H173345   4.589   3.165  14.652  0.1232  0.2389  1.0345
17310TIP3    H273346   4.653   3.287  14.716  0.4273  0.5495  0.1517
17311TIP3   OH273347   2.502   0.064   1.177  0.2651 -0.0577 -0.2302
17311TIP3    H173348   2.422   0.094   1.220  0.1028 -1.1945  0.2850
17311TIP3    H273349   2.541   0.003   1.239  1.4384  0.3300 -0.5667
17312TIP3   OH273350   0.891   1.443   5.893 -0.1121  0.0509 -0.0684
17312TIP3    H173351   0.803   1.475   5.874  0.6648  3.0068  0.7511
17312TIP3    H273352   0.878   1.370   5.953 -2.0148 -0.2702 -0.7969
17313TIP3   OH273353   0.610   4.038   5.867 -0.3140  0.1281 -0.0851
17313TIP3    H173354   0.592   3.979   5.794 -0.4174  1.1659 -0.9083
17313TIP3    H273355   0.626   3.979   5.941  1.6216 -1.0196 -1.3137
17314TIP3   OH273356   0.970   6.563   4.502  0.3991 -0.2148  0.1507
17314TIP3    H173357   0.965   6.654   4.532 -1.0073 -0.8302  1.9762
17314TIP3    H273358   1.046   6.528   4.547  1.2145  0.1432 -0.9080
17315TIP3   OH273359   1.524   2.359   1.808 -0.0162  0.2512 -0.2545
17315TIP3    H173360   1.477   2.408   1.741 -0.6843 -0.9331 -0.6848
17315TIP3    H273361   1.456   2.307   1.851  0.7398 -0.6537 -0.1350
17316TIP3   OH273362   5.006   1.557  13.740  0.3088 -0.0629 -0.1291
17316TIP3    H173363   4.979   1.502  13.667  0.2659 -0.4127  0.1468
17316TIP3    H273364   4.924   1.580  13.784  0.4557 -1.6078  1.0563
17317TIP3   OH273365   5.889   4.453   3.695 -0.2154 -0.5393  0.1066
17317TIP3    H173366   5.960   4.393   3.673 -0.3993 -1.3853  1.6421
17317TIP3    H273367   5.929   4.517   3.754 -0.4637 -0.3305  0.0522
17318TIP3   OH273368   4.672   4.299  12.236 -0.4226  0.4234  0.1012
17318TIP3    H173369   4.755   4.346  12.244  1.3351 -2.4762  0.4843
17318TIP3    H273370   4.626   4.317  12.318  1.6341 -0.9352  1.6700
17319TIP3   OH273371   1.650   1.904  15.250  0.1844  0.8799  0.0285
17319TIP3    H173372   1.726   1.930  15.302 -0.0696 -1.0674  1.4768
17319TIP3    H273373   1.678   1.825  15.203 -0.6969  0.6045 -0.0496
17320TIP3   OH273374   3.658   2.565  16.135  0.0008 -0.1917  0.1906
17320TIP3    H173375   3.665   2.516  16.217  2.3209  0.0374  0.2129
17320TIP3    H273376   3.692   2.505  16.068 -2.5451 -0.6467 -0.7985
17321TIP3   OH273377   2.468   3.113   5.762  0.1023  0.1037  0.3773
17321TIP3    H173378   2.496   3.065   5.840 -1.3358  1.3185  1.7086
17321TIP3    H273379   2.411   3.052   5.715 -0.2331 -0.1203  1.0736
17322TIP3   OH273380   3.980   0.288  12.445 -0.6195 -0.0491 -0.3326
17322TIP3    H173381   3.945   0.341  12.373  0.4645  2.8814  1.1451
17322TIP3    H273382   3.920   0.304  12.518 -0.5946 -1.4044  0.0115
17323TIP3   OH273383   6.035   2.923  13.023 -0.4829 -0.0453  0.5992
17323TIP3    H173384   6.038   3.018  13.031  0.6309 -0.0341  0.2648
17323TIP3    H273385   6.127   2.896  13.029 -0.8725 -1.1902  1.6825
17324TIP3   OH273386   1.079   2.339   3.597  0.2475  0.2711  0.6359
17324TIP3    H173387   1.165   2.298   3.590  0.4948  0.6688  1.2889
17324TIP3    H273388   1.053   2.356   3.507  0.2415 -1.0992  0.3565
17325TIP3   OH273389   2.545   4.028  14.497  0.1961 -0.1971 -0.8451
17325TIP3    H173390   2.544   3.944  14.451 -0.8850  0.2773 -1.7626
17325TIP3    H273391   2.454   4.059  14.491 -0.0111 -0.0898  1.6431
17326TIP3   OH273392   2.697   2.135  16.852 -0.5308 -0.3521 -0.1203
17326TIP3    H173393   2.675   2.042  16.848 -0.7828 -0.3081  0.2383
17326TIP3    H273394   2.747   2.144  16.933  0.3957 -0.3616 -0.6767
17327TIP3   OH273395   5.029   6.315  16.140 -0.3331 -0.7415  0.4233
17327TIP3    H173396   5.122   6.315  16.161 -0.5767  1.2348  1.7360
17327TIP3    H273397   5.025   6.277  16.052  1.9912  1.1881 -0.6449
17328TIP3   OH273398   4.929   3.993  15.306 -0.6270  0.0313 -0.8414
17328TIP3    H173399   5.020   4.008  15.277 -0.3453  0.1715  0.1032
17328TIP3    H273400   4.890   4.080  15.309  0.1880  0.3816  1.9174
17329TIP3   OH273401   1.626   4.769  12.253  0.2606  0.1515 -0.0206
17329TIP3    H173402   1.563   4.718  12.304 -2.9395  2.2504 -1.5260
17329TIP3    H273403   1.613   4.740  12.163 -0.7732  2.5601 -0.7461
17330TIP3   OH273404   5.055   1.144  12.587  0.2834  0.1725  0.4733
17330TIP3    H173405   5.107   1.080  12.539  3.3331  0.8378  2.6287
17330TIP3    H273406   4.994   1.092  12.639 -0.0789 -0.7128 -0.7833
17331TIP3   OH273407   1.318   2.170   4.648 -0.2498  0.1489  0.0914
17331TIP3    H173408   1.324   2.192   4.741 -2.2644  0.6935  0.1319
17331TIP3    H273409   1.266   2.240   4.609 -0.3054 -0.5978 -1.2630
17332TIP3   OH273410   3.511   6.694   3.471 -0.3010  0.2519 -0.5291
17332TIP3    H173411   3.574   6.623   3.461  1.5102  1.2315  2.4414
17332TIP3    H273412   3.540   6.762   3.410 -0.4667 -0.5469 -1.5063
17333TIP3   OH273413   1.545   2.949  14.015  0.0856  0.2052 -0.1786
17333TIP3    H173414   1.545   2.888  14.089 -0.1093 -0.5603 -0.7987
17333TIP3    H273415   1.470   2.922  13.962  0.6235  0.3162 -1.0070
17334TIP3   OH273416   1.714   2.367  16.028  0.0759 -0.2758 -0.4406
17334TIP3    H173417   1.665   2.298  15.985  0.8281  0.0502 -1.9060
17334TIP3    H273418   1.804   2.333  16.033  0.5087  0.6303 -1.3953
17335TIP3   OH273419   3.406   2.632  11.139 -0.2788 -0.2457  0.3865
17335TIP3    H173420   3.489   2.658  11.178 -0.2673  1.6405 -0.7797
17335TIP3    H273421   3.423   2.545  11.101  1.1707  0.1278  0.1312
17336TIP3   OH273422   1.304   5.013   3.072 -0.2291  0.1653  0.8138
17336TIP3    H173423   1.332   5.102   3.052 -1.8315  0.5191  0.0283
17336TIP3    H273424   1.374   4.978   3.128  0.7039  1.6996  0.6591
17337TIP3   OH273425   5.306   3.481   2.922  0.3301 -0.0463 -0.4006
17337TIP3    H173426   5.350   3.464   2.838  0.3936 -0.6760 -0.2479
17337TIP3    H273427   5.373   3.523   2.976  0.6448 -0.6563 -0.2981
17338TIP3   OH273428   2.702   1.723  15.426 -0.5175 -0.1465 -0.0919
17338TIP3    H173429   2.747   1.802  15.455  1.0433 -1.6171  1.7356
17338TIP3    H273430   2.745   1.701  15.343  0.3721 -0.1328  0.3586
17339TIP3   OH273431   4.175   1.326   5.844 -0.8223  0.1319 -0.4403
17339TIP3    H173432   4.176   1.421   5.837  1.1495  0.3240  1.2771
17339TIP3    H273433   4.085   1.304   5.868 -0.8937  1.7802  0.9799
17340TIP3   OH273434   3.199   6.433  12.589 -0.7881 -0.4691 -0.3828
17340TIP3    H173435   3.266   6.481  12.540  0.7079 -1.1509  0.9082
17340TIP3    H273436   3.236   6.345  12.601 -1.9365 -0.8840  0.3155
17341TIP3   OH273437   3.190   6.114  15.646 -0.3336 -0.1597  0.8647
17341TIP3    H173438   3.234   6.105  15.561 -0.5124  1.0015  0.6355
17341TIP3    H273439   3.118   6.050  15.643  0.0706 -0.5987  0.4155
17342TIP3   OH273440   5.883   5.749   4.050  0.5138  0.4616 -0.1674
17342TIP3    H173441   5.825   5.753   3.973 -0.0953 -0.3544  0.2339
17342TIP3    H273442   5.831   5.786   4.121  0.6665  0.1962  0.0863
17343TIP3   OH273443   3.243   1.462  11.372  0.2464 -0.6185  0.0621
17343TIP3    H173444   3.273   1.376  11.401  0.0419 -1.4344 -2.0059
17343TIP3    H273445   3.191   1.495  11.446  1.2344 -1.7748  1.3147
17344TIP3   OH273446   5.401   6.513   4.222 -0.0921 -0.1229 -0.0147
17344TIP3    H173447   5.332   6.580   4.221 -0.6081 -0.6562 -0.5141
17344TIP3    H273448   5.363   6.438   4.176  1.1629 -0.0854 -1.1662
17345TIP3   OH273449   0.241   4.360  14.006  0.2147 -0.1712 -0.1269
17345TIP3    H173450   0.250   4.280  13.953  2.0031  0.2580 -0.5490
17345TIP3    H273451   0.267   4.431  13.948 -0.6869  0.6573  0.4521
17346TIP3   OH273452   0.674   3.299   4.985 -0.9449 -0.0985 -0.2023
17346TIP3    H173453   0.589   3.259   4.964 -1.1549  0.0753  0.3272
17346TIP3    H273454   0.695   3.351   4.907 -1.2252 -0.2966 -0.4155
17347TIP3   OH273455   6.660   1.448  13.980 -0.5732 -0.2217 -0.5065
17347TIP3    H173456   6.587   1.424  13.923  0.4455 -1.7823 -1.2191
17347TIP3    H273457   6.656   1.384  14.051 -2.3991  2.2653  1.7979
17348TIP3   OH273458   5.283   0.717   2.645 -0.3901  0.2862 -0.0230
17348TIP3    H173459   5.237   0.766   2.713  0.6405  0.4932  0.5551
17348TIP3    H273460   5.271   0.769   2.566 -2.4673 -0.4794 -0.2630
17349TIP3   OH273461   1.893   2.786  13.599 -0.1996  0.0830  0.8223
17349TIP3    H173462   1.942   2.731  13.659 -1.9027 -2.4598  0.0604
17349TIP3    H273463   1.801   2.769  13.620 -0.8093  1.6332 -0.3646
17350TIP3   OH273464   4.699   4.609  16.421 -0.5437 -0.2631 -0.8492
17350TIP3    H173465   4.701   4.701  16.396 -0.1443  0.2059  0.7639
17350TIP3    H273466   4.646   4.607  16.501  1.6779 -0.9676  0.7161
17351TIP3   OH273467   6.756   5.197   0.721 -0.3354  0.5986  0.2069
17351TIP3    H173468   6.667   5.162   0.713  0.0997 -0.8420  1.1751
17351TIP3    H273469   6.756   5.240   0.806  0.2921 -0.7901  0.9492
17352TIP3   OH273470   6.412   6.443   4.612  0.4667 -0.0863  0.4458
17352TIP3    H173471   6.466   6.479   4.682  2.9400 -1.9584 -0.3435
17352TIP3    H273472   6.457   6.470   4.531  1.2564 -3.0240 -0.2072
17353TIP3   OH273473   3.516   5.862   3.693  0.2439 -0.0373  0.0517
17353TIP3    H173474   3.509   5.786   3.635 -0.3291 -2.2386  2.7915
17353TIP3    H273475   3.427   5.894   3.703  0.3427  0.3454 -0.2922
17354TIP3   OH273476   3.902   0.748  16.759  0.0507 -0.0331  0.1434
17354TIP3    H173477   3.917   0.830  16.712 -2.5388 -0.8621 -2.4048
17354TIP3    H273478   3.955   0.683  16.712 -3.1072 -1.0100 -2.3802
17355TIP3   OH273479   0.262   4.144   3.379  0.1001  0.0382  0.4587
17355TIP3    H173480   0.175   4.180   3.395  0.7326  1.7430  0.2566
17355TIP3    H273481   0.252   4.091   3.299 -0.7788  0.0419  0.5601
17356TIP3   OH273482   4.733   2.452  12.317 -0.3182  0.1227 -0.4945
17356TIP3    H173483   4.707   2.391  12.386  2.0005 -0.9013 -0.4704
17356TIP3    H273484   4.772   2.526  12.364 -3.0155  1.7224 -0.5265
17357TIP3   OH273485   5.828   4.669   0.444 -0.2986 -0.3629  0.5378
17357TIP3    H173486   5.756   4.658   0.382  0.0425  2.3698 -0.4911
17357TIP3    H273487   5.788   4.708   0.521 -0.1290  0.0145  0.4398
17358TIP3   OH273488   6.634   5.836   2.168 -0.0309 -0.0753 -0.6140
17358TIP3    H173489   6.633   5.914   2.112  0.3866  0.7246  0.4615
17358TIP3    H273490   6.570   5.854   2.237 -0.2990 -0.9048 -0.6276
17359TIP3   OH273491   3.495   6.099  15.900 -0.3502 -0.1041  0.0489
17359TIP3    H173492   3.444   6.098  15.820 -1.2760 -2.2307  0.5824
17359TIP3    H273493   3.583   6.075  15.873 -0.9663 -2.2671 -0.2336
17360TIP3   OH273494   0.100   5.738   4.641  0.1979  0.7828  0.1133
17360TIP3    H173495   0.039   5.810   4.625 -0.6286  0.0471 -0.1155
17360TIP3    H273496   0.080   5.708   4.729  0.2355  0.5472  0.0437
17361TIP3   OH273497   3.700   4.824   2.430 -0.0231 -0.2633 -0.7190
17361TIP3    H173498   3.635   4.754   2.433  1.1703 -1.4645 -1.6822
17361TIP3    H273499   3.661   4.891   2.373 -1.0556 -0.2527 -0.0201
17362TIP3   OH273500   6.164   0.461  15.096  0.2921 -0.5405  0.0065
17362TIP3    H173501   6.142   0.502  15.179 -1.0139 -1.5582  0.1954
17362TIP3    H273502   6.197   0.374  15.119 -1.3243 -1.3568 -0.5238
17363TIP3   OH273503   3.717   1.554  13.877 -0.1341  0.1347 -0.5392
17363TIP3    H173504   3.654   1.544  13.805  0.9594  0.4195 -1.5807
17363TIP3    H273505   3.677   1.619  13.935 -2.3703 -2.1632  0.6930
17364TIP3   OH273506   6.744   1.128   0.988 -0.1474  0.0824 -0.4358
17364TIP3    H173507   6.695   1.090   1.061  0.2854  0.0475 -0.1599
17364TIP3    H273508   6.751   1.221   1.010  0.4866 -0.0316 -0.1424
17365TIP3   OH273509   0.227   1.857  14.464 -0.1493 -0.8307 -0.0129
17365TIP3    H173510   0.282   1.792  14.419 -1.0193 -1.3735 -0.3156
17365TIP3    H273511   0.145   1.812  14.481 -0.0049 -0.4891  1.7623
17366TIP3   OH273512   1.869   2.537   2.041 -0.7074  0.2340  0.0452
17366TIP3    H173513   1.840   2.521   2.131 -1.4664  1.7266  0.0858
17366TIP3    H273514   1.964   2.526   2.045 -0.7594 -0.0371  0.9493
17367TIP3   OH273515   3.091   5.045  13.037 -0.0478 -0.1296 -0.0977
17367TIP3    H173516   3.080   5.137  13.015  0.4802  0.5074  2.0627
17367TIP3    H273517   3.169   5.018  12.988  0.4610  0.9158  0.0959
17368TIP3   OH273518   1.794   2.900  15.795  0.2503  0.0523 -0.2570
17368TIP3    H173519   1.858   2.830  15.794  2.3944  1.8970 -1.9460
17368TIP3    H273520   1.751   2.895  15.710 -0.2123  0.2697 -0.0419
17369TIP3   OH273521   0.069   3.635   4.869  0.7855 -0.4976  0.7446
17369TIP3    H173522   0.101   3.607   4.783  0.2533  0.5878  0.1836
17369TIP3    H273523   0.124   3.709   4.892 -0.9860  1.1722 -0.0701
17370TIP3   OH273524   0.786   5.897  11.997 -0.5066  0.1217 -0.4113
17370TIP3    H173525   0.868   5.896  12.047 -0.3737  0.6347 -0.6121
17370TIP3    H273526   0.768   5.990  11.982 -2.0327  0.1129  1.0840
17371TIP3   OH273527   5.349   5.151  16.365 -0.6489 -0.0272 -0.0697
17371TIP3    H173528   5.378   5.159  16.274 -1.9404  0.3321 -0.4656
17371TIP3    H273529   5.310   5.236  16.385  2.0111  0.9165  1.7383
17372TIP3   OH273530   2.949   2.731   0.273 -0.8699  0.0433 -0.4920
17372TIP3    H173531   2.924   2.640   0.254  0.4867 -0.3776 -0.3842
17372TIP3    H273532   2.981   2.765   0.190  0.5151 -0.2458 -0.1009
17373TIP3   OH273533   2.786   2.626  16.915 -0.2933 -0.0631  0.0707
17373TIP3    H173534   2.790   2.694  16.982  0.3723 -0.0370  0.0111
17373TIP3    H273535   2.796   2.674  16.832 -0.3086 -0.1822 -0.0005
17374TIP3   OH273536   2.105   5.881   0.469  0.0186  0.1609  0.8855
17374TIP3    H173537   2.054   5.885   0.550 -2.1358  1.9911 -0.4326
17374TIP3    H273538   2.164   5.957   0.474  0.2218  0.0001  0.9391
17375TIP3   OH273539   6.443   2.306  12.675  0.8699  0.3297  0.4381
17375TIP3    H173540   6.535   2.329  12.660  0.6203  0.8366 -0.3423
17375TIP3    H273541   6.414   2.368  12.742  0.6076  1.3441 -0.5985
17376TIP3   OH273542   5.139   0.362   1.719 -0.8331  0.1557 -0.5920
17376TIP3    H173543   5.114   0.454   1.726 -2.4848 -0.2717 -0.3165
17376TIP3    H273544   5.147   0.332   1.810  0.9812  0.3087 -0.6596
17377TIP3   OH273545   5.926   5.991  12.221 -0.8425 -0.2276  0.5182
17377TIP3    H173546   5.920   5.928  12.149 -1.6163 -0.2917  0.6320
17377TIP3    H273547   5.984   6.060  12.188 -1.5458 -0.0309 -0.3265
17378TIP3   OH273548   1.151   2.010  11.340  0.1626 -0.1147 -0.1258
17378TIP3    H173549   1.072   2.063  11.334  0.0191 -0.3354 -0.1642
17378TIP3    H273550   1.219   2.065  11.300 -0.1544 -0.2979 -0.9342
17379TIP3   OH273551   3.651   4.515   3.427  0.0210  0.1977  0.3498
17379TIP3    H173552   3.607   4.553   3.351 -0.7546 -0.8845  0.2411
17379TIP3    H273553   3.661   4.588   3.488  0.8861  1.1402 -0.8654
17380TIP3   OH273554   0.431   3.903  10.345 -0.4310 -0.3839  0.6545
17380TIP3    H173555   0.458   3.959  10.272 -1.3264 -1.9219 -0.9310
17380TIP3    H273556   0.510   3.854  10.367  1.0393  2.9170  3.5951
17381TIP3   OH273557   3.860   4.695  12.460 -0.1864  0.1667  0.3896
17381TIP3    H173558   3.867   4.783  12.423 -0.1291 -0.1756 -0.4202
17381TIP3    H273559   3.892   4.637  12.392  0.3695 -0.4420  1.1513
17382TIP3   OH273560   1.369   5.273   2.508  0.2019 -0.1209  0.3364
17382TIP3    H173561   1.348   5.354   2.556  2.0326 -0.4524  1.7642
17382TIP3    H273562   1.463   5.263   2.517 -0.1711 -3.4022  1.7967
17383TIP3   OH273563   1.948   1.792   4.477  0.3078  1.1913  1.1308
17383TIP3    H173564   1.906   1.879   4.476  0.1935  1.1334  0.2419
17383TIP3    H273565   1.887   1.736   4.429  2.0164  1.4154 -1.5141
17384TIP3   OH273566   0.318   5.052  16.709  0.2071 -0.0837 -0.2262
17384TIP3    H173567   0.367   5.055  16.627  0.7837 -0.0273  0.1151
17384TIP3    H273568   0.342   5.132  16.755  0.5060 -0.4909  0.3437
17385TIP3   OH273569   4.157   6.079  13.879 -0.2093 -0.4592 -0.2309
17385TIP3    H173570   4.197   6.088  13.965  0.7400  2.0309 -0.8496
17385TIP3    H273571   4.187   5.993  13.848  0.9933 -0.5753  1.1434
17386TIP3   OH273572   5.469   4.769  14.033 -0.1548 -0.2213 -0.2540
17386TIP3    H173573   5.381   4.732  14.027  0.4137 -1.6809 -0.1492
17386TIP3    H273574   5.494   4.758  14.125  0.3843 -0.4461 -0.4200
17387TIP3   OH273575   3.206   2.530  13.491 -0.1587 -0.2125 -0.5039
17387TIP3    H173576   3.301   2.540  13.498 -0.0191 -1.5110 -0.2602
17387TIP3    H273577   3.172   2.578  13.566  0.5062 -2.1493  1.1267
17388TIP3   OH273578   5.916   0.409   3.690 -0.3771 -0.4425 -0.7199
17388TIP3    H173579   5.901   0.464   3.614 -0.7559  0.7414  0.1908
17388TIP3    H273580   5.836   0.358   3.700  0.0440 -1.3334 -1.6709
17389TIP3   OH273581   4.520   5.395   4.580 -0.1006  0.3028 -0.4546
17389TIP3    H173582   4.447   5.337   4.603 -1.1323  1.1631 -1.4032
17389TIP3    H273583   4.573   5.344   4.519  0.4959 -0.5762  0.7621
17390TIP3   OH273584   0.957   0.382   4.908  0.0531  0.0048  0.3138
17390TIP3    H173585   0.970   0.455   4.969 -0.2082 -1.4866  2.2182
17390TIP3    H273586   1.040   0.334   4.910 -0.1563 -0.3793 -0.0687
17391TIP3   OH273587   5.273   2.122  11.237 -0.1281  1.1282  0.0757
17391TIP3    H173588   5.251   2.212  11.263 -0.1670  0.9547  0.6583
17391TIP3    H273589   5.307   2.130  11.148  0.4399  1.7973  0.3485
17392TIP3   OH273590   3.054   5.818   5.313  0.1978  0.1278 -0.1714
17392TIP3    H173591   3.111   5.824   5.389  0.5640  0.2719 -0.4560
17392TIP3    H273592   3.100   5.865   5.244  0.0786 -0.3859 -0.6114
17393TIP3   OH273593   5.278   6.267   5.748 -0.7042  0.1326 -0.5877
17393TIP3    H173594   5.305   6.194   5.692  1.8258  1.1147 -0.8002
17393TIP3    H273595   5.354   6.326   5.749 -1.4870  1.2653  2.0544
17394TIP3   OH273596   1.954   0.347   0.785  0.4697  0.1396  0.8297
17394TIP3    H173597   1.871   0.375   0.747  0.9151  0.9689  0.4246
17394TIP3    H273598   2.016   0.352   0.712  0.9867  0.0532  1.2558
17395TIP3   OH273599   3.716   1.643  15.539  0.6124  0.0182  0.0181
17395TIP3    H173600   3.735   1.658  15.446  0.2870  1.4632  0.1775
17395TIP3    H273601   3.659   1.566  15.539  1.0528 -0.3281 -0.9277
17396TIP3   OH273602   4.325   0.484  11.768 -0.0905  0.4935  0.5444
17396TIP3    H173603   4.241   0.441  11.785 -0.8551  1.5711 -0.3817
17396TIP3    H273604   4.376   0.469  11.848 -0.4236 -1.8121  0.3972
17397TIP3   OH273605   5.915   2.022   0.995 -0.1329  0.1130  0.5292
17397TIP3    H173606   5.947   1.933   1.014  0.9235  0.1690 -0.8337
17397TIP3    H273607   5.991   2.078   1.012  0.7060  0.2318 -2.9856
17398TIP3   OH273608   6.092   0.168   5.967  0.2532  0.2907  0.5347
17398TIP3    H173609   6.130   0.154   6.053 -2.9991  0.7153  2.1913
17398TIP3    H273610   6.006   0.125   5.971 -0.6197  1.5731 -1.9819
17399TIP3   OH273611   3.020   5.972  14.097  0.0272  0.1884  0.1731
17399TIP3    H173612   2.976   5.898  14.054  1.8952  0.0023 -1.5452
17399TIP3    H273613   3.106   5.938  14.120  0.4683  1.4843  0.4830
17400TIP3   OH273614   1.330   5.383  12.892  0.4646 -0.2667  0.4492
17400TIP3    H173615   1.337   5.338  12.976 -1.4026 -0.8349  0.3212
17400TIP3    H273616   1.345   5.315  12.826  2.2069  0.2295  0.2768
17401TIP3   OH273617   0.981   0.791  15.469 -0.2600 -0.0447 -0.4263
17401TIP3    H173618   0.991   0.860  15.535  1.2095 -0.6281  0.0244
17401TIP3    H273619   1.071   0.768  15.446 -0.7388 -1.0925 -1.3309
17402TIP3   OH273620   3.775   1.443  12.488  0.3383  0.0712 -0.3248
17402TIP3    H173621   3.802   1.366  12.539  0.1068  0.7352  0.8489
17402TIP3    H273622   3.808   1.517  12.539 -2.2188  0.8661  0.3245
17403TIP3   OH273623   4.036   5.955  13.184 -0.4345 -0.5198 -0.0717
17403TIP3    H173624   3.999   5.910  13.260 -0.5086  0.6816  0.6251
17403TIP3    H273625   4.061   5.884  13.125 -1.7195 -1.4431  0.4281
17404TIP3   OH273626   5.502   0.117  16.100  0.1655 -0.0372 -0.0919
17404TIP3    H173627   5.523   0.110  16.194  1.4100 -0.4947 -0.3797
17404TIP3    H273628   5.527   0.206  16.077 -0.5539  0.2197  0.0952
17405TIP3   OH273629   4.109   6.468  16.897  0.3188 -0.3960  0.0386
17405TIP3    H173630   4.148   6.540  16.846  0.8881  1.6555  3.1035
17405TIP3    H273631   4.017   6.495  16.908 -0.0815 -1.3814 -0.7309
17406TIP3   OH273632   1.932   0.368  15.074 -0.7748 -0.1174  0.0577
17406TIP3    H173633   2.002   0.431  15.058 -1.9353  1.3425  0.5502
17406TIP3    H273634   1.978   0.285  15.090  0.7489  0.2105 -2.0917
17407TIP3   OH273635   2.144   2.563  15.503  0.6761  0.7546 -0.0806
17407TIP3    H173636   2.059   2.588  15.467  1.5902  2.6469 -1.0660
17407TIP3    H273637   2.168   2.483  15.456  0.2110  1.1662 -1.0393
17408TIP3   OH273638   5.123   0.392   2.629  0.1949  0.3310  0.3427
17408TIP3    H173639   5.065   0.352   2.565  0.1887  0.4446  0.2765
17408TIP3    H273640   5.179   0.450   2.578  2.3896 -1.9801 -0.0379
17409TIP3   OH273641   2.894   5.944   2.707  0.2865 -0.7139  0.0217
17409TIP3    H173642   2.958   6.010   2.680  0.3444 -0.7326  0.1111
17409TIP3    H273643   2.887   5.955   2.802  1.4863 -1.8724  0.2783
17410TIP3   OH273644   1.305   1.269   2.675  0.4242 -0.4934 -0.2246
17410TIP3    H173645   1.324   1.345   2.731 -2.4898 -1.2026  2.0164
17410TIP3    H273646   1.291   1.197   2.736 -3.1727 -1.2890 -1.7245
17411TIP3   OH273647   1.098   4.859  11.412  0.3770 -0.0825  0.0224
17411TIP3    H173648   1.119   4.922  11.481  1.8777 -0.8093  0.2588
17411TIP3    H273649   1.104   4.909  11.330  0.7112  0.2679  0.2603
17412TIP3   OH273650   3.879   4.002  11.637  0.0518  0.2607  0.1268
17412TIP3    H173651   3.868   3.908  11.652 -0.0420  0.1320 -0.7222
17412TIP3    H273652   3.965   4.010  11.597 -0.0611  0.5095 -0.0659
17413TIP3   OH273653   3.020   0.640   2.762  0.3528 -0.2125  0.3248
17413TIP3    H173654   3.001   0.654   2.670 -0.1396  0.8276  0.5690
17413TIP3    H273655   3.086   0.705   2.784 -0.7906  0.7388  1.0943
17414TIP3   OH273656   2.368   3.675  12.999  0.0728  0.2797  0.3196
17414TIP3    H173657   2.291   3.677  12.942 -0.5368  1.8210  1.1413
17414TIP3    H273658   2.336   3.637  13.081  1.0914 -2.5378 -0.4827
17415TIP3   OH273659   5.300   5.243  13.847  0.4590  0.1078  0.5206
17415TIP3    H173660   5.287   5.244  13.941  2.5874  0.4680  0.8797
17415TIP3    H273661   5.285   5.152  13.821 -4.0218  0.6781  0.4603
17416TIP3   OH273662   3.617   1.378  17.109 -0.5027 -0.2456  0.2037
17416TIP3    H173663   3.588   1.468  17.097 -0.8692 -0.2970  0.6635
17416TIP3    H273664   3.677   1.361  17.036  0.5930  0.7950  0.8319
17417TIP3   OH273665   3.678   5.281  15.648 -0.2890  0.2493 -0.1055
17417TIP3    H173666   3.751   5.310  15.594 -1.1527 -0.0746 -1.4928
17417TIP3    H273667   3.716   5.215  15.706  0.4102 -0.3022 -1.1695
17418TIP3   OH273668   0.064   1.662  12.812 -0.2939 -0.0903  0.3463
17418TIP3    H173669  -0.022   1.677  12.772 -0.6174 -0.2007  0.9872
17418TIP3    H273670   0.074   1.567  12.813  1.2493 -0.0784 -2.6492
17419TIP3   OH273671   6.486   1.247   1.175  0.2760  0.7039 -0.2779
17419TIP3    H173672   6.430   1.315   1.213 -0.1499  1.3711 -2.0039
17419TIP3    H273673   6.575   1.282   1.182  0.1766  0.9419 -0.1783
17420TIP3   OH273674   0.141   1.302   1.765 -0.6572  0.2713 -0.0946
17420TIP3    H173675   0.140   1.229   1.702 -0.0599 -0.9149  1.2008
17420TIP3    H273676   0.088   1.370   1.723 -0.8139 -0.7011 -1.5889
17421TIP3   OH273677   1.494   3.397  14.735 -0.5043 -0.3333  0.2929
17421TIP3    H173678   1.480   3.470  14.675 -1.7952 -0.8884 -0.1084
17421TIP3    H273679   1.479   3.319  14.682  0.7384 -0.9148  0.7465
17422TIP3   OH273680   6.638   6.606   5.578  0.4441  0.0012 -0.0615
17422TIP3    H173681   6.719   6.562   5.553  0.1976 -0.3526 -0.2471
17422TIP3    H273682   6.575   6.581   5.510  0.0428 -0.1312  0.3534
17423TIP3   OH273683   1.169   2.214  13.124  0.4871 -0.2466 -0.6674
17423TIP3    H173684   1.221   2.172  13.192 -0.0597 -1.7035 -1.1056
17423TIP3    H273685   1.135   2.293  13.165  1.6164 -0.1721  0.1731
17424TIP3   OH273686   5.985   0.098  13.773 -0.0931  0.1256  0.4001
17424TIP3    H173687   5.966   0.070  13.862  0.9333 -0.5760  0.4158
17424TIP3    H273688   5.977   0.194  13.775 -2.3658 -0.0311  0.6693
17425TIP3   OH273689   4.906   5.294  15.188 -0.2053  0.0452 -0.2015
17425TIP3    H173690   4.869   5.332  15.108 -0.1744 -1.0917 -0.7655
17425TIP3    H273691   4.884   5.201  15.183  1.2325 -0.3475  0.2966
17426TIP3   OH273692   0.703   5.198   1.054  0.4515  0.6118 -0.1634
17426TIP3    H173693   0.748   5.219   0.972  2.0098 -1.8911 -0.0392
17426TIP3    H273694   0.638   5.132   1.031  1.2907 -0.5417  0.6617
17427TIP3   OH273695   3.410   2.986  11.901  0.4842 -0.2877  0.3331
17427TIP3    H173696   3.449   2.981  11.813  0.9205  1.5081  0.3755
17427TIP3    H273697   3.446   3.067  11.938 -0.1502 -0.7110  1.9561
17428TIP3   OH273698   4.677   5.878  10.469 -0.2437 -0.4528 -0.3605
17428TIP3    H173699   4.586   5.894  10.446  0.0210  1.1055 -0.4084
17428TIP3    H273700   4.728   5.930  10.406  0.7163 -1.7061 -0.6741
17429TIP3   OH273701   3.590   2.189  16.520 -0.1219  0.7235  0.0979
17429TIP3    H173702   3.533   2.159  16.449  1.2920 -1.0324 -0.3432
17429TIP3    H273703   3.538   2.176  16.600 -0.5679 -0.2557 -0.3399
17430TIP3   OH273704   6.671   1.261  11.398  0.0550 -0.3683 -0.0366
17430TIP3    H173705   6.708   1.281  11.484 -0.5786  0.5942  0.0229
17430TIP3    H273706   6.719   1.318  11.337 -0.2738 -0.2232 -0.1617
17431TIP3   OH273707   5.576   6.258  16.128  0.0454 -0.1486  0.2320
17431TIP3    H173708   5.640   6.187  16.131 -0.3219 -0.4683  0.7030
17431TIP3    H273709   5.628   6.337  16.111  0.4571 -0.5240 -0.2646
17432TIP3   OH273710   0.347   4.508   4.865  0.0625  0.2261 -0.4825
17432TIP3    H173711   0.400   4.509   4.786  0.2140  1.0644 -0.3790
17432TIP3    H273712   0.266   4.465   4.839  1.2892 -2.4370 -0.2846
17433TIP3   OH273713   5.024   1.477  16.186 -0.3830 -0.5686 -0.5895
17433TIP3    H173714   4.994   1.401  16.235 -2.3398 -0.8661 -2.0935
17433TIP3    H273715   4.946   1.533  16.178  1.0036  1.6946  0.5337
17434TIP3   OH273716   0.983   3.923   4.614  0.2645 -0.2475 -0.2299
17434TIP3    H173717   0.888   3.916   4.612  0.2558 -1.3417  1.5990
17434TIP3    H273718   1.000   4.011   4.647 -0.1104  0.0306 -0.7816
17435TIP3   OH273719   1.815   6.502  13.404  0.0922 -0.4306  0.3838
17435TIP3    H173720   1.836   6.550  13.324 -0.4187 -1.4248 -0.3749
17435TIP3    H273721   1.723   6.476  13.392 -0.0858 -0.3170  1.4397
17436TIP3   OH273722   6.074   2.578  17.214 -0.5811 -0.0142 -0.2901
17436TIP3    H173723   6.011   2.554  17.147  1.8261  0.8312 -3.0784
17436TIP3    H273724   6.089   2.672  17.202  1.9704 -0.3639 -0.5745
17437TIP3   OH273725   1.640   4.741   2.278  0.2786 -0.3634  0.2814
17437TIP3    H173726   1.715   4.712   2.330  0.2269 -0.6840  0.1773
17437TIP3    H273727   1.649   4.696   2.195  0.2969  0.0650  0.0488
17438TIP3   OH273728   4.727   2.496  10.626  0.1920 -0.0596  0.2093
17438TIP3    H173729   4.783   2.572  10.618 -0.0347  0.1682  0.7193
17438TIP3    H273730   4.783   2.422  10.603  1.0517  0.0376  1.8249
17439TIP3   OH273731   4.835   4.926  12.913  0.0516 -0.2995 -0.3859
17439TIP3    H173732   4.873   4.842  12.939  0.5585  0.1223  0.2952
17439TIP3    H273733   4.785   4.954  12.990  0.1411  0.1623 -0.4935
17440TIP3   OH273734   4.681   6.579   0.293  0.2876  0.7252  0.6787
17440TIP3    H173735   4.687   6.548   0.383 -0.6306  0.1605  0.5654
17440TIP3    H273736   4.588   6.592   0.278  0.4510  1.0854 -0.0996
17441TIP3   OH273737   0.880   2.415   2.574  0.1157  0.5222  0.2098
17441TIP3    H173738   0.798   2.402   2.527  0.7962 -0.0872 -0.8415
17441TIP3    H273739   0.884   2.342   2.636 -0.8035  1.3529  1.2935
17442TIP3   OH273740   5.381   4.126  14.572 -0.2878 -0.2073 -0.1553
17442TIP3    H173741   5.337   4.118  14.487 -0.1637  1.1023 -0.3618
17442TIP3    H273742   5.397   4.035  14.599 -1.0201 -0.6601 -1.1635
17443TIP3   OH273743   1.707   5.360  16.603  0.3591  0.9671 -0.1986
17443TIP3    H173744   1.719   5.398  16.516 -0.2294  0.6094 -0.4360
17443TIP3    H273745   1.796   5.343  16.634  0.5984  1.6625 -0.4739
17444TIP3   OH273746   1.737   0.292  14.400 -0.1796  0.3119  0.3568
17444TIP3    H173747   1.649   0.317  14.426  0.1152  1.2319  0.5378
17444TIP3    H273748   1.725   0.233  14.326 -0.9431  0.7240  0.1402
17445TIP3   OH273749   3.367   2.420  16.739  0.6215 -0.1088  0.1450
17445TIP3    H173750   3.455   2.427  16.777  1.5070  0.1462 -1.8361
17445TIP3    H273751   3.359   2.328  16.715  0.3655 -0.1155  0.2549
17446TIP3   OH273752   4.235   4.694  15.359  0.1024 -0.1417  0.0404
17446TIP3    H173753   4.276   4.698  15.446  0.9940  1.0485 -0.3996
17446TIP3    H273754   4.170   4.764  15.360  0.8708  0.6139 -0.5846
17447TIP3   OH273755   1.630   2.599  15.832  0.6861  0.0128  0.0993
17447TIP3    H173756   1.690   2.670  15.811  0.7222  0.2463  0.9324
17447TIP3    H273757   1.657   2.527  15.775  0.9768  0.5024 -0.3888
17448TIP3   OH273758   2.298   0.241   2.427 -0.0316 -0.5853 -0.0381
17448TIP3    H173759   2.273   0.311   2.367 -0.0841  0.0718  0.7341
17448TIP3    H273760   2.345   0.285   2.497  1.0124 -1.4893 -0.1532
17449TIP3   OH273761   6.480   5.828   5.563 -0.2190  0.1312  0.1894
17449TIP3    H173762   6.489   5.798   5.473  0.8979 -1.0469  0.6546
17449TIP3    H273763   6.552   5.889   5.577  1.7152 -2.2232  1.2016
17450TIP3   OH273764   2.677   6.124  12.928 -0.5424  0.1975  0.2003
17450TIP3    H173765   2.608   6.187  12.949 -2.1147 -1.9721  1.9859
17450TIP3    H273766   2.631   6.051  12.886  1.0503 -0.2879 -0.8000
17451TIP3   OH273767   2.302   2.207  10.630 -0.1360 -0.6687 -0.2824
17451TIP3    H173768   2.225   2.199  10.573 -0.4490  1.4427 -0.2419
17451TIP3    H273769   2.369   2.155  10.586 -1.3445 -1.8873 -0.7502
17452TIP3   OH273770   6.363   3.378   1.701 -0.0136  0.1123  0.3061
17452TIP3    H173771   6.375   3.454   1.758  0.1038  0.9079 -0.7668
17452TIP3    H273772   6.401   3.403   1.617 -0.0761 -1.0886 -0.1105
17453TIP3   OH273773   1.082   3.906  16.699 -0.3897  0.4659  0.0854
17453TIP3    H173774   1.064   3.916  16.605 -1.2596 -3.8223 -0.4434
17453TIP3    H273775   1.168   3.864  16.702 -0.9922 -0.7724  1.0327
17454TIP3   OH273776   0.844   3.624  17.123 -0.3052  0.1593  0.2518
17454TIP3    H173777   0.930   3.582  17.113  0.0346  0.9436 -0.2597
17454TIP3    H273778   0.816   3.599  17.211 -0.6940 -2.1214 -0.4596
17455TIP3   OH273779   2.261   2.159  14.901 -0.2632 -0.0115  0.2003
17455TIP3    H173780   2.206   2.209  14.962 -0.3434  0.6509 -0.4071
17455TIP3    H273781   2.226   2.070  14.905  0.1393 -0.1342  1.6064
17456TIP3   OH273782   6.021   4.846   1.685 -0.5273  0.8081 -0.1862
17456TIP3    H173783   6.033   4.830   1.779 -1.7178  0.8397 -0.0105
17456TIP3    H273784   5.928   4.828   1.669  0.1496 -1.5852 -1.8717
17457TIP3   OH273785   4.099   5.057   0.256  0.2969  0.6170  0.1396
17457TIP3    H173786   4.139   5.131   0.302  0.3956  1.6379 -1.4965
17457TIP3    H273787   4.037   5.020   0.319  1.1415  1.3149  1.4266
17458TIP3   OH273788   1.315   2.566   1.381  0.0446 -0.0716 -0.0465
17458TIP3    H173789   1.291   2.560   1.288 -0.0004 -1.5671  0.0352
17458TIP3    H273790   1.346   2.478   1.403  2.2831  0.8373  0.7731
17459TIP3   OH273791   2.356   1.414   0.255 -0.2897 -0.2766 -0.0369
17459TIP3    H173792   2.288   1.426   0.188 -1.3611 -0.1912  1.0196
17459TIP3    H273793   2.346   1.490   0.312  1.5550  0.3885 -0.5511
17460TIP3   OH273794   0.634   5.999   5.082  0.1623  0.5042 -0.3512
17460TIP3    H173795   0.714   5.987   5.031 -0.9238  0.2849 -2.0904
17460TIP3    H273796   0.611   5.911   5.113 -0.9235  0.0488 -2.3086
17461TIP3   OH273797   3.180   0.741  11.516 -0.2628  0.0863 -0.4329
17461TIP3    H173798   3.109   0.706  11.570 -0.3116  0.0620 -0.5117
17461TIP3    H273799   3.176   0.689  11.436 -0.2933  0.2296 -0.5250
17462TIP3   OH273800   4.540   3.126   3.688 -0.3797 -0.2854  0.6537
17462TIP3    H173801   4.604   3.161   3.750 -0.4259 -0.0160  0.5513
17462TIP3    H273802   4.515   3.042   3.724  1.0679 -1.0323 -0.0054
17463TIP3   OH273803   4.617   3.636   1.110  0.2318  0.5184 -0.1097
17463TIP3    H173804   4.599   3.724   1.144 -0.6885  0.4955 -0.5216
17463TIP3    H273805   4.711   3.637   1.091  0.1997  1.4773 -0.2872
17464TIP3   OH273806   0.140   2.054   1.004 -0.3394  0.8732 -0.4204
17464TIP3    H173807   0.068   2.011   1.051  1.2794  0.0674  1.4555
17464TIP3    H273808   0.127   2.029   0.912 -0.4685 -2.2371  0.3318
17465TIP3   OH273809   0.105   0.994  11.376  0.3179  0.3587  0.2079
17465TIP3    H173810   0.189   1.026  11.410 -0.1302 -0.6059  2.3617
17465TIP3    H273811   0.046   0.997  11.451 -1.8356  1.7085 -1.4237
17466TIP3   OH273812   0.914   5.241  16.386 -0.2949  0.4433 -0.3051
17466TIP3    H173813   0.940   5.215  16.474  1.1520  1.2556 -0.4550
17466TIP3    H273814   0.931   5.336  16.383 -0.3197  0.4235 -1.4542
17467TIP3   OH273815   2.706   4.924   1.269 -0.1929 -0.5459  0.9060
17467TIP3    H173816   2.672   4.847   1.225 -1.0055  1.1835 -1.7471
17467TIP3    H273817   2.658   4.927   1.352 -1.7342 -1.7162  0.1103
17468TIP3   OH273818   6.680   2.435   2.854 -0.0308  0.3437 -0.3292
17468TIP3    H173819   6.687   2.433   2.759 -0.5894  0.0140 -0.3696
17468TIP3    H273820   6.602   2.384   2.873  0.4238 -0.1108  0.3464
17469TIP3   OH273821   5.849   1.350   0.902  0.0936  0.2172  0.8991
17469TIP3    H173822   5.912   1.317   0.965  2.1443  2.7793  0.3313
17469TIP3    H273823   5.898   1.360   0.820 -1.8036 -0.4425 -0.4031
17470TIP3   OH273824   6.424   1.628   6.016  0.3856 -0.3137  0.1075
17470TIP3    H173825   6.375   1.585   5.945  0.3441 -1.8998  1.0407
17470TIP3    H273826   6.357   1.676   6.065 -0.0952 -1.5592  0.7191
17471TIP3   OH273827   3.314   3.762  16.307 -0.5194  0.1045 -0.1006
17471TIP3    H173828   3.277   3.673  16.302  0.4499 -0.3435  0.4602
17471TIP3    H273829   3.386   3.754  16.369 -0.4952  1.3218  0.0324
17472TIP3   OH273830   0.222   0.085   4.238  0.0545  0.4778 -0.0435
17472TIP3    H173831   0.290   0.096   4.173  0.7885 -0.4745  0.5350
17472TIP3    H273832   0.268   0.089   4.322 -0.3105 -1.8734  0.3196
17473TIP3   OH273833   2.915   4.609  13.836 -0.4139  0.1113 -0.2904
17473TIP3    H173834   2.903   4.650  13.922 -3.1547  1.3074 -1.0976
17473TIP3    H273835   2.866   4.527  13.841 -1.4230  0.6445 -0.9375
17474TIP3   OH273836   2.364   1.588  11.482  0.1366  0.6340 -1.0721
17474TIP3    H173837   2.274   1.575  11.452  0.1398  2.2821 -1.9503
17474TIP3    H273838   2.408   1.629  11.408  2.0506 -1.4627 -1.1987
17475TIP3   OH273839   0.142   1.050   4.085  0.6105  0.5075 -0.1982
17475TIP3    H173840   0.136   1.012   3.997 -1.2203 -0.5885  0.3537
17475TIP3    H273841   0.121   0.977   4.144  1.0705  1.4072  1.1237
17476TIP3   OH273842   1.584   0.431   4.592 -0.1888  0.0035  0.8502
17476TIP3    H173843   1.498   0.397   4.619 -0.4390 -0.4952 -0.5025
17476TIP3    H273844   1.566   0.521   4.564 -0.5202 -0.4457 -0.4908
17477TIP3   OH273845   4.545   1.666   1.608 -0.0038  1.0885  0.3172
17477TIP3    H173846   4.528   1.615   1.528 -0.7732  0.3284  0.9346
17477TIP3    H273847   4.619   1.621   1.649 -1.1575 -0.0644  1.2455
17478TIP3   OH273848   2.260   2.564  12.433  0.6341 -0.2701  0.1082
17478TIP3    H173849   2.176   2.595  12.468  1.3696  1.4697  0.4604
17478TIP3    H273850   2.242   2.476  12.402 -1.5088  0.3189 -0.4892
17479TIP3   OH273851   0.617   5.766   0.035 -0.0809  0.0156 -0.8220
17479TIP3    H173852   0.567   5.725   0.106  0.0696 -0.8072 -1.1756
17479TIP3    H273853   0.609   5.705  -0.038 -1.6009  1.6406 -2.0617
17480TIP3   OH273854   4.799   2.847  15.725 -0.3523 -0.0099  0.0962
17480TIP3    H173855   4.760   2.935  15.719 -1.0709 -0.2831  0.5891
17480TIP3    H273856   4.732   2.795  15.769 -0.6602 -1.2235 -1.7030
17481TIP3   OH273857   1.172   5.790  14.595 -0.0582  0.1485 -0.1727
17481TIP3    H173858   1.207   5.823  14.513 -0.5446  1.4809  0.1384
17481TIP3    H273859   1.222   5.836  14.663 -0.3688 -0.1598  0.2746
17482TIP3   OH273860   5.100   1.901   3.480 -0.0285 -0.2023  0.0772
17482TIP3    H173861   5.035   1.872   3.543  0.5216  1.8601  1.7074
17482TIP3    H273862   5.068   1.986   3.450  1.3549  0.3377  0.0691
17483TIP3   OH273863   2.256   3.895  13.250  0.3736 -0.1944 -0.4262
17483TIP3    H173864   2.252   3.802  13.273  0.2531 -0.0313  0.2230
17483TIP3    H273865   2.316   3.934  13.314 -1.4075  0.6120  0.8582
17484TIP3   OH273866   3.279   3.867   3.437  0.2463 -0.2788  0.4292
17484TIP3    H173867   3.311   3.792   3.387 -2.6236  0.6410 -3.2268
17484TIP3    H273868   3.346   3.934   3.426 -0.3942 -0.0048 -2.7476
17485TIP3   OH273869   5.752   2.439  15.501 -0.2671  0.6038 -0.6778
17485TIP3    H173870   5.683   2.442  15.568 -0.3502  1.5987 -0.7941
17485TIP3    H273871   5.751   2.526  15.462  2.6325  1.4802  0.9191
17486TIP3   OH273872   3.538   6.305   0.980 -0.0587  0.0322  0.5556
17486TIP3    H173873   3.489   6.383   1.004  1.2450  1.1930 -0.3712
17486TIP3    H273874   3.471   6.243   0.950 -1.1297  0.7195  1.4413
17487TIP3   OH273875   6.410   1.352  13.885 -0.8026  0.2002  0.1637
17487TIP3    H173876   6.329   1.349  13.937 -0.7585 -0.1746  0.2076
17487TIP3    H273877   6.381   1.376  13.797 -0.7945  1.6906  0.5387
17488TIP3   OH273878   4.931   5.745   0.450  0.2695  0.3203  0.4024
17488TIP3    H173879   4.954   5.829   0.490 -0.2053  0.4527  0.3931
17488TIP3    H273880   4.856   5.714   0.500  0.7097 -0.3134  0.6903
17489TIP3   OH273881   2.060   1.389   5.903  0.0060 -0.1470  0.2830
17489TIP3    H173882   2.082   1.301   5.935  1.3096 -0.1688 -0.6118
17489TIP3    H273883   2.049   1.378   5.808  0.5701  0.7134  0.1043
17490TIP3   OH273884   1.277   5.651   3.909 -0.4240 -0.1410  0.4785
17490TIP3    H173885   1.248   5.561   3.925 -0.5673 -0.6164 -2.1462
17490TIP3    H273886   1.216   5.705   3.960 -1.9342 -1.4073  0.0854
17491TIP3   OH273887   0.969   3.588   4.790 -0.5645  0.2609  0.3828
17491TIP3    H173888   1.006   3.521   4.848  1.2983 -0.2582 -1.3170
17491TIP3    H273889   0.963   3.666   4.844 -0.6583 -0.6668  1.7802
17492TIP3   OH273890   4.346   2.098   6.014  0.0030  0.0175 -0.1539
17492TIP3    H173891   4.253   2.106   5.996 -0.2097  0.6117  1.0778
17492TIP3    H273892   4.376   2.189   6.024  0.8948 -0.1252 -1.3500
17493TIP3   OH273893   3.982   0.511  15.433  0.0842  0.1206 -0.2576
17493TIP3    H173894   3.993   0.425  15.393  0.3417 -0.0348  0.1471
17493TIP3    H273895   3.905   0.501  15.489  0.8477 -0.2131  0.7637
17494TIP3   OH273896   1.631   4.488  14.660  0.4902  0.0927 -0.5807
17494TIP3    H173897   1.605   4.422  14.725  1.1158 -0.3980 -0.8210
17494TIP3    H273898   1.610   4.448  14.576  2.4215 -0.5236 -0.8134
17495TIP3   OH273899   2.111   0.480   0.581 -0.0609  0.5810  0.8937
17495TIP3    H173900   2.197   0.449   0.551 -0.6615 -0.5806  0.3418
17495TIP3    H273901   2.099   0.562   0.533 -1.1243 -1.3471 -2.5021
17496TIP3   OH273902   5.177   4.276   3.132 -0.0248 -0.3396 -0.3963
17496TIP3    H173903   5.121   4.203   3.157 -1.8293  0.2346 -2.4272
17496TIP3    H273904   5.180   4.272   3.036 -0.8102  2.6321 -0.6521
17497TIP3   OH273905   1.853   1.405   5.405 -0.5985  0.1554 -0.1398
17497TIP3    H173906   1.932   1.389   5.456 -1.6186  3.1111  2.8104
17497TIP3    H273907   1.883   1.453   5.328  0.5694  1.3172  0.9774
17498TIP3   OH273908   0.173   0.373  14.809  0.6247 -0.3896 -0.5991
17498TIP3    H173909   0.198   0.463  14.827 -1.4821  0.3324 -1.0156
17498TIP3    H273910   0.220   0.350  14.729 -0.3919  1.0818 -1.6613
17499TIP3   OH273911   6.161   4.734  14.915 -0.5882 -0.0271  0.7559
17499TIP3    H173912   6.233   4.741  14.852  0.2664  1.5280  1.8345
17499TIP3    H273913   6.093   4.686  14.868  0.0539  0.9476 -1.3278
17500TIP3   OH273914   4.412   0.637   5.087  0.1796  0.7151 -0.1011
17500TIP3    H173915   4.485   0.628   5.027 -1.8946 -0.2570 -2.6816
17500TIP3    H273916   4.424   0.566   5.150  1.1898  0.2565 -0.7927
17501TIP3   OH273917   3.304   6.631   4.645  0.0126  0.0492  0.5646
17501TIP3    H173918   3.281   6.542   4.618  1.7823 -0.4787  0.6881
17501TIP3    H273919   3.264   6.688   4.579 -0.8534 -0.8468  0.2982
17502TIP3   OH273920   1.741   1.781  14.824  0.1031 -0.5867 -0.0136
17502TIP3    H173921   1.783   1.780  14.738  0.2779  2.7869 -0.0936
17502TIP3    H273922   1.814   1.770  14.886  0.0059 -2.7669 -0.2231
17503TIP3   OH273923   1.707   3.272  10.817 -0.2090  0.6703 -0.4738
17503TIP3    H173924   1.639   3.222  10.772 -0.4012  1.4322 -1.0311
17503TIP3    H273925   1.663   3.307  10.895  0.1119 -0.6040  0.3215
17504TIP3   OH273926   4.034   6.076   5.713  0.1437  0.1852  0.3368
17504TIP3    H173927   4.041   5.987   5.747 -1.8055  0.1360  0.7046
17504TIP3    H273928   4.106   6.124   5.756  0.7203 -1.0040  0.7376
17505TIP3   OH273929   4.688   1.517  17.256 -0.3399 -0.4761  0.8978
17505TIP3    H173930   4.635   1.547  17.182  0.6098 -0.2832  0.2787
17505TIP3    H273931   4.624   1.485  17.320 -1.2065 -0.0675  0.2561
17506TIP3   OH273932   1.286   0.641   0.489  0.0239 -0.2191 -0.0496
17506TIP3    H173933   1.286   0.690   0.571 -3.0080 -3.1273  1.9586
17506TIP3    H273934   1.194   0.617   0.476  0.9025 -2.7417 -2.5101
17507TIP3   OH273935   4.828   3.203  12.748  0.7040  0.2443 -0.3281
17507TIP3    H173936   4.870   3.255  12.680 -1.0259  2.0174 -0.1419
17507TIP3    H273937   4.805   3.121  12.706  0.4248  0.9759 -1.6375
17508TIP3   OH273938   4.503   2.336   5.202 -0.0416 -0.1680  0.2820
17508TIP3    H173939   4.552   2.340   5.284  0.3925  0.1006  0.0133
17508TIP3    H273940   4.468   2.424   5.191  0.3511 -0.0564 -0.0908
17509TIP3   OH273941   3.027   1.244   3.504  0.2982  0.2947  0.0723
17509TIP3    H173942   2.996   1.206   3.587 -1.2951  0.7831 -0.2626
17509TIP3    H273943   3.102   1.298   3.529  2.4155 -2.6445  0.6274
17510TIP3   OH273944   1.470   2.046  15.072 -0.3068 -0.5113  0.1070
17510TIP3    H173945   1.518   2.126  15.049 -1.0646  0.4540  1.7038
17510TIP3    H273946   1.528   2.001  15.134 -0.2073 -0.8424 -0.2199
17511TIP3   OH273947   4.278   5.663  10.492 -0.3064 -0.4754  0.5836
17511TIP3    H173948   4.355   5.609  10.473 -0.2529 -0.0415 -0.5615
17511TIP3    H273949   4.221   5.607  10.544  0.6570 -0.9004  1.2038
17512TIP3   OH273950   2.448   0.415   3.282  0.1126 -0.3260 -0.1537
17512TIP3    H173951   2.354   0.432   3.296 -0.0451 -0.5235 -0.9703
17512TIP3    H273952   2.459   0.322   3.303  0.7017  0.3042  2.8457
17513TIP3   OH273953   5.452   4.301  11.891  0.2748 -0.6280  0.3818
17513TIP3    H173954   5.501   4.383  11.883  0.0938 -0.6261 -0.9139
17513TIP3    H273955   5.452   4.264  11.803 -0.7877 -1.3585  0.6613
17514TIP3   OH273956   6.729   4.542  14.949 -0.4315 -0.0981  0.1221
17514TIP3    H173957   6.760   4.459  14.983 -1.3408 -0.3599  0.3309
17514TIP3    H273958   6.650   4.561  14.999 -0.5282  0.6258 -0.2873
17515TIP3   OH273959   5.288   0.617   3.134  0.5233 -0.1792  0.0325
17515TIP3    H173960   5.307   0.542   3.190 -0.3219 -0.0282  0.5326
17515TIP3    H273961   5.262   0.579   3.050 -1.9838 -0.5573  0.9001
17516TIP3   OH273962   2.365   6.706  14.171 -0.4451 -0.1742  0.7880
17516TIP3    H173963   2.277   6.669  14.177 -0.4940 -0.0319  0.9678
17516TIP3    H273964   2.395   6.711  14.261 -1.5743  2.9150  1.1177
17517TIP3   OH273965   2.377   2.657  11.243  0.1162  0.4651 -0.5847
17517TIP3    H173966   2.456   2.686  11.199  0.7030  0.9964  0.7757
17517TIP3    H273967   2.313   2.726  11.226 -0.3409 -0.3463 -2.3671
17518TIP3   OH273968   3.904   4.127  14.157  0.2017  0.9697  0.2171
17518TIP3    H173969   3.994   4.119  14.189  0.3766 -1.4647 -0.6914
17518TIP3    H273970   3.855   4.062  14.207 -0.2967 -0.2210 -1.7476
17519TIP3   OH273971   0.024   1.786   3.445 -0.0123 -0.4902 -0.0767
17519TIP3    H173972   0.045   1.854   3.381  0.2578 -1.2201 -0.7810
17519TIP3    H273973   0.108   1.748   3.469 -0.2763 -1.7011 -0.9716
17520TIP3   OH273974   4.014   0.959  11.323  0.2135 -0.1795  0.0001
17520TIP3    H173975   4.009   0.960  11.227  1.7444  2.0198 -0.1401
17520TIP3    H273976   4.055   0.876  11.344 -0.4207 -0.8261 -1.2127
17521TIP3   OH273977   5.436   5.940   4.234  0.1065  0.4595 -0.2115
17521TIP3    H173978   5.461   6.021   4.188  0.0719 -0.0319 -1.1128
17521TIP3    H273979   5.343   5.951   4.253  0.0659  0.5593 -0.4714
17522TIP3   OH273980   2.949   4.925  11.373  0.0819  0.1525 -0.8581
17522TIP3    H173981   2.895   5.000  11.350 -0.2409 -0.6126 -2.7922
17522TIP3    H273982   2.941   4.865  11.298  1.7470 -1.0204 -0.1756
17523TIP3   OH273983   2.930   5.819  12.731  0.0002 -0.5534  0.2962
17523TIP3    H173984   2.839   5.824  12.701  0.2412  1.1032 -0.2137
17523TIP3    H273985   2.953   5.908  12.755  0.7702 -1.3132  2.6879
17524TIP3   OH273986   6.420   3.452   1.160 -0.0627 -0.1304  0.0314
17524TIP3    H173987   6.443   3.366   1.125 -0.3322  0.2412 -1.1185
17524TIP3    H273988   6.325   3.455   1.155 -0.1050 -0.0661  0.8167
17525TIP3   OH273989   5.889   1.066  10.511  0.3531  0.9449  0.4055
17525TIP3    H173990   5.834   1.031  10.441  1.6300 -1.1324  0.3689
17525TIP3    H273991   5.963   1.107  10.466  0.2301  1.3097  0.5256
17526TIP3   OH273992   3.268   2.663   2.971  0.4898  0.1058 -0.1362
17526TIP3    H173993   3.232   2.708   2.895  1.1263  0.4051 -0.2579
17526TIP3    H273994   3.221   2.701   3.045 -0.0557 -0.1128 -0.3556
17527TIP3   OH273995   5.116   4.240   5.116  0.1937  0.4066 -0.8321
17527TIP3    H173996   5.157   4.192   5.044  1.0750  0.1706 -0.1811
17527TIP3    H273997   5.110   4.330   5.085  1.1708  0.4365 -0.9585
17528TIP3   OH273998   0.466   0.437  14.926 -0.4195  0.0956  0.0646
17528TIP3    H173999   0.540   0.489  14.958 -0.6130  0.3651  0.0786
17528TIP3    H274000   0.399   0.502  14.903 -1.6255 -0.1863  2.4369
17529TIP3   OH274001   0.234   4.543   0.232 -0.7011  0.5721  0.1449
17529TIP3    H174002   0.149   4.517   0.269 -0.2700  0.2905  0.9833
17529TIP3    H274003   0.238   4.499   0.147 -1.1953  0.2008  0.3079
17530TIP3   OH274004   3.447   1.117   4.901 -0.0801 -0.0342 -0.1486
17530TIP3    H174005   3.427   1.180   4.971 -2.2584  1.2248 -1.7834
17530TIP3    H274006   3.495   1.168   4.836  0.2873 -0.7053 -0.4116
17531TIP3   OH274007   3.796   4.504  15.588  0.1325  0.0717  0.1029
17531TIP3    H174008   3.794   4.443  15.661  2.5184 -0.0566  0.1495
17531TIP3    H274009   3.889   4.517  15.570 -0.3142 -0.1863 -3.1346
17532TIP3   OH274010   5.192   5.647   3.384  0.0886 -0.3244  0.0126
17532TIP3    H174011   5.203   5.740   3.403 -0.3079 -0.0263 -1.1189
17532TIP3    H274012   5.223   5.637   3.294  0.8190 -1.4373  0.3707
17533TIP3   OH274013   2.628   4.099   3.431 -0.1731 -1.0877 -0.0760
17533TIP3    H174014   2.678   4.139   3.359 -0.3869 -1.2932 -0.3400
17533TIP3    H274015   2.693   4.084   3.500 -0.2193  0.4410  0.3391
17534TIP3   OH274016   3.520   4.996   5.762 -0.0202 -0.1214 -0.4001
17534TIP3    H174017   3.506   4.931   5.831  0.4861  1.5128  1.3411
17534TIP3    H274018   3.442   4.990   5.707 -0.4065 -1.5239  0.2652
17535TIP3   OH274019   0.007   0.996  16.236 -0.1264  0.3403  0.0852
17535TIP3    H174020  -0.017   1.087  16.215 -1.5394  0.0399  0.3118
17535TIP3    H274021  -0.069   0.962  16.284  0.6367 -0.7850  0.5151
17536TIP3   OH274022   5.551   4.577  16.795  0.3629 -0.2928  0.3308
17536TIP3    H174023   5.571   4.488  16.767 -0.6604 -1.0506  1.8792
17536TIP3    H274024   5.514   4.619  16.717 -0.5458 -1.6966 -0.0214
17537TIP3   OH274025   0.329   6.309   0.113  0.3266  0.1802 -0.3633
17537TIP3    H174026   0.413   6.336   0.152  1.0465 -2.7711  0.3876
17537TIP3    H274027   0.317   6.369   0.040  2.5386  1.4122  0.1644
17538TIP3   OH274028   3.048   4.475   4.946  0.3729  0.4163 -0.6990
17538TIP3    H174029   3.014   4.398   4.991  2.5245 -0.6655 -0.7998
17538TIP3    H274030   3.094   4.524   5.014  1.0771  0.3404 -1.1151
17539TIP3   OH274031   0.511   5.838   1.656 -0.7892  0.1491  0.3728
17539TIP3    H174032   0.599   5.842   1.619 -0.3724  0.3134  1.3547
17539TIP3    H274033   0.482   5.929   1.659 -1.2763  0.0437 -0.5654
17540TIP3   OH274034   5.289   1.699  13.913 -0.0140 -0.0669 -0.3975
17540TIP3    H174035   5.361   1.699  13.850  0.2216  0.0123 -0.1312
17540TIP3    H274036   5.313   1.633  13.978  0.5595  0.9983  0.5131
17541TIP3   OH274037   1.146   6.533  15.060  0.4570  0.6977 -0.1308
17541TIP3    H174038   1.160   6.438  15.055 -2.1724  0.1326  1.6532
17541TIP3    H274039   1.154   6.562  14.969 -0.4541 -1.5336 -1.0126
17542TIP3   OH274040   1.977   6.338  13.563  0.1048 -0.3672  0.0281
17542TIP3    H174041   1.908   6.358  13.499 -0.5997 -0.7925  0.6412
17542TIP3    H274042   1.942   6.371  13.646 -0.0795 -2.0170  0.6414
17543TIP3   OH274043   3.178   3.280  17.248  0.4258  0.0760 -0.1647
17543TIP3    H174044   3.208   3.325  17.327 -0.2623 -2.0864  1.4223
17543TIP3    H274045   3.105   3.335  17.216 -0.6511 -0.0413  1.9215
17544TIP3   OH274046   2.159   2.557   4.698 -0.2354  0.0047 -0.1025
17544TIP3    H174047   2.238   2.558   4.643 -0.1266 -0.0044  0.0554
17544TIP3    H274048   2.148   2.648   4.726  0.6104 -0.2627  1.1649
17545TIP3   OH274049   3.863   3.906  11.370  0.4920  0.0986 -0.1058
17545TIP3    H174050   3.938   3.925  11.426 -0.4763  0.6755  1.0451
17545TIP3    H274051   3.848   3.812  11.381  0.4294  0.1738  0.4438
17546TIP3   OH274052   1.325   5.819  13.122  0.4410  0.2083  0.1719
17546TIP3    H174053   1.358   5.829  13.211  1.8437 -1.3691 -0.1287
17546TIP3    H274054   1.311   5.725  13.112 -0.6858  0.4683 -0.9559
17547TIP3   OH274055   4.768   1.299  13.862  0.3853  0.6494 -0.1397
17547TIP3    H174056   4.716   1.360  13.809  1.7729  0.7683 -1.4195
17547TIP3    H274057   4.766   1.217  13.813  0.2819  0.2674  0.4970
17548TIP3   OH274058   2.918   1.308   1.926 -0.5227 -0.4968 -0.1523
17548TIP3    H174059   2.856   1.253   1.973 -1.3224  0.2367 -0.3139
17548TIP3    H274060   2.956   1.365   1.993  1.2074 -2.0195  0.2215
17549TIP3   OH274061   3.664   6.597   0.374  0.5190  0.0424  0.3326
17549TIP3    H174062   3.710   6.525   0.331  1.2334 -1.4089  3.2362
17549TIP3    H274063   3.595   6.554   0.425 -0.5531  1.6819  0.3250
17550TIP3   OH274064   0.555   1.027   2.154  0.3539 -0.0466  0.0197
17550TIP3    H174065   0.602   0.955   2.196  0.4123  0.3939  0.7201
17550TIP3    H274066   0.542   0.998   2.063 -0.1781 -1.2035  0.4542
17551TIP3   OH274067   3.261   5.797   2.658 -0.6628 -0.6800  0.0693
17551TIP3    H174068   3.307   5.732   2.606 -1.8140 -1.6433  0.2185
17551TIP3    H274069   3.180   5.754   2.686 -1.0500  0.5152  0.9081
17552TIP3   OH274070   5.837   1.895  16.257  0.1982 -0.4432  0.5993
17552TIP3    H174071   5.859   1.987  16.246 -0.3528 -0.3165  0.5399
17552TIP3    H274072   5.917   1.848  16.231  0.9703  0.0414  1.9786
17553TIP3   OH274073   2.212   5.719  13.029  0.0154 -0.2528 -0.1180
17553TIP3    H174074   2.205   5.783  13.100 -3.9134 -1.4418  0.8133
17553TIP3    H274075   2.208   5.772  12.949 -1.3638  0.8129  0.6206
17554TIP3   OH274076   2.879   6.230  17.220 -0.4891  0.0684  0.1221
17554TIP3    H174077   2.873   6.141  17.188 -0.9535  0.3689 -0.6610
17554TIP3    H274078   2.882   6.222  17.315  0.4575 -0.8189  0.0223
17555TIP3   OH274079   5.476   2.892  13.976 -0.4127 -0.1323 -0.2996
17555TIP3    H174080   5.413   2.875  13.907 -0.6096  1.2775 -0.4896
17555TIP3    H274081   5.561   2.874  13.936 -0.3670  2.4844 -1.5870
17556TIP3   OH274082   2.767   5.252   2.332  0.4760 -0.7060  0.6150
17556TIP3    H174083   2.689   5.303   2.354  2.9413  3.6910  0.1867
17556TIP3    H274084   2.756   5.230   2.239 -0.0172  0.4441  0.3851
17557TIP3   OH274085   4.095   2.990   2.350 -0.2406 -0.3144 -0.2880
17557TIP3    H174086   4.183   2.953   2.345 -0.2939 -0.4358 -0.3330
17557TIP3    H274087   4.070   2.982   2.442  1.1584  2.8780  0.4948
17558TIP3   OH274088   5.919   3.496  12.420  0.1891  0.4633  0.3125
17558TIP3    H174089   5.842   3.442  12.436 -0.1675  0.4513 -1.3386
17558TIP3    H274090   5.959   3.506  12.507 -1.4727  0.2025  1.1444
17559TIP3   OH274091   6.121   1.654   2.785 -0.1262 -0.6503  0.5274
17559TIP3    H174092   6.036   1.617   2.808 -0.1472 -1.2730 -0.4845
17559TIP3    H274093   6.184   1.593   2.824 -0.1331 -0.1562  1.3287
17560TIP3   OH274094   1.295   1.338   5.552 -0.0452 -0.0832  0.2557
17560TIP3    H174095   1.374   1.325   5.603  1.3695  0.2748 -1.7354
17560TIP3    H274096   1.272   1.250   5.520 -0.0857 -0.1009  0.3347
17561TIP3   OH274097   0.487   1.856  14.833  0.2580 -0.3790 -0.3111
17561TIP3    H174098   0.483   1.904  14.916  3.2772 -0.0625 -0.2185
17561TIP3    H274099   0.496   1.925  14.767  2.1234 -0.6917 -0.4252
17562TIP3   OH274100   6.104   0.868   5.733 -0.1660 -1.0086 -0.0105
17562TIP3    H174101   6.141   0.898   5.816 -2.8304 -0.1272  0.9584
17562TIP3    H274102   6.126   0.938   5.671 -0.5475 -0.2947  0.6391
17563TIP3   OH274103   5.744   4.412  14.748  0.3785 -0.1576  0.2940
17563TIP3    H174104   5.729   4.397  14.655 -0.0279  0.8100  0.2003
17563TIP3    H274105   5.658   4.406  14.788  0.6201 -1.1457  0.7108
17564TIP3   OH274106   0.556   4.007  12.681 -0.5785 -0.1879 -0.1831
17564TIP3    H174107   0.542   3.913  12.693 -1.5015  0.2004  2.6058
17564TIP3    H274108   0.502   4.030  12.606  0.8835 -2.0803 -1.9195
17565TIP3   OH274109   4.365   0.576  11.396 -0.6517  0.5154  0.4655
17565TIP3    H174110   4.420   0.635  11.344 -0.3312 -0.6917 -0.6086
17565TIP3    H274111   4.383   0.601  11.487  3.1340 -0.9632  0.3038
17566TIP3   OH274112   5.955   6.024   0.561  0.1381 -0.0550  0.2571
17566TIP3    H174113   5.976   5.938   0.524  2.9948  0.1773  1.1297
17566TIP3    H274114   6.010   6.030   0.640 -2.5599  1.1934  2.2027
17567TIP3   OH274115   4.281   5.715  12.836  0.5387 -0.2723  0.2238
17567TIP3    H174116   4.302   5.678  12.921 -0.6253 -0.9591  0.2210
17567TIP3    H274117   4.339   5.792  12.829  0.6547 -0.2041  1.6151
17568TIP3   OH274118   3.480   2.285   5.572 -0.3778 -0.2365 -0.0704
17568TIP3    H174119   3.480   2.303   5.478  0.7384  0.4073  0.0389
17568TIP3    H274120   3.460   2.191   5.578  0.9897 -0.6275 -1.0486
17569TIP3   OH274121   0.972   5.706  16.637  0.0964 -0.1044 -0.7735
17569TIP3    H174122   1.032   5.738  16.570  0.2929 -1.9226 -1.5357
17569TIP3    H274123   1.029   5.673  16.707 -0.1096  2.1626  0.5511
17570TIP3   OH274124   2.424   6.652   5.988  0.2660  0.5689  0.0186
17570TIP3    H174125   2.372   6.714   6.040  1.9198  3.1949 -1.2470
17570TIP3    H274126   2.513   6.685   5.993  1.0748 -1.1925 -1.5401
17571TIP3   OH274127   0.496   3.467   0.559  0.5151 -0.4565 -0.3607
17571TIP3    H174128   0.562   3.398   0.553  1.3134  0.3108 -0.4957
17571TIP3    H274129   0.491   3.504   0.471 -0.4929 -0.8482 -0.4889
17572TIP3   OH274130   4.390   3.716   4.125  0.1392 -0.3395 -0.1976
17572TIP3    H174131   4.374   3.627   4.155 -2.5425 -0.0768 -0.5615
17572TIP3    H274132   4.386   3.770   4.204 -1.7020 -0.2160 -0.3345
17573TIP3   OH274133   2.808   4.547  11.317  0.3816  0.0987 -0.0184
17573TIP3    H174134   2.835   4.524  11.228 -0.9930  3.3315 -1.4616
17573TIP3    H274135   2.715   4.568  11.309  0.1953  0.3654  2.2367
17574TIP3   OH274136   0.915   6.683  11.882 -0.4476 -0.2331 -0.1425
17574TIP3    H174137   0.851   6.682  11.811 -0.4874 -2.3655 -0.1221
17574TIP3    H274138   0.985   6.739  11.849  0.1966 -2.2733 -2.5428
17575TIP3   OH274139   0.560   5.722  12.104 -0.2205 -0.0275  0.5568
17575TIP3    H174140   0.550   5.803  12.054 -0.3098 -0.1879  0.3095
17575TIP3    H274141   0.654   5.712  12.116 -0.2289  0.3148  0.9292
17576TIP3   OH274142   2.217   1.001  15.477  0.1528 -0.1718  0.0520
17576TIP3    H174143   2.184   0.964  15.396 -0.2818  1.4375 -0.5478
17576TIP3    H274144   2.215   0.929  15.539  0.9992 -1.5889 -1.4861
17577TIP3   OH274145   6.709   4.096   1.204 -0.0946  0.3616  0.4064
17577TIP3    H174146   6.638   4.033   1.213  0.0443 -0.0848 -1.2778
17577TIP3    H274147   6.667   4.181   1.217 -0.8151  0.0614  0.1134
17578TIP3   OH274148   3.059   2.523  13.245 -0.1617 -0.1773 -0.2768
17578TIP3    H174149   3.133   2.551  13.190  1.4878 -2.6565  0.5209
17578TIP3    H274150   3.095   2.518  13.333 -1.4491 -0.8417  0.2357
17579TIP3   OH274151   1.502   3.556  11.179 -0.5562  0.3671  0.1155
17579TIP3    H174152   1.461   3.486  11.128  0.7761  1.1279 -2.1634
17579TIP3    H274153   1.428   3.602  11.219 -1.6972 -0.3052 -1.1007
17580TIP3   OH274154   4.999   3.678  12.030 -0.3874  0.1009  0.4737
17580TIP3    H174155   5.086   3.711  12.007 -0.7804  1.4524  0.7966
17580TIP3    H274156   4.942   3.754  12.020 -1.1547 -0.1534  2.4767
17581TIP3   OH274157   0.203   3.840   0.204  0.5647 -0.1207 -0.1338
17581TIP3    H174158   0.162   3.827   0.119 -1.1259  0.6080  0.5214
17581TIP3    H274159   0.243   3.927   0.198  1.7927 -0.6960 -0.6619
17582TIP3   OH274160   6.450   1.602  12.685 -0.7218  0.8102 -0.6963
17582TIP3    H174161   6.517   1.536  12.665 -1.7635  0.1047 -2.0374
17582TIP3    H274162   6.492   1.685  12.662  0.8028  0.7434  1.5265
17583TIP3   OH274163   1.882   0.948   2.318 -0.8075  0.2947 -0.4362
17583TIP3    H174164   1.907   1.036   2.288  0.1445  0.1375 -0.1401
17583TIP3    H274165   1.961   0.895   2.306 -0.1011  0.3768  2.9081
17584TIP3   OH274166   5.926   6.146   5.620 -0.6826  0.1450 -0.6984
17584TIP3    H174167   5.898   6.140   5.711 -0.5365 -0.9455 -0.7106
17584TIP3    H274168   5.930   6.055   5.589 -0.3846  0.4695 -1.6861
17585TIP3   OH274169   3.838   2.404  14.272 -0.6249  0.0852  0.3967
17585TIP3    H174170   3.850   2.497  14.291 -1.8802  0.4252 -0.3797
17585TIP3    H274171   3.750   2.384  14.302 -0.6394 -0.6699 -0.1286
17586TIP3   OH274172   0.391   1.524   3.390  0.1363  0.4048  0.2137
17586TIP3    H174173   0.364   1.471   3.465  0.9086 -0.8055 -0.3288
17586TIP3    H274174   0.480   1.494   3.370  0.2468  1.2690 -0.6900
17587TIP3   OH274175   1.236   0.031  14.343 -0.2008 -0.0880  0.2925
17587TIP3    H174176   1.245   0.039  14.438 -0.7722 -1.1305  0.4457
17587TIP3    H274177   1.322   0.055  14.309 -0.8335  3.5453  0.8259
17588TIP3   OH274178   6.323   3.543  16.798  0.2344 -0.2331  0.1846
17588TIP3    H174179   6.264   3.614  16.775  0.4050 -0.5404 -1.3062
17588TIP3    H274180   6.405   3.586  16.820  1.0975  0.0319 -3.0208
17589TIP3   OH274181   2.626   1.430  11.524 -0.2614 -0.3115  0.0588
17589TIP3    H174182   2.594   1.368  11.590 -0.1240 -1.1490 -0.6380
17589TIP3    H274183   2.547   1.473  11.491 -0.4671 -0.7817 -0.0858
17590TIP3   OH274184   2.609   1.597  16.908  0.3237  0.1829 -0.1444
17590TIP3    H174185   2.702   1.611  16.925 -0.1271  2.0289  1.0960
17590TIP3    H274186   2.571   1.575  16.993 -0.4643 -0.0256 -0.5331
17591TIP3   OH274187   5.841   5.904   0.058 -0.4835 -0.0141  0.0018
17591TIP3    H174188   5.853   5.989   0.102  0.0942 -0.0104 -0.1567
17591TIP3    H274189   5.746   5.894   0.053 -0.5910  1.2354 -1.1477
17592TIP3   OH274190   0.615   5.485  12.817 -0.4260  0.7650  0.2956
17592TIP3    H174191   0.693   5.540  12.810  0.5993 -0.5567  0.9211
17592TIP3    H274192   0.545   5.538  12.778  0.7418  2.0287 -0.1752
17593TIP3   OH274193   0.434   2.330  15.084  0.4546  0.6929  0.5806
17593TIP3    H174194   0.378   2.407  15.099  0.3971  1.0869 -1.4428
17593TIP3    H274195   0.516   2.367  15.050  0.6344 -0.1023  0.1381
17594TIP3   OH274196   3.322   1.273   5.082  0.6205  0.3160 -0.4067
17594TIP3    H174197   3.258   1.301   5.016  0.2838 -0.8075 -0.5782
17594TIP3    H274198   3.293   1.315   5.163 -1.7597 -1.9182  0.0544
17595TIP3   OH274199   6.498   5.305   1.711 -0.4737  0.0771  0.3634
17595TIP3    H174200   6.451   5.359   1.774 -0.2748  2.1831 -1.1870
17595TIP3    H274201   6.432   5.284   1.644 -0.5238 -1.6061  0.8881
17596TIP3   OH274202   5.098   5.199  12.315 -0.0464  0.4730  0.0570
17596TIP3    H174203   5.140   5.242  12.240  0.1197 -0.0995 -0.1811
17596TIP3    H274204   5.148   5.119  12.328 -1.1041 -0.2586 -0.2760
17597TIP3   OH274205   6.364   5.847   2.288  0.2516 -0.3431 -0.1104
17597TIP3    H174206   6.315   5.815   2.212  1.1144 -2.9736  0.3226
17597TIP3    H274207   6.337   5.789   2.359 -0.5262  2.0402  1.6656
17598TIP3   OH274208   4.908   2.291  10.588  0.1190  0.6500 -0.2026
17598TIP3    H174209   4.994   2.268  10.551 -0.1210 -0.3356 -0.1575
17598TIP3    H274210   4.916   2.270  10.681 -0.1414  0.6636 -0.1776
17599TIP3   OH274211   4.876   1.162   4.530  0.0104 -0.3841 -0.0607
17599TIP3    H174212   4.789   1.177   4.492 -1.5056 -1.2657  2.7207
17599TIP3    H274213   4.886   1.067   4.529  2.1938 -0.2301 -2.6805
17600TIP3   OH274214   2.272   3.362   1.715 -0.1324 -0.4634  0.0249
17600TIP3    H174215   2.364   3.380   1.735 -0.1067 -1.4441  0.8572
17600TIP3    H274216   2.246   3.434   1.657  1.3733 -0.5941 -0.8869
17601TIP3   OH274217   6.177   1.888  16.874 -0.1697 -0.1233 -0.2398
17601TIP3    H174218   6.243   1.946  16.911 -1.0226 -0.5848  2.1884
17601TIP3    H274219   6.219   1.802  16.872  0.2404  0.0722 -1.4967
17602TIP3   OH274220   6.294   3.025   5.563 -0.7703  0.0627  0.2670
17602TIP3    H174221   6.311   3.023   5.657  2.0902  2.5118 -0.0746
17602TIP3    H274222   6.273   3.116   5.544  3.7828  0.9051 -2.0667
17603TIP3   OH274223   0.134   6.572  13.270  0.3687  0.1937 -0.0568
17603TIP3    H174224   0.130   6.487  13.228  0.4263  0.1058  0.1159
17603TIP3    H274225   0.216   6.610  13.240  0.1805  0.3331 -0.4085
17604TIP3   OH274226   2.235   6.281   3.754  0.0960 -0.0642 -0.4674
17604TIP3    H174227   2.161   6.226   3.730 -1.3388  1.6844 -0.2735
17604TIP3    H274228   2.310   6.240   3.712 -1.1707 -1.1632 -1.7697
17605TIP3   OH274229   6.333   0.584   0.390  0.2452  0.2201 -0.2914
17605TIP3    H174230   6.253   0.625   0.421 -1.0967 -1.0607 -1.8889
17605TIP3    H274231   6.304   0.520   0.325  2.5047 -0.8650 -0.3307
17606TIP3   OH274232   3.993   1.385  15.577  0.0401 -0.1103  0.1820
17606TIP3    H174233   4.060   1.353  15.516 -0.5081 -2.8013  0.8682
17606TIP3    H274234   4.022   1.474  15.599  1.9590 -0.2224 -1.5264
17607TIP3   OH274235   5.444   1.481   0.798  0.2896  0.0458  0.4880
17607TIP3    H174236   5.469   1.426   0.873 -0.0877 -0.2075  0.4313
17607TIP3    H274237   5.376   1.430   0.753 -1.3170  1.2955  1.3898
17608TIP3   OH274238   6.380   0.706  16.732  0.0003 -0.1703 -0.4207
17608TIP3    H174239   6.458   0.663  16.697 -1.3233 -2.4109 -0.8019
17608TIP3    H274240   6.385   0.693  16.826 -1.0897 -2.5830 -0.6311
17609TIP3   OH274241   3.494   4.660   5.046  0.6250  0.7234 -0.1333
17609TIP3    H174242   3.467   4.643   4.956  0.5531 -1.5351  0.2627
17609TIP3    H274243   3.581   4.698   5.038  1.7909 -1.8876 -1.1617
17610TIP3   OH274244   5.956   4.584  14.832  0.3233  0.0658 -0.1800
17610TIP3    H174245   5.970   4.522  14.903  0.1155  0.2748  0.0475
17610TIP3    H274246   5.889   4.543  14.777  0.6284 -0.1851 -0.3619
17611TIP3   OH274247   0.199   0.100   1.626  0.2273 -0.2866 -0.0754
17611TIP3    H174248   0.250   0.027   1.660 -0.0866 -0.1808  0.6523
17611TIP3    H274249   0.113   0.063   1.609  0.1752 -0.1735 -0.0612
17612TIP3   OH274250   5.594   5.873   2.865  0.0316 -0.5739  0.3753
17612TIP3    H174251   5.554   5.823   2.936  0.9418 -0.3630  1.0525
17612TIP3    H274252   5.568   5.826   2.785 -2.9394  0.4616  0.6062
17613TIP3   OH274253   3.184   3.285   6.525  0.6161  0.2164 -0.1638
17613TIP3    H174254   3.153   3.196   6.504 -1.3333  0.8380 -0.1745
17613TIP3    H274255   3.124   3.342   6.478  1.3946  1.5566  0.4345
17614TIP3   OH274256   4.960   5.188  14.142  0.0237 -0.0978  0.2722
17614TIP3    H174257   4.892   5.168  14.078  0.1235 -1.6550  0.6158
17614TIP3    H274258   4.920   5.251  14.201 -0.8795 -0.4737  0.0720
17615TIP3   OH274259   1.337   6.217  16.874 -0.0383  0.0849  0.3473
17615TIP3    H174260   1.252   6.173  16.868  0.0507 -0.1605  0.8456
17615TIP3    H274261   1.324   6.286  16.938 -0.8808  2.4484 -2.1762
17616TIP3   OH274262   1.434   0.191  14.799  0.2640 -0.0477 -0.2217
17616TIP3    H174263   1.521   0.214  14.831 -0.5367  4.0018 -0.4894
17616TIP3    H274264   1.394   0.142  14.871  1.5102  1.2797  1.4606
17617TIP3   OH274265   2.484   5.148  16.950  0.1628  0.0448  0.0507
17617TIP3    H174266   2.397   5.110  16.963  0.6132 -0.8510  0.5380
17617TIP3    H274267   2.506   5.126  16.859 -0.0147  0.0694  0.0008
17618TIP3   OH274268   0.271   0.454   5.368 -0.5483  0.5805  0.1291
17618TIP3    H174269   0.271   0.454   5.463 -1.2938  0.8211  0.1346
17618TIP3    H274270   0.183   0.425   5.344 -0.6370  1.3187 -0.4784
17619TIP3   OH274271   3.887   1.690  14.432  0.3533 -0.3348  0.4594
17619TIP3    H174272   3.802   1.671  14.391  0.5668  0.3339 -0.3092
17619TIP3    H274273   3.950   1.643  14.378  0.6579  0.7160 -0.1133
17620TIP3   OH274274   4.299   1.965  15.994 -0.0950  0.5011  0.2442
17620TIP3    H174275   4.384   2.005  16.014  0.0603 -0.2274  1.1147
17620TIP3    H274276   4.239   2.006  16.057 -0.2666  0.5631  0.0403
17621TIP3   OH274277   3.773   2.445   4.604 -0.4036 -0.5630 -0.8525
17621TIP3    H174278   3.781   2.533   4.567 -0.4900 -1.2689 -2.6777
17621TIP3    H274279   3.857   2.429   4.645 -0.5329  0.5173 -0.1232
17622TIP3   OH274280   0.827   5.763  12.288  0.8217  0.1388 -0.3480
17622TIP3    H174281   0.841   5.680  12.242  1.4351  0.0849 -0.0644
17622TIP3    H274282   0.908   5.812  12.275  0.7652  0.3701  0.1736
17623TIP3   OH274283   1.818   3.887   1.503  0.0350  0.0425 -0.1360
17623TIP3    H174284   1.861   3.834   1.570  0.0305  0.1840 -0.0211
17623TIP3    H274285   1.787   3.964   1.549 -1.2243 -0.5141 -0.0137
17624TIP3   OH274286   6.546   2.480  16.494  0.5968 -0.4448 -0.2207
17624TIP3    H174287   6.534   2.500  16.587 -0.8327  0.1023 -0.4970
17624TIP3    H274288   6.573   2.388  16.492 -1.3878 -1.0884  0.6423
17625TIP3   OH274289   5.008   1.851  14.443  0.2797 -0.5010  0.2735
17625TIP3    H174290   5.044   1.763  14.446 -0.4594 -0.9357 -1.6854
17625TIP3    H274291   4.920   1.840  14.407  0.9653  1.1644 -2.2294
17626TIP3   OH274292   4.690   0.842   5.777  0.1680 -0.2072  0.0814
17626TIP3    H174293   4.681   0.930   5.815  2.3074  0.5455 -1.0018
17626TIP3    H274294   4.768   0.806   5.819 -0.9865 -1.8572  0.9134
17627TIP3   OH274295   0.687   2.720  15.207 -0.5859 -0.2942 -0.0049
17627TIP3    H174296   0.624   2.730  15.279 -0.4376 -2.7704  0.5611
17627TIP3    H274297   0.639   2.672  15.140  0.0009 -0.1258 -0.5565
17628TIP3   OH274298   1.691   2.480  17.190 -0.5520 -0.6677  0.6886
17628TIP3    H174299   1.717   2.567  17.221 -0.2477 -0.4898 -0.0547
17628TIP3    H274300   1.726   2.474  17.101 -1.6618 -1.0585  0.2572
17629TIP3   OH274301   1.422   0.305  13.593  0.0848 -0.1332  0.1372
17629TIP3    H174302   1.446   0.214  13.609 -0.9141 -0.3729  0.2882
17629TIP3    H274303   1.506   0.351  13.589  0.7143 -1.3187 -1.6159
17630TIP3   OH274304   4.489   3.176   4.530  0.2153 -0.0260  0.6262
17630TIP3    H174305   4.449   3.168   4.444 -2.0831  0.5278  1.5528
17630TIP3    H274306   4.476   3.268   4.555  1.6065  0.0332  1.2318
17631TIP3   OH274307   0.902   1.582   1.351 -0.1351 -0.1554 -0.1485
17631TIP3    H174308   0.848   1.617   1.421  0.0619 -1.4502  0.6936
17631TIP3    H274309   0.986   1.563   1.393  0.6764  0.9144 -1.2113
17632TIP3   OH274310   3.557   2.017  11.941 -0.8220 -0.2949  0.4270
17632TIP3    H174311   3.504   2.076  11.994 -1.7774  1.1380 -1.9338
17632TIP3    H274312   3.493   1.960  11.898 -0.2493 -0.4111 -0.2903
17633TIP3   OH274313   0.261   2.338   2.641 -0.5081 -0.5573 -0.5006
17633TIP3    H174314   0.322   2.276   2.603  2.1119  1.3953  0.2257
17633TIP3    H274315   0.231   2.391   2.567  0.4960 -0.1091 -0.6103
17634TIP3   OH274316   0.979   3.514   2.040 -0.4511  0.2480  0.0237
17634TIP3    H174317   0.929   3.555   1.969  0.4510  0.7453 -0.3344
17634TIP3    H274318   0.996   3.585   2.102  0.9954  0.4041 -0.5289
17635TIP3   OH274319   3.215   1.229   0.375  0.4361  0.3382 -0.4233
17635TIP3    H174320   3.233   1.297   0.310  1.1422 -1.3927 -2.1376
17635TIP3    H274321   3.238   1.269   0.458  2.5021  1.6260 -1.5346
17636TIP3   OH274322   0.315   2.039   3.561 -0.3116  0.1146  0.4635
17636TIP3    H174323   0.257   2.000   3.626 -0.1152 -1.4074 -0.2387
17636TIP3    H274324   0.334   1.968   3.500  2.3402  0.5443  0.6921
17637TIP3   OH274325   2.213   2.619  15.116 -0.4071  0.1380  0.1734
17637TIP3    H174326   2.226   2.682  15.187 -1.2984  1.0817 -0.4731
17637TIP3    H274327   2.301   2.592  15.090  0.0233  1.6247  0.0367
17638TIP3   OH274328   1.527   3.803   3.969 -0.0008 -0.0965  0.3171
17638TIP3    H174329   1.479   3.720   3.958  0.1044 -0.3011  1.3030
17638TIP3    H274330   1.540   3.810   4.064  0.9851  0.4894  0.1461
17639TIP3   OH274331   1.639   6.750  14.708 -0.0462 -1.0017 -0.0232
17639TIP3    H174332   1.605   6.783  14.791  1.8622 -0.1832  0.4873
17639TIP3    H274333   1.669   6.828  14.662 -0.8202 -1.4735 -1.3942
17640TIP3   OH274334   5.832   3.084  11.544 -0.0027 -0.7987  0.4259
17640TIP3    H174335   5.845   3.152  11.478 -1.9453  0.5457  1.3371
17640TIP3    H274336   5.912   3.030  11.539  1.6539  1.5639 -0.2858
17641TIP3   OH274337   2.108   5.703   1.077  0.0100 -0.3853 -0.2215
17641TIP3    H174338   2.015   5.719   1.058 -0.1850 -0.7883  0.3824
17641TIP3    H274339   2.119   5.727   1.168 -0.0433 -2.5437  0.4121
17642TIP3   OH274340   0.726   3.913   4.661  0.2657  0.3637 -0.3569
17642TIP3    H174341   0.760   3.961   4.736 -1.1114 -0.7290  1.0395
17642TIP3    H274342   0.648   3.868   4.694  0.9502 -2.0841 -1.8027
17643TIP3   OH274343   0.692   2.042   2.917 -0.4632 -0.9169 -0.6746
17643TIP3    H174344   0.744   2.043   2.837 -1.8825 -1.5449 -1.6267
17643TIP3    H274345   0.622   2.105   2.902 -0.6506 -0.9223  0.1369
17644TIP3   OH274346   2.588   6.016  12.065  0.3945  0.2086 -0.2553
17644TIP3    H174347   2.615   5.925  12.075  1.7380  0.4775 -1.0718
17644TIP3    H274348   2.668   6.066  12.081 -0.7055  1.3832  2.0016
17645TIP3   OH274349   4.753   2.669  16.153  0.3023 -0.4908 -0.3204
17645TIP3    H174350   4.773   2.692  16.062 -2.0671  1.1943 -0.5385
17645TIP3    H274351   4.788   2.742  16.204  1.1494 -1.1664  0.0848
17646TIP3   OH274352   6.549   0.239   1.609  0.2507 -0.6578 -0.0063
17646TIP3    H174353   6.635   0.201   1.626  0.0664 -1.1978 -0.2754
17646TIP3    H274354   6.503   0.233   1.693  0.4223 -0.5006  0.0994
17647TIP3   OH274355   5.325   2.709   6.062 -0.2133 -0.5670  0.5018
17647TIP3    H174356   5.271   2.782   6.034 -0.1909 -0.7489 -0.0213
17647TIP3    H274357   5.320   2.646   5.990  0.9143 -0.4663  0.3051
17648TIP3   OH274358   0.150   2.190   2.065  0.3031  0.4511  0.4100
17648TIP3    H174359   0.056   2.193   2.083 -0.0528 -3.1844 -0.0940
17648TIP3    H274360   0.161   2.241   1.985 -1.0730  1.6161  0.9201
17649TIP3   OH274361   4.948   6.780   4.394  0.1093 -0.2744  0.0298
17649TIP3    H174362   5.031   6.813   4.431 -0.2799 -0.3588  1.0113
17649TIP3    H274363   4.904   6.859   4.362 -0.8303  0.2554  2.3988
17650TIP3   OH274364   6.251   5.539  12.798 -0.0720  0.3936 -0.4580
17650TIP3    H174365   6.257   5.603  12.869  0.4573  0.0390 -0.1776
17650TIP3    H274366   6.159   5.544  12.770 -1.1363 -1.4633  2.1898
17651TIP3   OH274367   0.393   4.389   5.543 -0.0598  0.2661 -0.3250
17651TIP3    H174368   0.472   4.367   5.590 -1.0595  0.4483  1.5263
17651TIP3    H274369   0.380   4.317   5.481  1.4478  0.1830 -0.5684
17652TIP3   OH274370   4.021   3.193   4.625  0.8298 -0.4763  0.3540
17652TIP3    H174371   3.979   3.107   4.626  0.7607 -0.4710 -0.8946
17652TIP3    H274372   4.094   3.184   4.686 -0.1675 -0.8902  1.5225
17653TIP3   OH274373   6.108   4.046  16.716  0.1492 -0.4313  0.1846
17653TIP3    H174374   6.073   4.114  16.774  1.0589  0.0056  0.2489
17653TIP3    H274375   6.049   4.045  16.641 -0.4394 -0.2628  0.6369
17654TIP3   OH274376   4.969   4.892   1.508 -0.0446  0.3490  0.0810
17654TIP3    H174377   5.037   4.848   1.558 -0.7992 -1.1556 -0.1793
17654TIP3    H274378   4.906   4.923   1.574 -1.2062 -1.9118  0.1418
17655TIP3   OH274379   2.140   5.509  16.229 -0.5362 -0.4454  0.1982
17655TIP3    H174380   2.173   5.419  16.234  1.0885 -0.0150 -1.3785
17655TIP3    H274381   2.131   5.525  16.135 -0.6257  1.0975  0.4502
17656TIP3   OH274382   1.858   5.206  16.963 -0.5322  0.0244 -0.0935
17656TIP3    H174383   1.819   5.133  16.914 -0.6613  0.6923 -1.0145
17656TIP3    H274384   1.927   5.239  16.906  1.3618 -1.0442  1.4476
17657TIP3   OH274385   5.967   5.008   4.636 -0.5161  0.2607  0.1715
17657TIP3    H174386   6.051   4.963   4.648  0.5770  2.1230 -0.1389
17657TIP3    H274387   5.957   5.015   4.542 -2.3096 -2.1227  0.0832
17658TIP3   OH274388   0.293   5.287  17.079 -0.4865 -0.0398  0.1628
17658TIP3    H174389   0.256   5.209  17.037 -1.9282  1.3037 -1.1905
17658TIP3    H274390   0.377   5.299  17.036 -1.1606  0.2898 -1.1183
17659TIP3   OH274391   0.480   5.974  13.277  0.0516  0.4178  0.0247
17659TIP3    H174392   0.454   5.883  13.295 -2.4587  1.1067  0.2220
17659TIP3    H274393   0.546   5.967  13.208  1.5012 -1.6474  1.4970
17660TIP3   OH274394   6.233   3.151  11.586 -0.3357 -0.4812 -0.7898
17660TIP3    H174395   6.171   3.082  11.609 -2.0065  0.7850 -1.2560
17660TIP3    H274396   6.270   3.178  11.670  0.0083 -1.6243 -0.5604
17661TIP3   OH274397   5.436   3.598  12.373  1.0231 -0.7219  0.0590
17661TIP3    H174398   5.441   3.548  12.292 -1.7731 -2.5543  0.8694
17661TIP3    H274399   5.396   3.681  12.349 -0.6651 -1.6175 -0.3868
17662TIP3   OH274400   2.650   6.344  17.012 -0.1760 -0.9330  0.5626
17662TIP3    H174401   2.642   6.439  17.000  0.9395 -1.0332 -1.5213
17662TIP3    H274402   2.652   6.332  17.106  2.6219  1.4496  0.9481
17663TIP3   OH274403   1.183   3.500   2.364  0.1945 -0.2177 -0.1385
17663TIP3    H174404   1.249   3.501   2.295  0.4818 -0.6304  0.1267
17663TIP3    H274405   1.202   3.578   2.417  0.9517 -0.7523  0.3851
17664TIP3   OH274406   0.999   1.313  15.260 -0.0283 -0.2368 -0.0270
17664TIP3    H174407   1.021   1.406  15.264 -0.6405 -0.0945 -0.0076
17664TIP3    H274408   1.066   1.271  15.314 -0.6907  0.3578  1.3112
17665TIP3   OH274409   5.909   1.116   4.911  0.4366  0.2937 -0.1582
17665TIP3    H174410   5.820   1.097   4.941  0.4104 -0.6024 -0.7778
17665TIP3    H274411   5.952   1.031   4.904  1.2256  0.6862 -0.2326
17666TIP3   OH274412   0.678   2.366   4.293  0.1649 -0.4389  0.8115
17666TIP3    H174413   0.611   2.434   4.288 -0.9547 -1.5854 -0.6087
17666TIP3    H274414   0.759   2.413   4.311 -0.4127  1.3956 -1.0164
17667TIP3   OH274415   2.746   0.846   2.278 -0.9347 -0.1296 -0.4236
17667TIP3    H174416   2.762   0.825   2.186 -0.1394 -2.5346  0.1728
17667TIP3    H274417   2.651   0.848   2.286 -1.1567  3.5046 -1.8728
17668TIP3   OH274418   1.672   6.011   1.405  0.3285  0.7757 -0.1768
17668TIP3    H174419   1.666   5.966   1.321  0.7181 -0.4280  0.4200
17668TIP3    H274420   1.638   6.099   1.388 -1.3865 -0.0417 -1.1417
17669TIP3   OH274421   0.618   2.437  13.253 -0.1171 -0.2749 -0.1374
17669TIP3    H174422   0.645   2.346  13.242  1.1732  0.0545  0.0535
17669TIP3    H274423   0.623   2.452  13.348  0.0003  0.0773 -0.1962
17670TIP3   OH274424   3.472   5.884   1.834  0.3397  0.3454  0.1102
17670TIP3    H174425   3.389   5.917   1.800 -0.2998 -0.5693  0.7111
17670TIP3    H274426   3.513   5.840   1.760  0.3578  0.9248 -0.2264
17671TIP3   OH274427   1.017   3.314  11.669 -0.2823 -0.6467 -0.3600
17671TIP3    H174428   0.979   3.401  11.664  1.3025  0.1029 -0.0343
17671TIP3    H274429   0.942   3.255  11.678 -1.3993  0.6327 -0.9981
17672TIP3   OH274430   3.974   1.441  14.615 -0.3662  0.3545  0.0735
17672TIP3    H174431   3.991   1.511  14.552 -1.3136  0.8189  0.3171
17672TIP3    H274432   3.908   1.385  14.574 -1.7914  1.2492  1.0300
17673TIP3   OH274433   2.317   4.442  16.649  0.1970 -0.1046 -0.1011
17673TIP3    H174434   2.313   4.478  16.560  0.2077  1.0501  0.3416
17673TIP3    H274435   2.393   4.486  16.689  0.5038 -0.9981  0.3242
17674TIP3   OH274436   4.373   6.512  12.726 -0.7163  0.0299 -0.5820
17674TIP3    H174437   4.329   6.498  12.810 -0.2972 -0.0324 -0.3690
17674TIP3    H274438   4.455   6.556  12.748 -0.9232  0.6603 -1.0324
17675TIP3   OH274439   3.394   1.073   1.563 -0.1946  0.2057  0.5443
17675TIP3    H174440   3.308   1.087   1.603 -0.5613 -0.6842  0.0942
17675TIP3    H274441   3.397   0.979   1.547  0.2617  0.4444 -0.8182
17676TIP3   OH274442   0.458   6.035   0.626 -0.2578 -0.4493 -0.4091
17676TIP3    H174443   0.370   5.998   0.621  0.0421 -1.1855 -0.3234
17676TIP3    H274444   0.462   6.076   0.712 -0.3231 -0.9138 -0.1822
17677TIP3   OH274445   3.211   6.441   5.190 -0.4625 -0.0965 -0.0762
17677TIP3    H174446   3.284   6.503   5.183  0.8004 -1.5637 -0.5005
17677TIP3    H274447   3.147   6.486   5.245  0.8435  1.1682  0.4895
17678TIP3   OH274448   1.237   4.433   5.176 -0.0480 -0.3376 -0.1051
17678TIP3    H174449   1.312   4.491   5.188 -0.5137  0.3972 -0.6739
17678TIP3    H274450   1.257   4.357   5.231  0.3123  0.5981  1.1100
17679TIP3   OH274451   3.488   0.496   6.201 -0.4098 -0.4982 -0.1078
17679TIP3    H174452   3.450   0.422   6.248 -0.4091 -1.1345 -1.0774
17679TIP3    H274453   3.426   0.514   6.130  1.1674 -1.7780 -1.9329
17680TIP3   OH274454   3.144   2.759   2.739 -0.0325 -0.3756 -0.0188
17680TIP3    H174455   3.204   2.831   2.717  0.5822 -0.9055 -0.1169
17680TIP3    H274456   3.098   2.740   2.658 -1.5485  1.1084  0.4268
17681TIP3   OH274457   4.047   5.011  16.582  0.4316 -0.3333  0.4367
17681TIP3    H174458   4.092   5.094  16.568 -1.2865  0.8163  1.3612
17681TIP3    H274459   3.957   5.035  16.602 -0.1579 -2.4390  0.6054
17682TIP3   OH274460   6.269   5.909  13.157  0.3179 -0.3814 -0.6225
17682TIP3    H174461   6.196   5.957  13.196  0.6593 -1.8468  2.0020
17682TIP3    H274462   6.325   5.977  13.120 -1.0543  0.9411 -0.3655
17683TIP3   OH274463   2.841   1.429   2.613 -0.4992  0.4974 -0.0925
17683TIP3    H174464   2.934   1.407   2.600 -0.5339 -0.1855  0.8127
17683TIP3    H274465   2.819   1.392   2.698 -1.1861  2.0339  0.4355
17684TIP3   OH274466   6.562   4.434  16.529 -0.3662  0.0287 -0.0106
17684TIP3    H174467   6.555   4.404  16.620  2.2799  1.9951  0.9733
17684TIP3    H274468   6.479   4.478  16.513 -1.6392 -1.9492  0.7509
17685TIP3   OH274469   5.900   0.127   5.314 -0.1089  0.1286  0.6002
17685TIP3    H174470   5.919   0.220   5.330 -0.7187  0.2199  0.7914
17685TIP3    H274471   5.987   0.087   5.305  0.1727  0.9665 -0.9447
17686TIP3   OH274472   1.515   2.990  12.242  0.0620  0.2801  0.0855
17686TIP3    H174473   1.454   3.047  12.193  0.3712  2.6817  2.2660
17686TIP3    H274474   1.458   2.932  12.292 -0.5280  1.7727  1.2565
17687TIP3   OH274475   5.936   1.468  16.915  0.2013  0.4131  0.3737
17687TIP3    H174476   5.906   1.551  16.878  0.4180  0.9394  1.3478
17687TIP3    H274477   6.030   1.480  16.927  0.0960  0.3427  1.3071
17688TIP3   OH274478   0.110   6.359  14.289  0.0289 -0.0772  0.5612
17688TIP3    H174479   0.137   6.346  14.198  2.0097  3.0055  0.5815
17688TIP3    H274480   0.059   6.440  14.288  0.8298  0.4921  2.2944
17689TIP3   OH274481   1.050   2.121  15.233  0.1182 -0.6003 -0.0559
17689TIP3    H174482   1.028   2.131  15.326 -1.9931 -1.0884 -0.4535
17689TIP3    H274483   1.079   2.030  15.225  0.4955 -0.4996  0.1602
17690TIP3   OH274484   1.827   5.608  10.327  0.1172 -0.2430 -0.1073
17690TIP3    H174485   1.889   5.616  10.254  0.3078 -0.7118  0.0041
17690TIP3    H274486   1.878   5.569  10.397 -0.3278 -0.6922 -0.0369
17691TIP3   OH274487   2.342   6.056   5.592 -0.3512  0.3778 -0.0943
17691TIP3    H174488   2.313   6.136   5.635 -0.8189  0.8331 -1.2284
17691TIP3    H274489   2.366   5.997   5.664 -0.7103  1.2638  0.7656
17692TIP3   OH274490   5.341   1.763   0.555 -0.7494  0.1743  0.0513
17692TIP3    H174491   5.364   1.702   0.485 -0.7112 -0.7010  0.8023
17692TIP3    H274492   5.295   1.709   0.619 -0.7165  0.9386  0.7332
17693TIP3   OH274493   0.500   1.326  16.161 -0.3091  0.3516 -0.5768
17693TIP3    H174494   0.534   1.289  16.080  0.6443 -0.2259  0.0568
17693TIP3    H274495   0.508   1.255  16.225  1.0068  1.4138  0.5316
17694TIP3   OH274496   6.188   3.756   4.014 -0.1919 -0.0003 -0.0946
17694TIP3    H174497   6.160   3.836   4.059 -2.1954 -1.6541  1.7972
17694TIP3    H274498   6.108   3.706   4.002  0.8892 -1.4133 -2.0200
17695TIP3   OH274499   1.474   2.710   4.446 -0.0516 -0.0164  0.1465
17695TIP3    H174500   1.535   2.699   4.373  0.4132  0.8656  0.3860
17695TIP3    H274501   1.529   2.737   4.520 -0.5240 -0.8313  0.8163
17696TIP3   OH274502   2.725   5.594  13.070  0.1839  0.0413 -0.3411
17696TIP3    H174503   2.770   5.525  13.117 -0.2923 -1.9000 -2.5543
17696TIP3    H274504   2.794   5.656  13.045  0.5615  0.6506  1.9757
17697TIP3   OH274505   1.630   6.385  16.616  0.3569 -0.2865 -0.4941
17697TIP3    H174506   1.566   6.323  16.651  0.3273  0.2211  0.3581
17697TIP3    H274507   1.603   6.470  16.649  2.5255 -0.2716  1.5170
17698TIP3   OH274508   3.943   2.050   3.874  0.5735  0.9018  0.1491
17698TIP3    H174509   3.962   2.131   3.922  1.3170 -0.3036  2.0157
17698TIP3    H274510   4.026   2.001   3.876  0.0278 -0.0811 -0.5631
17699TIP3   OH274511   4.019   4.255  10.898  0.0450  0.2830  0.1392
17699TIP3    H174512   3.944   4.275  10.842 -0.3754 -0.7431  0.3039
17699TIP3    H274513   4.056   4.175  10.861  0.5380  0.3081  0.5714
17700TIP3   OH274514   5.790   5.175  16.615  0.4343 -0.5539 -0.1797
17700TIP3    H174515   5.704   5.192  16.576  1.2913  1.1957 -1.3958
17700TIP3    H274516   5.795   5.238  16.688  1.7497  1.3648 -1.8325
17701TIP3   OH274517   5.171   0.990  13.353 -0.1222  0.0690  0.1344
17701TIP3    H174518   5.076   0.986  13.342 -0.3782  0.9098  1.8304
17701TIP3    H274519   5.203   1.024  13.269 -1.5092  1.8471  0.2803
17702TIP3   OH274520   1.203   2.001   1.368  0.5664  0.0758 -0.6572
17702TIP3    H174521   1.175   2.089   1.345 -1.0026 -0.3526 -0.5117
17702TIP3    H274522   1.227   2.006   1.461  0.4419  0.3372 -0.6399
17703TIP3   OH274523   0.626   4.337  12.911 -0.2414 -0.2910  0.6959
17703TIP3    H174524   0.552   4.394  12.890  0.3776  0.3677  0.2635
17703TIP3    H274525   0.594   4.283  12.983 -1.6182 -0.9662 -0.3646
17704TIP3   OH274526   0.517   1.757   2.630 -0.2547  0.1718  0.0822
17704TIP3    H174527   0.475   1.842   2.631  0.1030  0.3818 -1.0371
17704TIP3    H274528   0.493   1.717   2.714 -0.0230  1.5562  0.8440
17705TIP3   OH274529   6.625   2.859  12.283  0.3930 -0.3043 -0.6879
17705TIP3    H174530   6.681   2.869  12.206  0.3540  0.3801 -0.6310
17705TIP3    H274531   6.604   2.949  12.309  0.2266 -0.5376 -0.0110
17706TIP3   OH274532   2.437   6.484  12.894 -0.5330  0.4257 -0.2070
17706TIP3    H174533   2.487   6.485  12.812 -0.0302 -3.8985 -0.2191
17706TIP3    H274534   2.489   6.538  12.954 -0.0545  2.3630 -2.2475
17707TIP3   OH274535   6.128   5.508  13.441  0.4855  0.6498 -0.3540
17707TIP3    H174536   6.105   5.447  13.371  0.3479  0.3903 -0.0827
17707TIP3    H274537   6.065   5.579  13.433 -0.6458 -0.2000  0.5777
17708TIP3   OH274538   1.613   5.715  14.147 -0.5105  0.1370 -0.0273
17708TIP3    H174539   1.615   5.782  14.079 -1.7282 -0.1956 -0.4119
17708TIP3    H274540   1.594   5.634  14.100  0.2600 -0.3743  0.5201
17709TIP3   OH274541   1.328   1.868  14.476  0.5931  0.6535 -0.0616
17709TIP3    H174542   1.287   1.792  14.518  3.0984 -0.6916  0.1849
17709TIP3    H274543   1.380   1.909  14.545  0.3100  1.8206 -0.5192
17710TIP3   OH274544   3.717   1.903  15.687  0.9708 -0.2692 -0.0301
17710TIP3    H174545   3.650   1.951  15.639 -0.9569 -0.8960  1.8921
17710TIP3    H274546   3.706   1.812  15.660 -0.3626 -0.6823  1.7336
17711TIP3   OH274547   0.403   4.862   6.796  1.0339 -0.3412  0.2983
17711TIP3    H174548   0.410   4.779   6.750 -0.7432  1.1700 -3.0540
17711TIP3    H274549   0.474   4.915   6.760  0.1161  0.6117 -0.1827
17712TIP3   OH274550   4.965   2.015   1.942  0.2594 -0.1814  0.2972
17712TIP3    H174551   5.021   1.949   1.900  0.0235  0.6614 -1.4222
17712TIP3    H274552   4.894   2.029   1.879  0.7085  2.2741  0.2555
17713TIP3   OH274553   3.187   5.136  15.928 -0.1707 -0.0069  0.0913
17713TIP3    H174554   3.147   5.057  15.892  0.4423  0.5584 -1.9698
17713TIP3    H274555   3.142   5.208  15.883  1.8261  0.6898 -0.8793
17714TIP3   OH274556   2.150   2.785  12.135 -0.6092  0.1115 -0.2823
17714TIP3    H174557   2.136   2.692  12.117  0.4798  0.2613 -2.1832
17714TIP3    H274558   2.203   2.816  12.061 -0.5760  2.1485  0.5318
17715TIP3   OH274559   1.793   0.538  17.021  0.3867  0.3672  0.3204
17715TIP3    H174560   1.698   0.545  17.035  0.1542 -2.1032  0.4732
17715TIP3    H274561   1.803   0.540  16.926 -0.0990 -1.3315  0.1900
17716TIP3   OH274562   2.356   1.268   2.400  0.3087 -0.1340 -0.0287
17716TIP3    H174563   2.289   1.202   2.415  0.3681 -0.5100 -1.3430
17716TIP3    H274564   2.435   1.218   2.381  0.3783  0.3035 -0.9348
17717TIP3   OH274565   2.475   1.613  14.170 -0.7542 -0.5151  0.2876
17717TIP3    H174566   2.522   1.684  14.213  0.7714 -0.6566 -1.0647
17717TIP3    H274567   2.430   1.567  14.241  1.1436 -0.3628  1.6421
17718TIP3   OH274568   0.024   0.702  15.087  0.2069 -0.4050  0.9893
17718TIP3    H174569  -0.036   0.776  15.089 -0.1755 -0.6078 -1.0190
17718TIP3    H274570  -0.026   0.628  15.122  0.3872  0.0997  2.3948
17719TIP3   OH274571   5.565   3.237   1.962  0.4547  0.3231  0.0021
17719TIP3    H174572   5.581   3.305   2.028  0.6469 -0.2590  0.5546
17719TIP3    H274573   5.652   3.202   1.943  0.0758 -1.8295  1.9192
17720TIP3   OH274574   1.566   0.150   2.040  0.9866  0.3262 -0.0064
17720TIP3    H174575   1.622   0.139   2.117  0.3172 -1.4678  0.2653
17720TIP3    H274576   1.623   0.191   1.975  3.0846 -2.5331 -0.1714
17721TIP3   OH274577   1.108   0.064   2.743 -0.2230 -0.1603  0.6485
17721TIP3    H174578   1.166   0.135   2.771 -0.2877  0.9350 -1.7830
17721TIP3    H274579   1.030   0.075   2.797  0.7596 -0.0399  2.1212
17722TIP3   OH274580   2.324   0.463   4.025 -0.3183 -0.5258 -0.1527
17722TIP3    H174581   2.294   0.379   3.990  1.2362 -0.8337 -0.8257
17722TIP3    H274582   2.304   0.458   4.119 -3.5154 -0.1399 -0.6929
17723TIP3   OH274583   0.267   2.373  10.790  0.3614  0.5688  0.1985
17723TIP3    H174584   0.228   2.363  10.703  1.0093  2.6878 -0.3897
17723TIP3    H274585   0.245   2.463  10.816  2.4365  0.8847  1.0385
17724TIP3   OH274586   0.213   5.011  13.506  0.6728  0.2519  0.1150
17724TIP3    H174587   0.136   4.955  13.501  0.7571  0.0716  0.6993
17724TIP3    H274588   0.282   4.954  13.540  0.8738  0.5948  0.2924
17725TIP3   OH274589   4.413   0.103   3.875 -0.0023  0.0118  0.2704
17725TIP3    H174590   4.405   0.007   3.875  1.0653 -0.0943 -0.5527
17725TIP3    H274591   4.395   0.128   3.966 -3.1019 -0.6642 -0.0466
17726TIP3   OH274592   1.844   6.213  17.020  0.1632  0.1228  0.4923
17726TIP3    H174593   1.800   6.297  17.005  3.0266  1.4258 -1.5538
17726TIP3    H274594   1.854   6.208  17.115  3.0909  4.0448  0.6387
17727TIP3   OH274595   0.203   1.435  16.913 -0.9249 -0.1932  0.1525
17727TIP3    H174596   0.123   1.382  16.922 -2.1636  1.7251  1.1947
17727TIP3    H274597   0.264   1.378  16.866 -3.2862 -1.3467 -1.7775
17728TIP3   OH274598   6.088   6.246   2.845 -0.2018  0.1500  0.1364
17728TIP3    H174599   6.122   6.316   2.901  0.4353 -0.1661  0.1567
17728TIP3    H274600   6.029   6.196   2.902  0.1524  0.0552  0.4242
17729TIP3   OH274601   4.131   3.593  14.417 -0.4434 -0.4245 -0.2797
17729TIP3    H174602   4.184   3.513  14.411  0.3149  0.1702 -3.4933
17729TIP3    H274603   4.173   3.644  14.486  1.0309 -1.4914 -0.3222
17730TIP3   OH274604   2.511   5.150  11.612 -0.3485 -0.0688  0.4130
17730TIP3    H174605   2.488   5.150  11.519  3.1088 -0.6215 -0.5777
17730TIP3    H274606   2.559   5.068  11.625 -1.9963 -0.7312  3.1196
17731TIP3   OH274607   1.295   6.081  13.451  0.0565  0.2230 -0.2443
17731TIP3    H174608   1.348   6.158  13.470 -0.4874  1.1707 -2.3163
17731TIP3    H274609   1.230   6.111  13.388 -0.0958 -1.9644 -1.2159
17732TIP3   OH274610   5.610   1.288   1.013 -0.3902 -0.5346 -0.0953
17732TIP3    H174611   5.591   1.376   1.047 -1.4080  0.3787 -2.7907
17732TIP3    H274612   5.702   1.293   0.986 -0.6012 -0.1067 -0.7499
17733TIP3   OH274613   1.724   0.586   1.889 -0.2189 -0.3209 -0.3662
17733TIP3    H174614   1.735   0.623   1.801 -1.4914 -0.8847 -0.7897
17733TIP3    H274615   1.710   0.662   1.945  2.4987  0.2067 -0.2738
17734TIP3   OH274616   2.058   1.699  13.766  0.1350  0.4565  0.2059
17734TIP3    H174617   1.967   1.691  13.796 -0.1848 -1.4183 -1.0794
17734TIP3    H274618   2.082   1.789  13.786 -1.4601  0.5391  2.0395
17735TIP3   OH274619   4.252   5.541  15.591  0.2903  0.1292  0.6441
17735TIP3    H174620   4.190   5.614  15.590  0.3647  0.1933  0.6494
17735TIP3    H274621   4.317   5.566  15.657  1.0217  0.6556 -0.2525
17736TIP3   OH274622   2.289   6.382   5.099  0.0914 -0.1503 -0.3034
17736TIP3    H174623   2.373   6.424   5.078  0.3627 -0.7702 -0.4843
17736TIP3    H274624   2.262   6.340   5.017 -1.6807  2.1614 -1.0076
17737TIP3   OH274625   4.551   4.376   1.359  0.1427  0.3081  0.2677
17737TIP3    H174626   4.480   4.440   1.361 -0.2734 -0.1611  0.7167
17737TIP3    H274627   4.630   4.428   1.339 -0.4988  0.6644 -1.5752
17738TIP3   OH274628   6.073   3.003   1.732  0.1524 -0.4304  0.3978
17738TIP3    H174629   6.027   2.926   1.701 -0.1350  0.4221 -1.4315
17738TIP3    H274630   6.007   3.073   1.732  1.0185  0.4465 -0.7770
17739TIP3   OH274631   3.207   2.016  12.451  0.3206 -0.1696  0.4460
17739TIP3    H174632   3.158   1.998  12.531  0.8478 -0.2134  0.7672
17739TIP3    H274633   3.289   1.969  12.462  0.4421 -0.0933 -0.0805
17740TIP3   OH274634   1.195   6.777  12.726 -0.2707  0.3379 -0.1699
17740TIP3    H174635   1.174   6.870  12.733 -0.3097  0.2219  1.4251
17740TIP3    H274636   1.224   6.752  12.813 -0.4574 -1.2015 -0.5295
17741TIP3   OH274637   6.745   6.342  15.590 -0.1010 -0.1751 -0.3770
17741TIP3    H174638   6.679   6.380  15.649 -0.6800 -1.6739  0.0073
17741TIP3    H274639   6.770   6.260  15.633 -0.4829 -1.2773 -2.1449
17742TIP3   OH274640   5.633   5.435  15.761 -0.1740 -0.4215  0.3032
17742TIP3    H174641   5.635   5.530  15.770 -1.0790 -0.2982 -0.5007
17742TIP3    H274642   5.718   5.412  15.724 -0.4252  0.2489 -0.7434
17743TIP3   OH274643   2.057   1.599  15.244  0.7008  0.1948 -0.2530
17743TIP3    H174644   2.139   1.643  15.267  0.1012  1.9725 -1.3133
17743TIP3    H274645   2.013   1.586  15.328  1.7633 -0.1855  0.2620
17744TIP3   OH274646   3.416   2.262  15.695 -0.1288 -0.4590  0.0256
17744TIP3    H174647   3.450   2.180  15.657  0.0448 -1.6982  2.6302
17744TIP3    H274648   3.337   2.236  15.741 -0.6719  1.0788  0.0128
17745TIP3   OH274649   4.294   1.241   4.595 -0.2448  0.1988  0.6163
17745TIP3    H174650   4.383   1.245   4.630  0.4750  2.1288 -1.2424
17745TIP3    H274651   4.238   1.234   4.673  1.4131  0.8651  1.9378
17746TIP3   OH274652   5.075   5.060   1.102 -0.3199 -0.1327 -0.0806
17746TIP3    H174653   5.057   4.967   1.113  0.5534 -0.3429 -0.3302
17746TIP3    H274654   5.061   5.098   1.188 -4.0482  0.1416 -0.6526
17747TIP3   OH274655   6.342   4.222  11.850  0.1073  0.1689  0.0644
17747TIP3    H174656   6.332   4.211  11.944  1.4814 -1.1193  0.1080
17747TIP3    H274657   6.406   4.292  11.840  0.2720  0.0279  0.1143
17748TIP3   OH274658   4.762   5.436   2.301  0.3196 -0.1010  0.1639
17748TIP3    H174659   4.761   5.352   2.255 -0.7922  0.0077 -0.0539
17748TIP3    H274660   4.722   5.497   2.239 -1.3669  0.0243  1.3047
17749TIP3   OH274661   4.442   5.773  12.048 -0.6533 -0.3652 -0.8025
17749TIP3    H174662   4.382   5.786  12.122  1.0526  0.1109  0.5525
17749TIP3    H274663   4.474   5.683  12.059  0.9190  0.2682  0.0935
17750TIP3   OH274664   0.306   1.218   0.868 -0.4020 -0.4668 -0.2944
17750TIP3    H174665   0.234   1.281   0.879 -0.5120 -0.4714 -0.9425
17750TIP3    H274666   0.381   1.272   0.844  0.2651 -0.2675  1.9553
17751TIP3   OH274667   0.019   0.407  11.175 -0.5667 -0.0460  0.2892
17751TIP3    H174668   0.082   0.466  11.216  1.2323 -2.2993  0.9544
17751TIP3    H274669  -0.027   0.366  11.248  0.7930 -2.1151  0.0688
17752TIP3   OH274670   6.770   6.661  14.561 -0.6102  0.0886  0.0371
17752TIP3    H174671   6.740   6.571  14.543 -0.0513 -0.6488  2.4185
17752TIP3    H274672   6.835   6.678  14.493  1.3829 -2.4853  1.1248
17753TIP3   OH274673   4.205   1.336  17.053 -1.1699 -0.0909 -0.1751
17753TIP3    H174674   4.221   1.397  17.125 -0.8158  2.1735 -2.0360
17753TIP3    H274675   4.280   1.277  17.056  0.5943  1.9669 -0.5443
17754TIP3   OH274676   5.049   2.978   2.595  0.5927  0.0894 -0.3815
17754TIP3    H174677   5.018   3.062   2.630 -0.4732 -1.1014  1.8203
17754TIP3    H274678   5.123   3.001   2.539 -0.6063  2.5983 -1.1193
17755TIP3   OH274679   1.583   4.275  16.487  0.3003  0.6387 -0.3677
17755TIP3    H174680   1.672   4.287  16.454  0.0073  0.8559 -1.0851
17755TIP3    H274681   1.563   4.358  16.532  0.9621  0.0780  1.0104
17756TIP3   OH274682   6.694   1.576   4.767  0.2829  0.3906  0.2881
17756TIP3    H174683   6.642   1.586   4.847  1.4098 -0.3740  1.1556
17756TIP3    H274684   6.690   1.482   4.747  0.9318  0.3965  0.1045
17757TIP3   OH274685   2.254   3.498  16.262  0.4097 -0.1022  0.6192
17757TIP3    H174686   2.208   3.415  16.268  1.1758 -0.7460 -1.3952
17757TIP3    H274687   2.291   3.498  16.174 -1.0253  3.1587 -0.1209
17758TIP3   OH274688   6.172   1.296  10.893  0.3223 -0.1522 -0.6721
17758TIP3    H174689   6.264   1.288  10.867  0.3683 -0.1562 -0.5086
17758TIP3    H274690   6.175   1.332  10.982  0.1286  1.1798 -1.1872
17759TIP3   OH274691   1.807   3.845  15.790  0.1932  0.3881  0.5956
17759TIP3    H174692   1.876   3.846  15.724 -0.4896 -0.4431 -0.1529
17759TIP3    H274693   1.851   3.869  15.872  0.7959  2.9417 -0.3743
17760TIP3   OH274694   1.726   0.480  11.922  0.2947 -0.0399 -0.2160
17760TIP3    H174695   1.729   0.482  12.017 -0.6502  0.1495 -0.1829
17760TIP3    H274696   1.701   0.569  11.896  2.7971  0.5966 -0.7688
17761TIP3   OH274697   2.736   4.750   5.396  0.6552 -0.2837 -0.5048
17761TIP3    H174698   2.681   4.680   5.363  0.8828 -0.1093 -1.2638
17761TIP3    H274699   2.822   4.710   5.407  0.8160 -0.0947 -1.0594
17762TIP3   OH274700   0.658   1.019  12.798  0.2597 -0.4739  0.0867
17762TIP3    H174701   0.572   0.979  12.787  0.2843 -0.8417  1.0881
17762TIP3    H274702   0.657   1.053  12.887 -0.3561  3.2816 -1.1834
17763TIP3   OH274703   3.257   4.764  14.361 -0.0305  0.0011  0.1368
17763TIP3    H174704   3.308   4.699  14.409  1.8273  0.3038 -1.2922
17763TIP3    H274705   3.207   4.810  14.428 -0.4149 -2.0285  1.3166
17764TIP3   OH274706   5.750   0.650   5.479  0.3227  0.2738  0.8138
17764TIP3    H174707   5.668   0.609   5.450 -0.5393  2.1013  0.4830
17764TIP3    H274708   5.729   0.685   5.566  0.5475  1.2405  0.4937
17765TIP3   OH274709   3.027   5.191  12.523 -0.4281  0.0439 -0.3396
17765TIP3    H174710   3.068   5.250  12.586 -1.9754  1.2434 -0.3958
17765TIP3    H274711   3.028   5.238  12.440 -0.3347 -0.6388 -0.7383
17766TIP3   OH274712   3.862   3.602   2.922  0.0734  0.4061 -0.3318
17766TIP3    H174713   3.785   3.644   2.959 -0.3467 -0.3925 -0.2769
17766TIP3    H274714   3.840   3.590   2.829  0.0117 -0.0737 -0.2580
17767TIP3   OH274715   0.058   0.842  11.926  0.1024  0.1860 -0.8078
17767TIP3    H174716   0.028   0.931  11.907 -0.0935  0.2419 -0.2391
17767TIP3    H274717   0.026   0.824  12.014 -0.1203 -0.5628 -1.0372
17768TIP3   OH274718   0.413   0.382   4.397  0.0821 -0.0489 -0.0129
17768TIP3    H174719   0.375   0.470   4.403  0.0669  0.0727 -1.4422
17768TIP3    H274720   0.464   0.372   4.477  0.7810  1.5995 -0.2141
17769TIP3   OH274721   0.348   2.295  14.340 -0.5455 -0.3993 -1.0216
17769TIP3    H174722   0.341   2.374  14.393  0.4933 -1.9826  1.6832
17769TIP3    H274723   0.269   2.294  14.287 -0.9618  2.0162 -0.5634
17770TIP3   OH274724   1.763   3.838  12.954  0.5370 -0.3522  0.2459
17770TIP3    H174725   1.774   3.914  13.012  0.8036 -0.6339  0.5619
17770TIP3    H274726   1.805   3.766  13.000  0.3877 -0.6697 -0.1122
17771TIP3   OH274727   4.010   1.174   3.624  0.2382 -0.7358  0.7461
17771TIP3    H174728   3.985   1.135   3.708 -3.0187  0.6825  0.6095
17771TIP3    H274729   4.057   1.253   3.647 -0.0422 -0.7084  1.2474
17772TIP3   OH274730   0.710   5.539   3.542 -0.2830 -0.6214 -0.1272
17772TIP3    H174731   0.761   5.598   3.597  0.3794 -0.0961 -1.2624
17772TIP3    H274732   0.628   5.526   3.589  0.9224 -1.6420  1.8648
17773TIP3   OH274733   2.873   2.666   4.570 -0.2358 -0.4325  0.1695
17773TIP3    H174734   2.935   2.649   4.641  0.4834  0.4355 -0.2354
17773TIP3    H274735   2.819   2.738   4.602 -1.0610 -1.1912  0.5247
17774TIP3   OH274736   0.238   2.326  16.451  0.1856 -0.5093  0.0742
17774TIP3    H174737   0.313   2.267  16.449 -0.2672 -1.0634 -0.7445
17774TIP3    H274738   0.267   2.404  16.403  0.7763 -0.0488  1.1418
17775TIP3   OH274739   6.760   2.722   5.108 -0.1072 -0.0315 -0.8344
17775TIP3    H174740   6.753   2.659   5.180 -0.0570  0.9952  0.0992
17775TIP3    H274741   6.670   2.751   5.094 -0.2060 -0.6955 -1.6342
17776TIP3   OH274742   1.573   4.062   4.677 -0.4823 -0.8167 -0.0311
17776TIP3    H174743   1.624   4.018   4.745  0.3572  1.1068  0.6288
17776TIP3    H274744   1.520   4.126   4.724  0.1907  0.6257 -1.1701
17777TIP3   OH274745   0.519   3.233   1.004 -0.3475  0.5493  0.6851
17777TIP3    H174746   0.569   3.300   0.956 -0.3829  1.0605  1.3458
17777TIP3    H274747   0.435   3.276   1.023 -1.1344 -0.3572 -0.5557
17778TIP3   OH274748   3.006   2.710  12.800  0.5222 -0.1834  0.0734
17778TIP3    H174749   2.979   2.621  12.824  0.7130  0.0678  1.3035
17778TIP3    H274750   2.956   2.730  12.721 -0.0986 -1.0966  0.2175
17779TIP3   OH274751   5.792   2.552  17.049 -0.3323  0.4801  0.9778
17779TIP3    H174752   5.768   2.615  16.982 -0.6231 -0.0271  0.6041
17779TIP3    H274753   5.714   2.544  17.103 -1.0332 -1.1436 -0.2175
17780TIP3   OH274754   0.957   2.790   2.272  0.2225 -0.0519 -0.9601
17780TIP3    H174755   1.033   2.834   2.309 -1.3680  3.2944 -1.2738
17780TIP3    H274756   0.979   2.697   2.276  2.5804  0.4340  2.7781
17781TIP3   OH274757   0.473   4.870  15.455  0.0379  0.1143  0.1803
17781TIP3    H174758   0.414   4.932  15.498  0.3665  0.8825 -0.4554
17781TIP3    H274759   0.552   4.922  15.436 -0.2126 -0.1118 -1.6304
17782TIP3   OH274760   0.313   1.882  15.685  0.1402 -0.1731 -0.0857
17782TIP3    H174761   0.360   1.842  15.613 -0.3953 -0.2553 -0.4003
17782TIP3    H274762   0.321   1.820  15.757  1.1429  0.1599  0.1048
17783TIP3   OH274763   6.040   4.523   0.539 -0.5457  0.0190 -0.0098
17783TIP3    H174764   5.972   4.571   0.491  0.0327  0.2316 -0.6493
17783TIP3    H274765   6.095   4.591   0.577 -0.4983 -0.1495  0.2276
17784TIP3   OH274766   4.941   3.355  16.539  1.2405  0.0246  0.1020
17784TIP3    H174767   4.906   3.333  16.453  1.5464  0.0793 -0.0376
17784TIP3    H274768   5.034   3.332  16.534  1.1755 -0.3673  0.5556
17785TIP3   OH274769   6.505   0.396  16.354  0.3024  0.5865  0.0206
17785TIP3    H174770   6.582   0.446  16.380  0.6790 -0.1803  0.4147
17785TIP3    H274771   6.441   0.462  16.327  0.8133  1.2689  0.4565
17786TIP3   OH274772   0.877   5.561  16.972 -0.4597 -0.3178 -0.2729
17786TIP3    H174773   0.925   5.641  16.995 -0.7561 -0.4123  0.7586
17786TIP3    H274774   0.944   5.494  16.964 -0.1798  0.0812 -1.4134
17787TIP3   OH274775   1.350   4.048   2.701 -0.0003 -0.5522 -0.1384
17787TIP3    H174776   1.397   3.969   2.674  0.0401  0.1393 -2.2347
17787TIP3    H274777   1.418   4.107   2.732  0.0288 -1.0669  0.8448
17788TIP3   OH274778   3.038   0.740  15.653 -0.1612 -0.6727  0.2435
17788TIP3    H174779   3.117   0.793  15.651  0.1403 -1.0565  1.1451
17788TIP3    H274780   2.967   0.801  15.636  0.2509 -0.1269  0.4618
17789TIP3   OH274781   0.680   3.050  13.604 -0.8770  0.3060  0.3774
17789TIP3    H174782   0.647   3.140  13.603 -1.2588  0.1687 -1.5842
17789TIP3    H274783   0.614   3.001  13.653 -1.2524  0.8723  0.4435
17790TIP3   OH274784   2.865   4.933   5.117  0.6561  0.1684  0.1165
17790TIP3    H174785   2.907   4.859   5.160  0.4792 -0.3688 -0.6096
17790TIP3    H274786   2.881   4.919   5.023 -1.0187  0.0037 -0.1835
17791TIP3   OH274787   4.063   4.510  17.230 -0.2809  0.5782 -0.2637
17791TIP3    H174788   4.090   4.445  17.295  1.7141  1.1668 -0.4318
17791TIP3    H274789   3.970   4.493  17.215 -1.1227  1.0789  3.4868
17792TIP3   OH274790   0.677   5.217   5.297 -0.1554  0.0809  0.2034
17792TIP3    H174791   0.738   5.145   5.281  0.9690  0.8807  0.7815
17792TIP3    H274792   0.729   5.296   5.285 -1.7399  0.8743 -1.9236
17793TIP3   OH274793   4.703   2.850   2.573 -0.1035 -0.8917  0.1247
17793TIP3    H174794   4.779   2.864   2.629  0.9858 -2.5293 -0.8444
17793TIP3    H274795   4.670   2.764   2.598 -0.7488 -0.8197 -0.4399
17794TIP3   OH274796   2.471   5.136   1.359  0.1649 -0.4121 -0.6455
17794TIP3    H174797   2.517   5.069   1.409 -0.6154  0.4519  1.3373
17794TIP3    H274798   2.396   5.090   1.321 -1.3667 -0.4264  2.1393
17795TIP3   OH274799   3.516   0.017   4.616  0.4607 -0.0082  0.3285
17795TIP3    H174800   3.443  -0.043   4.632  0.4802 -0.4523 -1.0996
17795TIP3    H274801   3.585  -0.013   4.675 -0.6949  0.8132  2.1588
17796TIP3   OH274802   5.829   1.476  14.527  0.1932  0.3962  0.4221
17796TIP3    H174803   5.745   1.432  14.515 -0.1509  1.4393 -1.3522
17796TIP3    H274804   5.824   1.514  14.615 -0.4672 -1.0042  1.0229
17797TIP3   OH274805   3.773   1.441   4.041 -0.0566  0.4847  0.3661
17797TIP3    H174806   3.856   1.439   4.089 -0.5045 -1.2051  1.1269
17797TIP3    H274807   3.797   1.468   3.953  1.7176 -2.3563 -0.1218
17798TIP3   OH274808   1.212   0.485  15.458 -0.0308 -0.0250 -0.2057
17798TIP3    H174809   1.160   0.454  15.384 -0.9919  0.3957  0.2737
17798TIP3    H274810   1.214   0.580  15.449  0.6327 -0.0348 -0.1970
17799TIP3   OH274811   4.558   6.613   3.623 -0.4798 -0.2500 -0.5613
17799TIP3    H174812   4.625   6.545   3.609 -0.5504 -0.6441  0.8475
17799TIP3    H274813   4.482   6.565   3.655 -0.5314  0.4842  0.4624
17800TIP3   OH274814   0.050   0.316   5.350 -0.2947 -0.1775  0.1426
17800TIP3    H174815   0.048   0.234   5.398  1.2948  0.3935  1.2618
17800TIP3    H274816  -0.031   0.362   5.376 -1.5115 -1.5715 -0.9708
17801TIP3   OH274817   1.239   0.644  11.118  0.1580  0.3960 -0.3195
17801TIP3    H174818   1.178   0.683  11.056  0.4245  0.7107 -0.3845
17801TIP3    H274819   1.316   0.622  11.065  0.0724 -0.0788 -0.2560
17802TIP3   OH274820   3.685   1.978   5.527  0.2400 -0.5530 -0.2429
17802TIP3    H174821   3.730   1.917   5.585  0.5175 -0.6488 -0.5568
17802TIP3    H274822   3.656   1.924   5.453 -0.6411 -0.5478  0.0880
17803TIP3   OH274823   3.201   4.238  14.141  0.5825 -0.3635 -0.0508
17803TIP3    H174824   3.290   4.242  14.106 -0.0102  2.2494 -1.5812
17803TIP3    H274825   3.210   4.195  14.225  3.2729 -0.3625 -0.2460
17804TIP3   OH274826   3.404   3.214   0.450 -0.1665  0.2605 -0.1371
17804TIP3    H174827   3.392   3.154   0.523  0.1267  0.4104  0.0349
17804TIP3    H274828   3.480   3.267   0.474  0.6991 -0.4963 -1.0824
17805TIP3   OH274829   1.844   0.029  16.931  0.8015 -0.6002 -0.7692
17805TIP3    H174830   1.852  -0.021  16.850 -3.0217 -1.2695 -0.9104
17805TIP3    H274831   1.839  -0.037  17.000 -1.8115 -0.4324 -0.7028
17806TIP3   OH274832   4.743   3.689  13.557  0.5705  0.1560  0.2342
17806TIP3    H174833   4.664   3.720  13.601  0.1533 -0.8257  0.2194
17806TIP3    H274834   4.723   3.598  13.533  1.6241 -0.0448  0.0392
17807TIP3   OH274835   3.020   4.506   6.159 -0.1598 -0.1594  0.4573
17807TIP3    H174836   3.003   4.439   6.225  0.4052  0.9373  1.7540
17807TIP3    H274837   2.972   4.583   6.189  0.8058  0.6285  0.0605
17808TIP3   OH274838   3.666   3.146  16.141  0.0664  0.3750  0.3137
17808TIP3    H174839   3.708   3.060  16.147  1.1600  0.9562  1.2453
17808TIP3    H274840   3.636   3.164  16.229 -0.1580  0.9609  0.1203
17809TIP3   OH274841   5.638   4.044   2.997 -0.1393 -0.0456 -0.4005
17809TIP3    H174842   5.627   4.134   2.967 -2.4227 -0.2757 -0.4387
17809TIP3    H274843   5.671   3.997   2.921  0.5881  0.6356 -0.5238
17810TIP3   OH274844   2.465   2.867   3.267 -0.1170 -0.0236  0.1026
17810TIP3    H174845   2.507   2.856   3.181  0.0908  2.0044 -0.1032
17810TIP3    H274846   2.407   2.791   3.275 -0.7285  0.1264 -2.2012
17811TIP3   OH274847   2.538   6.087   1.718  0.8068  0.5249  0.1524
17811TIP3    H174848   2.588   6.103   1.799  1.5140  1.1027 -0.3795
17811TIP3    H274849   2.554   5.995   1.698  2.2833  0.8764 -0.4019
17812TIP3   OH274850   2.706   3.194  11.636  0.4252  0.7921  0.0698
17812TIP3    H174851   2.776   3.252  11.608  0.6356  0.0825 -0.9491
17812TIP3    H274852   2.732   3.108  11.603 -0.9992  0.5410 -0.4718
17813TIP3   OH274853   0.198   4.187  11.896  0.6347 -0.3283 -0.0162
17813TIP3    H174854   0.126   4.243  11.924  0.5166  0.9326 -2.5216
17813TIP3    H274855   0.163   4.139  11.821  1.8710 -1.0214 -0.1840
17814TIP3   OH274856   5.830   0.685  13.456  0.1311  0.2195  0.0598
17814TIP3    H174857   5.770   0.683  13.381 -0.7411  1.4645  0.6871
17814TIP3    H274858   5.911   0.721  13.420  1.2972 -3.3844 -1.2686
17815TIP3   OH274859   3.170   3.372   0.462 -0.2488  0.4085  0.1779
17815TIP3    H174860   3.250   3.324   0.482 -0.5539 -0.0488  0.3215
17815TIP3    H274861   3.193   3.464   0.477 -0.7539  0.1007  3.8548
17816TIP3   OH274862   0.347   4.492  14.229 -0.2670 -0.9289 -0.6996
17816TIP3    H174863   0.291   4.436  14.175 -2.6833 -0.8929  1.5302
17816TIP3    H274864   0.287   4.529  14.294  2.0407  0.8606  0.5538
17817TIP3   OH274865   2.580   3.274   0.079  0.1152 -0.1170  0.5430
17817TIP3    H174866   2.633   3.219   0.020 -1.0385  1.2080 -1.9057
17817TIP3    H274867   2.644   3.327   0.127  1.1118 -1.3545  0.6420
17818TIP3   OH274868   5.217   2.754  16.781 -0.6309 -0.0107  0.6068
17818TIP3    H174869   5.140   2.789  16.736 -0.3230 -0.2526 -0.1262
17818TIP3    H274870   5.244   2.679  16.728  1.1193  1.0879 -0.1401
17819TIP3   OH274871   5.510   4.358   4.434 -0.5232  0.6483  0.3408
17819TIP3    H174872   5.513   4.422   4.363  1.9895  1.4985  1.1013
17819TIP3    H274873   5.522   4.273   4.391  0.3301  1.0892 -0.3031
17820TIP3   OH274874   1.060   0.795  11.647  0.0628  0.1794  0.3423
17820TIP3    H174875   1.053   0.871  11.589 -0.4809  0.0206  0.1992
17820TIP3    H274876   1.072   0.721  11.587 -0.9138 -0.0396  0.4036
17821TIP3   OH274877   0.134   1.132   5.376  0.2849  0.1378  0.3572
17821TIP3    H174878   0.066   1.199   5.386  0.5970  0.3611  1.1135
17821TIP3    H274879   0.156   1.107   5.466  1.2495  0.1192  0.1286
17822TIP3   OH274880   0.099   6.200  13.225  0.2104 -0.0670  0.4897
17822TIP3    H174881   0.172   6.150  13.260  1.1965 -0.0474 -1.3638
17822TIP3    H274882   0.092   6.170  13.134  0.6655  2.8665 -0.6354
17823TIP3   OH274883   3.583   2.707  16.684  0.0737  1.0037  0.5730
17823TIP3    H174884   3.506   2.663  16.718 -1.0496  1.4436 -1.2757
17823TIP3    H274885   3.565   2.800  16.695 -0.9482  1.2325 -2.3143
17824TIP3   OH274886   5.888   5.009  13.477 -0.2437  0.6594 -0.4044
17824TIP3    H174887   5.868   4.957  13.555 -0.1531 -2.2458 -2.1594
17824TIP3    H274888   5.843   5.092  13.491 -0.6292  0.0586  2.4961
17825TIP3   OH274889   1.396   5.887  16.286 -0.2141 -0.2715  0.1886
17825TIP3    H174890   1.377   5.813  16.228  0.5144  0.1790 -0.6576
17825TIP3    H274891   1.488   5.906  16.270 -0.2011  0.3507  0.9540
17826TIP3   OH274892   5.197   3.385  16.468  0.5200  0.0042 -0.1440
17826TIP3    H174893   5.148   3.422  16.395 -0.5458 -1.0812 -0.0185
17826TIP3    H274894   5.239   3.307  16.432 -0.8363 -1.1205  0.5903
17827TIP3   OH274895   3.668   3.481  17.041  0.0020  0.1705  0.2609
17827TIP3    H174896   3.683   3.429  16.962  1.8631  0.9782  0.0379
17827TIP3    H274897   3.671   3.572  17.012  1.2458  0.4949  1.3171
17828TIP3   OH274898   5.534   5.878  14.163 -0.2510  0.3347 -0.5256
17828TIP3    H174899   5.569   5.808  14.217  1.3687  2.4719  1.4016
17828TIP3    H274900   5.453   5.843  14.127  0.8630 -2.7303 -0.2823
17829TIP3   OH274901   5.724   4.169  15.747  0.3601  0.5582 -0.0328
17829TIP3    H174902   5.712   4.074  15.744  0.2859  0.4554  2.0952
17829TIP3    H274903   5.779   4.189  15.672 -0.2681 -1.0597 -0.9672
17830TIP3   OH274904   2.477   6.084   3.179  0.0712 -0.4256  0.0827
17830TIP3    H174905   2.425   6.036   3.244 -2.3080  0.9653 -0.6709
17830TIP3    H274906   2.476   6.174   3.211 -0.1900  0.0807 -1.3020
17831TIP3   OH274907   0.551   1.572   1.758  0.4445  0.6938  0.1639
17831TIP3    H174908   0.625   1.569   1.819  0.5706 -0.8323 -0.0417
17831TIP3    H274909   0.478   1.535   1.806  1.1627 -3.1373 -1.3537
17832TIP3   OH274910   1.409   6.089   4.314 -0.2026  0.2968 -0.6898
17832TIP3    H174911   1.483   6.073   4.257  0.2453  0.9389 -0.3036
17832TIP3    H274912   1.342   6.126   4.257  0.3889  1.3314 -0.7456
17833TIP3   OH274913   1.064   0.293   0.164  0.1809 -1.0161  0.4175
17833TIP3    H174914   1.129   0.329   0.103 -0.5718 -1.0078 -0.3892
17833TIP3    H274915   1.097   0.318   0.250 -1.0386  3.0308 -0.0826
17834TIP3   OH274916   1.538   2.302   5.191  0.4708 -0.3351  0.0254
17834TIP3    H174917   1.573   2.355   5.119  0.6612 -1.1894 -0.5253
17834TIP3    H274918   1.451   2.276   5.160 -0.6879  1.7077  1.3483
17835TIP3   OH274919   3.177   4.118  11.916 -0.4125  0.7964  0.0110
17835TIP3    H174920   3.113   4.127  11.846  1.4359  2.1552 -1.6298
17835TIP3    H274921   3.234   4.047  11.887  1.1890  2.2679 -0.6513
17836TIP3   OH274922   1.570   6.443  13.293  0.1714  0.1425  0.4666
17836TIP3    H174923   1.477   6.464  13.286 -0.0444 -1.0338 -0.6956
17836TIP3    H274924   1.579   6.358  13.250  2.0550  1.0170 -1.0994
17837TIP3   OH274925   1.080   0.826   5.354  0.1494 -0.1619  0.4305
17837TIP3    H174926   1.169   0.825   5.320 -0.0301  1.6839 -0.2183
17837TIP3    H274927   1.031   0.771   5.293  0.0102  2.4199 -1.9992
17838TIP3   OH274928   6.420   5.821  16.324 -0.6794  0.1198  0.7532
17838TIP3    H174929   6.379   5.778  16.399  1.0660  0.1003  1.7373
17838TIP3    H274930   6.418   5.914  16.345  0.0055  0.0984  0.9484
17839TIP3   OH274931   1.802   4.833  15.538 -0.4228  0.5472  0.4203
17839TIP3    H174932   1.859   4.788  15.600 -1.3196 -0.7641  0.3279
17839TIP3    H274933   1.849   4.914  15.517  2.0176 -1.0127 -0.5783
17840TIP3   OH274934   1.861   6.565   2.839  0.1103 -0.7627 -0.0739
17840TIP3    H174935   1.907   6.627   2.895 -0.0983 -1.4888  0.9106
17840TIP3    H274936   1.885   6.591   2.750  0.1314  0.6490  0.3182
17841TIP3   OH274937   5.457   0.282  16.828  0.0841  0.1413  0.6705
17841TIP3    H174938   5.543   0.241  16.825  0.5801  1.1736 -0.1542
17841TIP3    H274939   5.453   0.323  16.914 -0.0597 -0.8877  1.1573
17842TIP3   OH274940   0.305   4.252   3.632 -0.4791  0.0713  0.4870
17842TIP3    H174941   0.371   4.211   3.687 -2.3713 -1.4492  1.7644
17842TIP3    H274942   0.300   4.196   3.554 -0.6917 -0.1650  0.6705
17843TIP3   OH274943   3.253   2.378   5.347 -0.4510 -0.1133  0.2376
17843TIP3    H174944   3.193   2.305   5.330  0.8064 -1.0354 -0.4466
17843TIP3    H274945   3.318   2.373   5.276 -0.6971  2.0932 -0.2142
17844TIP3   OH274946   1.632   4.480   3.919  0.1735  0.1057 -0.1532
17844TIP3    H174947   1.586   4.419   3.862 -0.6473  0.3880  0.1909
17844TIP3    H274948   1.586   4.474   4.003 -1.7639  3.1908 -0.8454
17845TIP3   OH274949   4.706   5.655  14.098  0.0639 -0.5236  0.0985
17845TIP3    H174950   4.655   5.656  14.179 -0.6962  0.1909 -0.3546
17845TIP3    H274951   4.644   5.687  14.032  1.3747  1.3338 -0.3066
17846TIP3   OH274952   5.690   5.058  12.180 -0.1809 -0.6021  0.2535
17846TIP3    H174953   5.692   4.999  12.255 -0.7499 -1.1532 -0.1515
17846TIP3    H274954   5.598   5.061  12.153 -0.2962  1.1019  0.7323
17847TIP3   OH274955   6.710   3.643   1.394  0.5037 -0.6838  0.2194
17847TIP3    H174956   6.768   3.705   1.440  0.5427 -0.7630  0.2773
17847TIP3    H274957   6.765   3.607   1.324 -0.2190  1.1191 -1.3349
17848TIP3   OH274958   0.476   2.224   0.114 -0.0689  0.4121  0.1280
17848TIP3    H174959   0.420   2.148   0.122  0.9672 -0.6663 -2.0321
17848TIP3    H274960   0.418   2.299   0.131 -1.8630 -0.6930 -0.8480
17849TIP3   OH274961   6.518   6.217   3.845  0.7101  0.3311  0.2619
17849TIP3    H174962   6.594   6.273   3.861  0.5245  0.5725  0.2982
17849TIP3    H274963   6.442   6.272   3.866  0.4511  0.5913 -1.2413
17850TIP3   OH274964   1.008   1.325  17.054  0.2469 -0.2077 -0.3197
17850TIP3    H174965   0.986   1.233  17.041 -1.6089  0.2934 -1.0176
17850TIP3    H274966   1.033   1.330  17.147 -0.1022 -1.3202 -0.1471
17851TIP3   OH274967   2.033   3.836   3.524  0.3706 -0.6387 -0.1690
17851TIP3    H174968   1.958   3.879   3.484 -1.0331 -1.6896  1.1531
17851TIP3    H274969   2.033   3.748   3.486  0.0946 -1.0659  0.7641
17852TIP3   OH274970   3.251   2.523   5.654  0.1401 -0.1589  0.3485
17852TIP3    H174971   3.239   2.464   5.579  0.6122  0.0677  0.0901
17852TIP3    H274972   3.317   2.585   5.625 -3.0684  3.0545 -0.9451
17853TIP3   OH274973   4.250   5.143  17.099 -0.4677  0.3310  0.0502
17853TIP3    H174974   4.338   5.179  17.093 -0.2399 -0.3900 -2.9335
17853TIP3    H274975   4.192   5.219  17.101  0.1715  0.8089  0.7114
17854TIP3   OH274976   3.469   1.242   1.349 -0.3144  0.4743 -0.2274
17854TIP3    H174977   3.436   1.187   1.420 -0.5995 -0.5724 -1.1444
17854TIP3    H274978   3.391   1.266   1.299  0.0085  0.1892 -0.8838
17855TIP3   OH274979   0.362   6.473  12.437 -0.1742  0.0409 -0.1416
17855TIP3    H174980   0.314   6.443  12.515  1.2090 -1.7174  0.1031
17855TIP3    H274981   0.453   6.477  12.466  0.1301  1.2375 -1.1800
17856TIP3   OH274982   2.032   1.944   3.173  0.0050  0.7629 -0.3261
17856TIP3    H174983   1.971   2.017   3.182 -0.9487 -0.1244  0.6940
17856TIP3    H274984   1.990   1.883   3.113 -0.2275  0.0473  0.5471
17857TIP3   OH274985   5.205   6.416   3.105 -0.3303  0.0116  0.2908
17857TIP3    H174986   5.156   6.471   3.166 -0.2219  1.5533 -0.9416
17857TIP3    H274987   5.294   6.450   3.108 -0.1916 -0.2887 -0.2596
17858TIP3   OH274988   1.767   4.142   4.301 -0.0499  0.3286 -0.0798
17858TIP3    H174989   1.791   4.126   4.209  1.1160  1.3131  0.0240
17858TIP3    H274990   1.847   4.176   4.341 -0.5911  0.0850  1.2706
17859TIP3   OH274991   5.811   3.983   4.914  0.5287  0.7920  0.3716
17859TIP3    H174992   5.739   4.039   4.885  0.0326  0.6280  1.2475
17859TIP3    H274993   5.830   3.928   4.838  1.3189  2.4063 -0.6551
17860TIP3   OH274994   0.665   5.374   4.286 -0.1658 -0.1205 -0.5014
17860TIP3    H174995   0.672   5.361   4.381  0.4290 -1.4364 -0.7015
17860TIP3    H274996   0.669   5.285   4.250 -2.3823  0.1777 -1.6513
17861TIP3   OH274997   6.776   2.789  14.195 -0.1894 -0.1948  0.2562
17861TIP3    H174998   6.694   2.745  14.174  0.3863 -0.9944 -0.4149
17861TIP3    H274999   6.822   2.728  14.252 -0.0935  0.2838  0.6955
17862TIP3   OH275000   6.075   3.906   1.495  0.1862 -0.3172  0.5423
17862TIP3    H175001   6.037   3.924   1.409 -2.9362  0.5997  1.9653
17862TIP3    H275002   6.121   3.986   1.518 -1.3983  0.5538  0.8340
17863TIP3   OH275003   0.453   4.101  12.423  0.1093  0.0448  0.3748
17863TIP3    H175004   0.364   4.087  12.454  0.1671  1.0076  1.0555
17863TIP3    H275005   0.459   4.053  12.341 -1.0001 -0.1251  0.3856
17864TIP3   OH275006   5.744   3.798   1.375 -0.0356 -0.0056 -0.4022
17864TIP3    H175007   5.649   3.783   1.381 -0.2113  0.3141 -1.8844
17864TIP3    H275008   5.757   3.826   1.284  1.3523  0.9572  0.0795
17865TIP3   OH275009   4.418   3.984   4.379  0.0727 -0.5161 -0.0917
17865TIP3    H175010   4.338   3.934   4.362  1.0255 -1.6542 -1.3992
17865TIP3    H275011   4.411   4.059   4.320 -1.4416  1.1148  1.9969
17866TIP3   OH275012   5.651   2.937   3.257 -0.0624  0.4125 -0.1595
17866TIP3    H175013   5.715   2.993   3.301  0.3154 -0.9065  1.0504
17866TIP3    H275014   5.699   2.894   3.187  0.3907 -0.5120  0.6954
17867TIP3   OH275015   1.413   1.154  16.542  0.2294 -0.4198  0.1429
17867TIP3    H175016   1.348   1.221  16.566  0.8866  0.4004 -0.3105
17867TIP3    H275017   1.490   1.204  16.517  1.9301 -1.4011  2.9680
17868TIP3   OH275018   2.207   0.125  17.169 -0.8152 -0.9673  0.1214
17868TIP3    H175019   2.265   0.181  17.220 -0.0911 -1.0239 -0.6075
17868TIP3    H275020   2.126   0.175  17.159 -0.7800 -0.7588  0.8884
17869TIP3   OH275021   3.810   6.774   0.523  0.7608 -0.2168  0.4902
17869TIP3    H175022   3.757   6.707   0.480 -0.4196 -0.5792  2.4014
17869TIP3    H275023   3.819   6.743   0.613 -0.2933  2.4506  1.5882
17870TIP3   OH275024   1.534   4.284   4.870  0.0810  0.4610 -0.1416
17870TIP3    H175025   1.507   4.361   4.920  3.1131  1.3210  0.3893
17870TIP3    H275026   1.600   4.241   4.926  1.0903 -0.4632 -1.9650
17871TIP3   OH275027   0.833   3.187   0.165 -0.5286 -0.0516  0.7212
17871TIP3    H175028   0.791   3.270   0.141  1.0741  1.0973  1.6854
17871TIP3    H275029   0.771   3.120   0.137 -1.3013  1.4017 -1.2451
17872TIP3   OH275030   0.594   6.337  15.576  0.2868  0.1790 -1.1089
17872TIP3    H175031   0.602   6.416  15.523  1.4721 -0.1112 -1.3811
17872TIP3    H275032   0.556   6.368  15.658  0.7118  1.0338 -1.2174
17873TIP3   OH275033   2.757   5.760  16.839 -0.1316  0.3914  0.4557
17873TIP3    H175034   2.801   5.844  16.829 -0.2971  0.2483 -2.1020
17873TIP3    H275035   2.823   5.695  16.812  0.0761 -0.3726  2.6166
17874TIP3   OH275036   5.621   5.058  11.783 -0.0643  0.6409 -0.0341
17874TIP3    H175037   5.713   5.040  11.764 -0.2761  0.8913 -1.3782
17874TIP3    H275038   5.607   5.148  11.753 -1.0511  0.1759 -1.0442
17875TIP3   OH275039   0.875   1.947  14.319 -0.4898  0.2009  0.0466
17875TIP3    H175040   0.910   1.975  14.234 -0.3943 -0.4765 -0.1362
17875TIP3    H275041   0.947   1.959  14.380 -0.0863 -0.7124 -0.2382
17876TIP3   OH275042   0.069   1.199  15.662  0.2135 -0.3458  0.0623
17876TIP3    H175043   0.131   1.236  15.725  1.8886  0.2794 -1.8416
17876TIP3    H275044   0.110   1.118  15.632 -0.0099 -0.0953 -0.9896
17877TIP3   OH275045   4.574   4.259  11.320 -0.4642 -0.4927  0.0759
17877TIP3    H175046   4.634   4.188  11.341 -0.8905 -1.0388 -0.5071
17877TIP3    H275047   4.602   4.288  11.233 -0.3074  0.0465  0.3007
17878TIP3   OH275048   3.836   1.622  12.709 -0.1990 -0.6319 -0.1831
17878TIP3    H175049   3.894   1.691  12.679  0.2491 -1.2280 -0.7168
17878TIP3    H275050   3.893   1.547  12.724 -0.7587 -1.0849 -0.2534
17879TIP3   OH275051   5.864   5.429  15.595 -0.0051  0.3856  0.0087
17879TIP3    H175052   5.943   5.408  15.545 -0.7723 -2.5132 -0.1553
17879TIP3    H275053   5.874   5.381  15.677 -0.7477  1.5582  0.8030
17880TIP3   OH275054   0.434   0.147  14.904  0.1101  0.3796 -0.1415
17880TIP3    H175055   0.429   0.242  14.917 -1.3237  0.5951 -1.8530
17880TIP3    H275056   0.495   0.136  14.832  0.0191  0.0277 -0.1643
17881TIP3   OH275057   0.981   3.667  13.176  0.1726  0.4443 -0.0982
17881TIP3    H175058   0.889   3.655  13.198  0.4182  1.0581  1.4029
17881TIP3    H275059   0.982   3.738  13.112 -0.4136  0.2204 -0.3576
17882TIP3   OH275060   2.100   0.671   5.449  0.2521 -0.3126  0.3149
17882TIP3    H175061   2.144   0.702   5.528 -1.9957  0.5313  1.3173
17882TIP3    H275062   2.013   0.642   5.479 -0.0850 -1.5016 -1.6099
17883TIP3   OH275063   2.674   0.029  14.153 -0.0818 -0.1684  0.5148
17883TIP3    H175064   2.646   0.094  14.089 -0.4298 -2.2579 -1.5914
17883TIP3    H275065   2.654   0.068  14.238 -1.1325  2.0489 -0.6726
17884TIP3   OH275066   1.629   1.920  12.885 -0.3169 -0.7638  0.4180
17884TIP3    H175067   1.591   1.834  12.905 -0.3268 -0.8406  0.0703
17884TIP3    H275068   1.723   1.905  12.886 -0.0811  0.0556  4.3171
17885TIP3   OH275069   6.463   5.520  11.269 -0.6959 -0.4064  0.4401
17885TIP3    H175070   6.458   5.511  11.364 -0.4192  0.3680  0.5381
17885TIP3    H275071   6.392   5.466  11.236 -1.4374  0.1187  1.1371
17886TIP3   OH275072   5.332   5.114  13.137  0.4696  0.0181 -0.2947
17886TIP3    H175073   5.239   5.122  13.116  0.7353  1.7526 -0.9197
17886TIP3    H275074   5.351   5.188  13.194  1.4731 -0.3282 -0.1551
17887TIP3   OH275075   6.716   0.075  11.253 -0.2910 -0.1155  0.7261
17887TIP3    H175076   6.670   0.159  11.259  0.4721  0.3510  0.2591
17887TIP3    H275077   6.649   0.009  11.271 -1.6659  0.4236 -1.9945
17888TIP3   OH275078   0.143   4.740  13.992 -0.1203 -0.2693  0.3893
17888TIP3    H175079   0.067   4.705  14.038 -0.5446 -0.5733 -0.5333
17888TIP3    H275080   0.109   4.810  13.937 -0.0470 -1.5133 -1.3230
17889TIP3   OH275081   2.773   1.181  13.519  0.2102 -0.0425 -0.0556
17889TIP3    H175082   2.772   1.088  13.497  1.5517  0.2080 -1.3819
17889TIP3    H275083   2.860   1.195  13.557 -0.2790  0.5196  0.8696
17890TIP3   OH275084   1.721   1.583  15.357 -0.1506 -0.6204 -0.4819
17890TIP3    H175085   1.776   1.511  15.389  0.4083  0.0770  0.1509
17890TIP3    H275086   1.760   1.662  15.395 -0.4905  0.0667 -1.5159
17891TIP3   OH275087   4.326   0.222   2.724  0.2982 -0.6860  0.2613
17891TIP3    H175088   4.352   0.308   2.759 -2.0201 -0.2674  1.1359
17891TIP3    H275089   4.314   0.237   2.630 -0.7725  0.1824  0.5108
17892TIP3   OH275090   5.748   6.154   1.813 -0.1761 -0.2804 -0.8005
17892TIP3    H175091   5.833   6.194   1.832  0.1689 -0.3756 -2.0945
17892TIP3    H275092   5.749   6.136   1.719 -1.7175 -0.0842 -0.8901
17893TIP3   OH275093   2.965   0.159   1.742 -0.0671  0.4740  0.3427
17893TIP3    H175094   2.970   0.223   1.813  0.8799 -0.3888  1.0796
17893TIP3    H275095   2.873   0.163   1.713 -0.1112  1.8850  0.6124
17894TIP3   OH275096   4.520   1.125  14.686 -0.3629 -0.0271 -0.0951
17894TIP3    H175097   4.605   1.082  14.683 -0.8947 -1.0614 -0.9118
17894TIP3    H275098   4.484   1.113  14.599 -0.7038  1.7738 -0.2382
17895TIP3   OH275099   1.600   5.364   3.737  0.0186 -0.2974 -0.1490
17895TIP3    H175100   1.687   5.378   3.699  0.6218 -0.5880  1.0738
17895TIP3    H275101   1.551   5.443   3.715  0.7132  0.0299 -0.5499
17896TIP3   OH275102   1.285   0.801   4.207 -0.7888  0.3656  0.5533
17896TIP3    H175103   1.279   0.706   4.203  1.4553  0.1341  1.4174
17896TIP3    H275104   1.231   0.825   4.283  0.3972 -0.4595  1.6896
17897TIP3   OH275105   4.514   2.713   1.782 -0.2997  0.0192  0.1392
17897TIP3    H175106   4.573   2.641   1.803 -0.1563  0.5758  1.8601
17897TIP3    H275107   4.498   2.755   1.867 -1.7706  0.9406 -0.5656
17898TIP3   OH275108   0.640   3.535  15.760  0.0133  0.3855  0.3369
17898TIP3    H175109   0.728   3.551  15.794  0.1125  0.5171  0.0119
17898TIP3    H275110   0.582   3.578  15.823  0.1353 -0.3660  0.9869
17899TIP3   OH275111   0.933   6.334  13.173  0.4118 -0.4836 -0.2512
17899TIP3    H175112   0.948   6.250  13.217 -1.3754 -0.5207  0.3452
17899TIP3    H275113   0.849   6.365  13.207  0.5719  1.0920 -1.1902
17900TIP3   OH275114   3.332   5.427   4.361 -0.0648 -0.3412 -0.1825
17900TIP3    H175115   3.339   5.354   4.301  1.7237  0.4069 -0.9581
17900TIP3    H275116   3.243   5.460   4.349  0.3073 -0.0561 -2.6309
17901TIP3   OH275117   6.669   0.003   0.549  0.1176 -0.1549  0.1006
17901TIP3    H175118   6.592   0.052   0.523  0.1905  0.7750  1.5309
17901TIP3    H275119   6.738   0.032   0.489 -0.5137 -0.6641 -0.8941
17902TIP3   OH275120   5.590   5.864  14.885  0.5047  1.0786  0.2348
17902TIP3    H175121   5.653   5.900  14.822 -1.6490  0.9886 -2.1164
17902TIP3    H275122   5.505   5.876  14.843 -1.0671  0.8857  3.1286
17903TIP3   OH275123   4.078   3.427  12.062 -0.7037 -0.5603  0.4040
17903TIP3    H175124   3.995   3.406  12.020 -0.2032 -1.0456 -0.3698
17903TIP3    H275125   4.124   3.343  12.069 -1.1982 -0.6948  2.9477
17904TIP3   OH275126   5.649   2.759  16.267  0.7063 -0.0509  0.1515
17904TIP3    H175127   5.730   2.727  16.308  0.5845  1.0103  1.3057
17904TIP3    H275128   5.627   2.693  16.201  2.0670 -0.7676  0.3763
17905TIP3   OH275129   3.429   0.821  14.730  0.0811  0.2222  0.0404
17905TIP3    H175130   3.498   0.754  14.728  0.2516  0.2399  2.5894
17905TIP3    H275131   3.395   0.823  14.640  0.1574 -3.1762 -0.1813
17906TIP3   OH275132   2.679   1.055  15.988 -0.2686  0.3216 -0.0260
17906TIP3    H175133   2.676   1.029  16.080 -0.6442 -0.1350 -0.1667
17906TIP3    H275134   2.629   1.137  15.984  2.9334  2.5306  0.8696
17907TIP3   OH275135   5.160   1.990  12.118  0.0906 -0.4572  0.0129
17907TIP3    H175136   5.127   1.913  12.071 -0.2998 -0.0076 -0.4652
17907TIP3    H275137   5.085   2.049  12.123  0.3317 -0.1872  0.5601
17908TIP3   OH275138   3.827   6.532  15.528  0.0883 -0.1564 -0.0726
17908TIP3    H175139   3.869   6.618  15.532  1.2709 -0.6053 -1.8783
17908TIP3    H275140   3.890   6.472  15.567  0.0150 -0.4492 -0.3992
17909TIP3   OH275141   6.117   1.287  13.922 -0.2584  0.2430 -0.2579
17909TIP3    H175142   6.085   1.359  13.977 -0.7791  0.2775 -0.5951
17909TIP3    H275143   6.081   1.208  13.964 -0.1974  0.2271 -0.2360
17910TIP3   OH275144   0.281   2.305   1.040  0.0255  0.2329 -0.2059
17910TIP3    H175145   0.212   2.359   1.001  1.6882  0.7970 -2.5641
17910TIP3    H275146   0.248   2.215   1.032 -1.9404  0.6586  2.0238
17911TIP3   OH275147   0.267   2.153   4.713  0.5013 -0.4292  0.2826
17911TIP3    H175148   0.197   2.169   4.775  0.7320  0.1757  0.3974
17911TIP3    H275149   0.261   2.060   4.692 -0.5708 -0.2981 -0.0094
17912TIP3   OH275150   2.567   1.679   6.062 -0.0447  0.1836 -0.1293
17912TIP3    H175151   2.548   1.610   6.126 -0.9512  0.5231 -0.0137
17912TIP3    H275152   2.482   1.700   6.024  0.2852  0.9425 -0.4630
17913TIP3   OH275153   6.379   6.562   3.711  0.2629  0.5409  0.1849
17913TIP3    H175154   6.345   6.586   3.624 -1.2011 -1.2344  0.2082
17913TIP3    H275155   6.472   6.545   3.696  0.2259  1.1206 -0.8443
17914TIP3   OH275156   2.787   3.498  14.469  0.4601  0.2834 -0.4523
17914TIP3    H175157   2.724   3.471  14.536 -0.5296  0.3733 -1.3169
17914TIP3    H275158   2.864   3.444  14.485 -0.5214 -1.1981 -0.5268
17915TIP3   OH275159   3.538   1.416  12.365 -0.1978  0.4183  1.2469
17915TIP3    H175160   3.561   1.429  12.273  0.2403  0.6784  1.3915
17915TIP3    H275161   3.615   1.446  12.413 -0.5285  0.5301  1.7083
17916TIP3   OH275162   4.163   0.552  14.703  0.4091  0.6205  0.2308
17916TIP3    H175163   4.100   0.618  14.733 -0.7301 -1.5852  3.2533
17916TIP3    H275164   4.109   0.483  14.665  1.1810 -0.2553  0.6915
17917TIP3   OH275165   0.804   3.024  10.748  0.3168 -0.1348 -0.2153
17917TIP3    H175166   0.800   2.989  10.837 -4.4368  0.6758  0.1823
17917TIP3    H275167   0.766   2.955  10.694  1.6204  0.0391 -1.4036
17918TIP3   OH275168   0.877   4.448   3.545 -0.1180 -0.4436  0.1164
17918TIP3    H175169   0.889   4.521   3.606  0.5310  0.1778 -0.7150
17918TIP3    H275170   0.903   4.485   3.460 -2.1560 -0.9066 -0.7527
17919TIP3   OH275171   4.879   0.383  16.001 -0.1786 -0.1043  0.2657
17919TIP3    H175172   4.932   0.422  15.931  0.3153 -1.3162 -0.0569
17919TIP3    H275173   4.929   0.306  16.029 -1.4481 -0.9028  0.4135
17920TIP3   OH275174   0.258   1.901  13.771  0.1169  0.6167 -0.1913
17920TIP3    H175175   0.250   1.830  13.707  1.0884 -0.3730  0.7388
17920TIP3    H275176   0.184   1.959  13.751  0.4574  0.4301 -2.2815
17921TIP3   OH275177   3.218   4.788  11.917  0.1795 -0.0114  0.4216
17921TIP3    H175178   3.295   4.770  11.970 -0.2750 -4.3535 -0.0028
17921TIP3    H275179   3.144   4.777  11.976 -0.1970 -0.2578 -0.0811
17922TIP3   OH275180   4.128   6.094   4.573  0.1390  0.0730 -0.0402
17922TIP3    H175181   4.169   6.028   4.628  1.5909  1.6933  0.9247
17922TIP3    H275182   4.136   6.060   4.484  0.4913 -1.1991  0.4526
17923TIP3   OH275183   1.212   5.742   0.644  0.1595 -0.3753 -0.0427
17923TIP3    H175184   1.261   5.683   0.702  0.4166 -2.0293 -1.8619
17923TIP3    H275185   1.161   5.684   0.588 -1.0151  1.2177 -0.6895
17924TIP3   OH275186   4.613   3.697  15.534  0.2942  0.3910 -0.4470
17924TIP3    H175187   4.672   3.664  15.466 -0.7743  0.2698 -1.3379
17924TIP3    H275188   4.650   3.782  15.558  1.2809 -0.0325 -0.4093
17925TIP3   OH275189   1.180   4.670   3.128  0.1111  0.8456 -0.7545
17925TIP3    H175190   1.201   4.640   3.039  1.2476 -0.8615  0.0250
17925TIP3    H275191   1.201   4.595   3.184 -4.2604  0.4043  0.6487
17926TIP3   OH275192   6.706   5.594  17.218 -0.1752  0.0370  0.9634
17926TIP3    H175193   6.782   5.632  17.175 -2.3124  2.2035 -1.1684
17926TIP3    H275194   6.694   5.510  17.175 -0.2924  0.6833 -0.2861
17927TIP3   OH275195   6.776   3.549   0.569  0.3344  0.3771  0.9728
17927TIP3    H175196   6.781   3.472   0.513 -0.0319  0.0840  1.3372
17927TIP3    H275197   6.701   3.598   0.535 -0.6746 -0.4236  1.9618
17928TIP3   OH275198   3.404   6.351  15.481 -0.0382  0.4973  0.1898
17928TIP3    H175199   3.465   6.422  15.498  0.2760 -0.0312  1.3786
17928TIP3    H275200   3.319   6.385  15.506  0.0771  0.5510  0.5153
17929TIP3   OH275201   4.652   4.937   1.642  0.2606 -0.4143 -0.0025
17929TIP3    H175202   4.664   4.887   1.562  2.6106  1.8415 -1.1958
17929TIP3    H275203   4.571   4.987   1.628 -1.3014 -2.6180  0.6128
17930TIP3   OH275204   6.442   0.041   5.431 -0.1792  0.3838 -0.5450
17930TIP3    H175205   6.360   0.086   5.453 -0.4597 -0.3401 -0.1158
17930TIP3    H275206   6.494   0.043   5.511  0.5366  1.4618 -1.0007
17931TIP3   OH275207   6.159   5.610   1.831 -0.4029 -0.1821  0.0014
17931TIP3    H175208   6.120   5.603   1.744 -0.9400 -0.3945  0.2553
17931TIP3    H275209   6.086   5.636   1.888  0.0678  0.5443  0.2874
17932TIP3   OH275210   1.796   2.656  11.149 -0.5861  0.2394  0.5763
17932TIP3    H175211   1.882   2.618  11.128 -0.6875 -0.0828  0.7401
17932TIP3    H275212   1.776   2.622  11.236 -1.0524  0.0095  0.3813
17933TIP3   OH275213   1.426   0.120  15.767 -0.2040 -0.2909  0.1045
17933TIP3    H175214   1.417   0.187  15.700 -0.6220  1.3024  1.6645
17933TIP3    H275215   1.390   0.041  15.727 -0.4750  0.6020 -1.5037
17934TIP3   OH275216   1.583   1.004   5.144 -0.0490 -0.2284  0.4737
17934TIP3    H175217   1.647   1.050   5.199  0.8278  1.2057 -1.6171
17934TIP3    H275218   1.637   0.949   5.087 -0.6641  0.8898 -1.2246
17935TIP3   OH275219   2.825   5.637   3.503  0.5422 -0.0391  0.2297
17935TIP3    H175220   2.766   5.582   3.450 -0.3789  0.3645  0.8102
17935TIP3    H275221   2.847   5.582   3.578  1.5831 -0.4894 -0.3822
17936TIP3   OH275222   0.861   4.136  15.087  0.2977  0.5594  0.5259
17936TIP3    H175223   0.902   4.213  15.048  0.6896 -0.0472 -0.2894
17936TIP3    H275224   0.767   4.151  15.076  0.3519  1.1117  0.7625
17937TIP3   OH275225   3.923   4.725   5.650 -0.2684  0.8170  0.1422
17937TIP3    H175226   3.839   4.680   5.645 -0.6526  1.6253 -1.6306
17937TIP3    H275227   3.974   4.676   5.715 -1.0034 -1.5610 -0.9783
17938TIP3   OH275228   1.589   2.001   4.284  0.0783  0.3580 -0.2343
17938TIP3    H175229   1.533   1.924   4.294  0.0059  0.5523  0.9796
17938TIP3    H275230   1.672   1.975   4.324  0.0049  0.9498  0.3201
17939TIP3   OH275231   6.697   1.767   2.657  0.2798  0.7193  0.3646
17939TIP3    H175232   6.601   1.777   2.655  0.1017 -0.5001  1.4972
17939TIP3    H275233   6.717   1.719   2.577  0.2667  3.0065 -1.1125
17940TIP3   OH275234   2.635   5.633  16.009  0.0954  0.2680  0.8293
17940TIP3    H175235   2.592   5.558  16.050 -0.4482  0.2945  0.3203
17940TIP3    H275236   2.659   5.690  16.082 -2.2950  1.0952  1.0848
17941TIP3   OH275237   6.784   0.711  11.337 -0.2453 -0.0795  0.1055
17941TIP3    H175238   6.845   0.654  11.289 -0.1724  0.2703 -0.2230
17941TIP3    H275239   6.829   0.796  11.341 -1.3747  0.6596 -1.5681
17942TIP3   OH275240   1.072   3.406   5.000  0.1563 -0.1663  0.3344
17942TIP3    H175241   1.041   3.461   5.071 -0.4596 -0.9201  0.6639
17942TIP3    H275242   1.125   3.339   5.043  0.4083 -0.1908 -0.0016
17943TIP3   OH275243   3.362   4.623  12.758  0.4518 -0.4042  0.4516
17943TIP3    H175244   3.353   4.550  12.819  0.8675 -1.0701 -0.2795
17943TIP3    H275245   3.272   4.643  12.731  0.4202 -1.2783 -0.0913
17944TIP3   OH275246   3.281   3.424   1.616 -0.2004  0.1485  0.0802
17944TIP3    H175247   3.354   3.366   1.636  0.0660  0.7263  0.8334
17944TIP3    H275248   3.288   3.439   1.522  0.7303  0.2923  0.1592
17945TIP3   OH275249   4.855   1.081   5.913 -0.3847  0.0297  0.3896
17945TIP3    H175250   4.765   1.062   5.941 -0.9271  1.1050 -0.5255
17945TIP3    H275251   4.847   1.158   5.857  1.2522  0.7858  1.1179
17946TIP3   OH275252   3.716   1.038  15.198  0.0121  0.0587  0.3707
17946TIP3    H175253   3.796   1.090  15.205  0.4104 -0.0727 -2.1712
17946TIP3    H275254   3.649   1.101  15.170  0.3062 -0.5400 -1.8839
17947TIP3   OH275255   0.208   3.027  14.962  0.2881  0.0741 -0.3556
17947TIP3    H175256   0.180   3.110  14.924 -1.5376  0.6909  2.0756
17947TIP3    H275257   0.247   2.978  14.889 -0.6521  2.1427 -2.3449
17948TIP3   OH275258   2.808   0.711  11.277 -0.1252  0.1613 -0.3737
17948TIP3    H175259   2.854   0.783  11.320 -1.2762 -0.1538  1.5026
17948TIP3    H275260   2.717   0.741  11.272 -0.3295 -0.5364 -1.0363
17949TIP3   OH275261   0.529   0.086  10.883  0.3257 -0.1804  0.0891
17949TIP3    H175262   0.473   0.052  10.813 -0.1639 -5.1215  2.4213
17949TIP3    H275263   0.479   0.159  10.921 -2.0146 -0.9742 -1.2625
17950TIP3   OH275264   4.811   3.172  16.725  0.1547  0.2188 -0.5079
17950TIP3    H175265   4.792   3.223  16.803 -2.6785 -1.6493  0.1842
17950TIP3    H275266   4.816   3.236  16.655  0.0013  1.7054  0.7750
17951TIP3   OH275267   3.833   4.156  11.882 -0.1577 -0.1549 -0.0740
17951TIP3    H175268   3.890   4.153  11.959  1.0114  1.2806 -0.8381
17951TIP3    H275269   3.893   4.144  11.808 -0.8182  1.3718 -0.8950
17952TIP3   OH275270   5.510   5.494   1.537  0.2353  0.1780  0.4128
17952TIP3    H175271   5.554   5.421   1.492 -0.9726 -1.3534  1.5731
17952TIP3    H275272   5.418   5.466   1.543 -0.2494  1.7830  0.9795
17953TIP3   OH275273   0.607   4.900   3.850  0.5982 -0.5703  0.2278
17953TIP3    H175274   0.689   4.938   3.818  2.3203 -2.6394  1.8497
17953TIP3    H275275   0.585   4.834   3.784 -0.1706  0.4121 -0.5323
17954TIP3   OH275276   0.364   1.474   0.778 -0.1053  0.2174 -0.5516
17954TIP3    H175277   0.297   1.437   0.722 -0.5650  1.0062 -0.5431
17954TIP3    H275278   0.368   1.567   0.753  1.0382  0.1729 -0.6091
17955TIP3   OH275279   2.698   0.432   2.170 -0.7345  0.4306  0.2275
17955TIP3    H175280   2.682   0.344   2.202  1.0144  0.0606  0.1638
17955TIP3    H275281   2.657   0.435   2.083  0.5059 -0.8538 -0.4429
17956TIP3   OH275282   3.567   5.221  11.838 -0.4331 -0.1397  0.0159
17956TIP3    H175283   3.530   5.240  11.751  0.2354  0.1577 -0.2134
17956TIP3    H275284   3.505   5.260  11.899 -1.0967 -0.6627 -0.3125
17957TIP3   OH275285   6.170   4.640  11.799  0.0624 -0.3072  0.1846
17957TIP3    H175286   6.129   4.566  11.754  1.2081 -0.8073 -0.0882
17957TIP3    H275287   6.218   4.687  11.730  0.6559 -0.2497  0.6259
17958TIP3   OH275288   1.847   1.184  11.807  0.1472 -0.1131 -0.2394
17958TIP3    H175289   1.882   1.130  11.735  0.9301  1.2941 -0.9438
17958TIP3    H275290   1.752   1.170  11.803  0.3605 -2.0646  0.1344
17959TIP3   OH275291   3.591   6.557   5.428  0.3172 -0.6114  0.2000
17959TIP3    H175292   3.512   6.607   5.447  1.1552  1.2550 -0.9908
17959TIP3    H275293   3.582   6.533   5.335  1.4188  0.1983 -0.1378
17960TIP3   OH275294   5.530   5.450  17.201 -0.3094 -0.4561 -0.4607
17960TIP3    H175295   5.449   5.429  17.155 -0.6334  0.0030 -0.1125
17960TIP3    H275296   5.505   5.449  17.294 -0.5093  1.9548 -0.4022
17961TIP3   OH275297   5.903   2.763   2.839 -0.2750  0.1581 -0.2197
17961TIP3    H175298   5.961   2.827   2.797  2.6637 -0.5900  2.3426
17961TIP3    H275299   5.921   2.681   2.794  1.4965 -0.2660  1.1613
17962TIP3   OH275300   3.471   5.702  15.000  0.0895 -0.0075 -0.0634
17962TIP3    H175301   3.515   5.747  14.927 -0.1689 -0.1868 -0.3364
17962TIP3    H275302   3.542   5.664  15.051  0.3164  0.7796  0.2183
17963TIP3   OH275303   1.400   0.778  10.253  0.7800 -0.6109  0.2405
17963TIP3    H175304   1.387   0.684  10.268 -0.4014 -0.4818  0.1009
17963TIP3    H275305   1.313   0.812  10.233  1.0925  0.6294  0.8631
17964TIP3   OH275306   0.173   4.971   4.707 -0.5739 -0.5268 -0.3041
17964TIP3    H175307   0.157   5.065   4.697  0.0810 -0.5422 -1.7793
17964TIP3    H275308   0.180   4.958   4.802 -0.4390  0.9447 -0.0854
17965TIP3   OH275309   0.851   6.298  16.400  0.2680  0.2831 -0.2498
17965TIP3    H175310   0.816   6.322  16.314 -1.5879  0.8576  0.6242
17965TIP3    H275311   0.806   6.216  16.422  2.1318 -0.8998 -0.6020
17966TIP3   OH275312   6.727   1.255   5.965  0.4474  0.6050  0.0359
17966TIP3    H175313   6.780   1.241   6.043  0.0782 -0.6553  0.0873
17966TIP3    H275314   6.733   1.172   5.916  1.1154  1.5509 -1.5572
17967TIP3   OH275315   2.003   6.005  16.073  0.1655  0.9768  0.1551
17967TIP3    H175316   1.950   5.980  15.997 -0.0068  1.0079  0.2636
17967TIP3    H275317   2.012   6.100  16.065 -2.4238  1.4677  1.7844
17968TIP3   OH275318   6.380   3.355  11.474 -0.6765 -0.4041  0.5294
17968TIP3    H175319   6.325   3.286  11.509 -1.4276 -0.5677 -0.8753
17968TIP3    H275320   6.318   3.418  11.437 -0.1245  1.9948  3.3280
17969TIP3   OH275321   5.478   1.301   5.055 -0.0529 -0.0946 -0.2638
17969TIP3    H175322   5.425   1.359   5.001 -0.9219 -1.2243 -0.6465
17969TIP3    H275323   5.542   1.263   4.995  2.8520  2.9763  0.5633
17970TIP3   OH275324   1.780   5.272   2.046 -0.1667  0.1567  0.6921
17970TIP3    H175325   1.745   5.236   2.127  0.1933 -1.3033  0.2294
17970TIP3    H275326   1.866   5.307   2.070  0.5792 -1.5909  0.6891
17971TIP3   OH275327   1.293   6.562  14.341  0.5983 -0.0116 -0.3517
17971TIP3    H175328   1.256   6.650  14.345  0.1963 -0.1516 -0.8380
17971TIP3    H275329   1.304   6.545  14.248 -0.9947 -1.1498 -0.3863
17972TIP3   OH275330   3.629   5.595   5.781 -0.2356 -0.0145  0.0893
17972TIP3    H175331   3.636   5.618   5.874 -0.5106  1.3117 -0.1986
17972TIP3    H275332   3.711   5.625   5.743  0.1957 -1.2296  0.0105
17973TIP3   OH275333   0.219   3.273   1.527  0.1230 -0.2334 -0.7097
17973TIP3    H175334   0.290   3.291   1.588 -0.4022  1.2887 -0.5008
17973TIP3    H275335   0.260   3.276   1.440  0.5768 -0.8168 -0.5174
17974TIP3   OH275336   4.601   0.942   0.333 -0.4288 -0.1764  0.5694
17974TIP3    H175337   4.611   1.017   0.274  1.0808  0.6036  1.7600
17974TIP3    H275338   4.676   0.886   0.315 -0.0388 -0.0117  1.6118
17975TIP3   OH275339   5.357   2.494  12.637 -0.3259 -0.6258 -0.7339
17975TIP3    H175340   5.270   2.507  12.599 -0.3624 -1.8861 -1.1113
17975TIP3    H275341   5.389   2.413  12.598  1.0425 -0.1727 -0.6162
17976TIP3   OH275342   4.459   6.653  15.848 -0.4076 -0.0417 -0.2735
17976TIP3    H175343   4.413   6.610  15.921 -0.6328  1.0395  0.2400
17976TIP3    H275344   4.407   6.731  15.830  1.0181  1.0225  0.0833
17977TIP3   OH275345   0.458   6.784  15.963  0.6824  0.6055  0.3801
17977TIP3    H175346   0.534   6.784  15.905  1.0617  1.0511  0.8738
17977TIP3    H275347   0.386   6.815  15.909  0.3443 -1.8409 -0.7272
17978TIP3   OH275348   5.386   0.800   6.216 -0.3682  0.2008  0.1944
17978TIP3    H175349   5.455   0.781   6.152 -1.2929  3.2167 -1.9534
17978TIP3    H275350   5.431   0.803   6.300  2.5579  3.4559 -1.2529
17979TIP3   OH275351   2.941   3.868  16.966  0.4231  0.2139  0.9202
17979TIP3    H175352   2.979   3.781  16.955  1.1077  0.2454  2.7053
17979TIP3    H275353   2.877   3.857  17.036 -2.0504  0.4428 -1.1548
17980TIP3   OH275354   1.762   1.487  11.098  0.0998  0.4195  0.2887
17980TIP3    H175355   1.807   1.555  11.049  2.6043 -0.8738  0.6347
17980TIP3    H275356   1.723   1.431  11.031  1.4987 -0.0286 -0.1888
17981TIP3   OH275357   1.897   0.043   4.259  0.1398  0.1633  0.0027
17981TIP3    H175358   1.917   0.069   4.169  1.5181  0.7327  0.4448
17981TIP3    H275359   1.807   0.072   4.273 -0.4036 -0.6967 -1.4526
17982TIP3   OH275360   3.458   3.849  13.518 -0.0351  0.1890 -0.2892
17982TIP3    H175361   3.381   3.871  13.465 -1.3936 -1.8929  0.6738
17982TIP3    H275362   3.443   3.896  13.601 -0.1540 -0.0347 -0.1838
17983TIP3   OH275363   0.303   4.141  15.343 -0.1632 -0.1869  0.2267
17983TIP3    H175364   0.385   4.093  15.355 -0.8224 -0.7794  2.7825
17983TIP3    H275365   0.327   4.232  15.360  0.2062 -0.1800 -0.2999
17984TIP3   OH275366   3.403   5.174   4.815 -0.4423 -0.1414  0.0408
17984TIP3    H175367   3.384   5.098   4.759 -1.4684  0.4924 -0.5073
17984TIP3    H275368   3.415   5.247   4.754  0.3471  0.1870  0.5728
17985TIP3   OH275369   6.386   1.272   0.855  0.1202  0.1763 -0.0895
17985TIP3    H175370   6.347   1.330   0.920  0.8487  0.0026  0.5192
17985TIP3    H275371   6.313   1.247   0.798 -0.1065  2.2155 -0.8037
17986TIP3   OH275372   4.682   5.733   5.636  0.0800  0.2383  0.4333
17986TIP3    H175373   4.653   5.708   5.548  0.9910  1.0030 -0.1138
17986TIP3    H275374   4.626   5.807   5.659  1.1015  1.3119 -0.3607
17987TIP3   OH275375   0.718   0.786   3.419 -0.6180 -0.5513 -0.0364
17987TIP3    H175376   0.766   0.865   3.447  2.5789 -1.2547 -2.9005
17987TIP3    H275377   0.737   0.722   3.488  2.8399 -0.7952 -1.0204
17988TIP3   OH275378   3.834   1.745   0.933  0.3669 -0.3796  0.3442
17988TIP3    H175379   3.815   1.834   0.966  3.3217 -0.1971  1.8676
17988TIP3    H275380   3.929   1.744   0.919  0.4778 -3.4072  0.6559
17989TIP3   OH275381   1.111   6.733  14.812  0.6527  0.6223  0.2429
17989TIP3    H175382   1.158   6.721  14.729  0.4484 -0.4727  0.2766
17989TIP3    H275383   1.172   6.784  14.866  1.5267 -0.1396  0.0205
17990TIP3   OH275384   4.468   5.218   2.395  0.1219 -0.2019 -0.0099
17990TIP3    H175385   4.466   5.122   2.404 -0.0756 -0.2363 -0.3994
17990TIP3    H275386   4.526   5.247   2.465  1.5528 -0.7326 -0.9389
17991TIP3   OH275387   6.364   3.738  14.236 -0.2864  0.1603 -0.4475
17991TIP3    H175388   6.432   3.771  14.295  1.0222 -1.4644 -0.9733
17991TIP3    H275389   6.336   3.656  14.276 -1.7628  0.6575 -0.4083
17992TIP3   OH275390   5.433   2.231   1.679 -0.8387 -0.3243 -0.6336
17992TIP3    H175391   5.454   2.316   1.717  0.0587 -1.0650  0.5883
17992TIP3    H275392   5.404   2.178   1.752  0.7769 -1.7403 -0.9464
17993TIP3   OH275393   2.225   0.746  11.782  0.6703  0.1845  0.4850
17993TIP3    H175394   2.131   0.740  11.765  0.8869  0.8142 -1.1335
17993TIP3    H275395   2.232   0.775  11.873 -0.7003  0.0984  0.6254
17994TIP3   OH275396   3.437   0.166  14.061  0.1236  0.7385  0.1346
17994TIP3    H175397   3.478   0.206  13.984  0.3102  0.7222  0.2237
17994TIP3    H275398   3.511   0.139  14.116 -0.0114  1.5763  0.7428
17995TIP3   OH275399   2.057   1.013   1.145 -0.1838 -0.5848  0.5998
17995TIP3    H175400   2.135   1.064   1.168  1.1745 -1.8065 -1.0260
17995TIP3    H275401   1.994   1.033   1.215  1.0896  1.4641  1.2658
17996TIP3   OH275402   5.390   0.370   4.079 -0.4780 -0.6260 -0.2013
17996TIP3    H175403   5.420   0.391   4.167 -0.3410 -0.3661 -0.3064
17996TIP3    H275404   5.342   0.448   4.051  0.9916  0.0469 -1.0199
17997TIP3   OH275405   1.013   4.989   3.242  0.6519  0.0669 -0.2789
17997TIP3    H175406   0.929   4.985   3.288  2.0157 -0.6842  2.4235
17997TIP3    H275407   1.028   5.082   3.228  0.2456  0.3748  1.1014
17998TIP3   OH275408   5.822   1.291  17.158 -0.2673  0.1290  0.2911
17998TIP3    H175409   5.868   1.208  17.147  0.1391  0.3950 -0.0477
17998TIP3    H275410   5.888   1.358  17.140 -0.0002  0.5914  2.7172
17999TIP3   OH275411   2.375   4.825  15.184 -0.2497 -0.1033 -0.4577
17999TIP3    H175412   2.458   4.791  15.218 -0.0365  0.0645 -0.8117
17999TIP3    H275413   2.350   4.763  15.116 -0.8878 -0.6703  0.2737
18000TIP3   OH275414   1.940   5.296  12.962 -0.4672  0.1408 -0.1010
18000TIP3    H175415   2.019   5.339  12.929  1.2214 -3.0465 -0.6995
18000TIP3    H275416   1.874   5.311  12.895  0.3912  0.8263 -0.8167
18001TIP3   OH275417   3.540   4.658   4.283  0.1267  0.4346  0.5653
18001TIP3    H175418   3.449   4.629   4.296  0.8803 -2.2126  0.6011
18001TIP3    H275419   3.593   4.584   4.313  2.3176  1.8098  0.2999
18002TIP3   OH275420   0.132   4.319  15.192 -0.3815 -0.1358  0.3327
18002TIP3    H175421   0.146   4.380  15.264 -2.5524 -0.5753  1.2022
18002TIP3    H275422   0.172   4.237  15.221  0.9268  0.3468 -0.0566
18003TIP3   OH275423   3.379   3.654   6.207 -0.2226  0.5649  0.2141
18003TIP3    H175424   3.285   3.644   6.219 -0.1482 -2.7492 -0.8133
18003TIP3    H275425   3.417   3.626   6.290 -0.1191  0.5501  0.1613
18004TIP3   OH275426   5.687   2.378   4.102  0.8441  0.0038  0.0066
18004TIP3    H175427   5.673   2.283   4.102 -0.2684  0.1190  1.7493
18004TIP3    H275428   5.687   2.402   4.194  0.9685  1.7303 -0.4073
18005TIP3   OH275429   4.332   1.420  14.723  0.0875  0.4250  0.2357
18005TIP3    H175430   4.361   1.510  14.709  0.8585  0.4291  1.6745
18005TIP3    H275431   4.413   1.368  14.716 -0.0531  0.0628  1.1487
18006TIP3   OH275432   3.126   0.053  14.348  0.1294  0.4806  0.1309
18006TIP3    H175433   3.130   0.099  14.264 -0.1058 -0.1049 -0.2036
18006TIP3    H275434   3.216   0.022  14.363  0.1918  0.6633  0.1513
18007TIP3   OH275435   1.705   2.859  12.639  0.6427 -0.0956  0.6059
18007TIP3    H175436   1.691   2.926  12.706 -1.8649 -0.1007  0.1860
18007TIP3    H275437   1.716   2.778  12.688 -0.7273 -0.0283  1.0755
18008TIP3   OH275438   1.974   2.385  14.845  0.0631  0.2093 -0.2968
18008TIP3    H175439   1.995   2.348  14.931  0.0605 -0.1357 -0.4401
18008TIP3    H275440   2.014   2.472  14.846 -0.5880  0.5109  0.3335
18009TIP3   OH275441   3.414   0.487   0.899  0.0137  0.1383 -0.0623
18009TIP3    H175442   3.384   0.537   0.975 -1.5266  1.1769 -1.2803
18009TIP3    H275443   3.508   0.505   0.894  0.1336  0.0997  1.5399
18010TIP3   OH275444   1.588   0.664  16.707 -0.0697 -0.2928  0.1773
18010TIP3    H175445   1.574   0.694  16.797  3.2769  1.4924  0.2686
18010TIP3    H275446   1.661   0.602  16.713 -0.8426 -1.3739 -1.1630
18011TIP3   OH275447   3.837   4.931   0.961  0.0175  0.2800  0.3428
18011TIP3    H175448   3.897   4.979   0.904 -0.1320 -0.7894 -0.7446
18011TIP3    H275449   3.868   4.950   1.050  1.6352  0.2034 -0.1732
18012TIP3   OH275450   2.935   3.630   4.245 -0.3961 -0.0026  0.2319
18012TIP3    H175451   2.872   3.669   4.305 -0.9948 -0.1250 -0.3003
18012TIP3    H275452   2.980   3.704   4.205 -0.4474  0.0931  0.3533
18013TIP3   OH275453   0.737   5.159  14.320  0.0247  0.4450  0.2810
18013TIP3    H175454   0.808   5.098  14.340  0.3362  1.2146  1.5998
18013TIP3    H275455   0.782   5.240  14.295 -0.3884  0.2721 -1.1189
18014TIP3   OH275456   3.938   5.110   4.047 -0.0107 -0.1833 -0.0161
18014TIP3    H175457   3.974   5.044   3.988 -0.9467  0.3698 -1.2372
18014TIP3    H275458   3.874   5.158   3.995  0.5683  1.6605  0.8490
18015TIP3   OH275459   4.960   5.198   3.138 -0.1259 -0.3994  0.1578
18015TIP3    H175460   5.051   5.169   3.147 -0.3035 -0.9970  0.1214
18015TIP3    H275461   4.956   5.281   3.185  0.4958 -0.2414 -0.0564
18016TIP3   OH275462   4.704   1.047   6.173  0.2125  0.2829  0.0277
18016TIP3    H175463   4.664   0.963   6.151  1.1598 -0.0725 -0.3897
18016TIP3    H275464   4.630   1.107   6.182 -0.4028 -0.2558 -1.1383
18017TIP3   OH275465   5.409   1.214   3.889 -1.0847  0.3792  0.0906
18017TIP3    H175466   5.427   1.124   3.862 -0.4055  0.4354  0.3251
18017TIP3    H275467   5.371   1.205   3.977 -0.5363  0.3441  0.3266
18018TIP3   OH275468   1.394   4.840  10.794  0.0855 -0.3218  0.2365
18018TIP3    H175469   1.314   4.793  10.818 -0.0746 -0.6598 -0.8987
18018TIP3    H275470   1.431   4.788  10.722  0.8322  0.3478  0.1264
18019TIP3   OH275471   0.801   3.778   2.562  0.3918  0.4097  0.1835
18019TIP3    H175472   0.729   3.801   2.622  0.0149  2.8771 -1.0521
18019TIP3    H275473   0.878   3.817   2.601  1.0134 -1.6666  1.1635
18020TIP3   OH275474   6.426   2.169   2.313 -0.1571 -0.3786 -0.2962
18020TIP3    H175475   6.372   2.228   2.365  0.3164  0.4389 -0.7211
18020TIP3    H275476   6.421   2.202   2.224  0.1530 -0.9527 -0.5359
18021TIP3   OH275477   0.607   4.530  11.419 -0.0288  0.2454 -0.1021
18021TIP3    H175478   0.555   4.575  11.351 -1.7675  0.5862  1.3674
18021TIP3    H275479   0.559   4.546  11.500  1.3997 -1.0772  1.0690
18022TIP3   OH275480   6.171   2.314   4.279  0.5620 -0.7151  0.7126
18022TIP3    H175481   6.147   2.358   4.361  1.2039 -0.6106  0.8493
18022TIP3    H275482   6.185   2.222   4.303  1.5859 -0.5279  0.8995
18023TIP3   OH275483   4.287   0.190   0.719  0.3548 -0.0875  0.0527
18023TIP3    H175484   4.247   0.245   0.651 -0.3638 -0.9275 -0.2120
18023TIP3    H275485   4.372   0.165   0.683 -0.3045 -1.0898 -0.8466
18024TIP3   OH275486   0.875   0.394   2.055 -0.2926 -0.3967  0.3350
18024TIP3    H175487   0.807   0.411   1.990 -0.6195 -2.3277  0.1043
18024TIP3    H275488   0.916   0.312   2.026  3.3439  1.5115 -0.5178
18025TIP3   OH275489   2.586   5.449  14.694  0.2788  0.6779  0.3276
18025TIP3    H175490   2.674   5.411  14.694  0.0088  0.0350  0.8891
18025TIP3    H275491   2.585   5.509  14.768 -0.2737 -0.5854  1.3791
18026TIP3   OH275492   6.746   1.537   2.491 -0.0090  0.4548  1.1951
18026TIP3    H175493   6.662   1.570   2.460  1.2479  0.6538 -2.4174
18026TIP3    H275494   6.725   1.454   2.533 -2.0806  0.9616  1.2720
18027TIP3   OH275495   6.071   3.740   5.148  0.1713 -0.4943  0.1018
18027TIP3    H175496   6.113   3.699   5.224 -1.0235 -0.7056  0.6798
18027TIP3    H275497   6.066   3.833   5.172 -2.3846 -0.8703  1.4390
18028TIP3   OH275498   2.096   6.084   6.015 -0.9287 -0.4087  0.1123
18028TIP3    H175499   2.159   6.039   6.070 -0.2025 -0.4433 -0.7309
18028TIP3    H275500   2.147   6.115   5.940 -1.2833  2.2908  0.8992
18029TIP3   OH275501   0.724   6.099  16.528  0.6862  0.9972  0.6738
18029TIP3    H175502   0.762   6.017  16.563 -1.7069 -0.0504  1.0108
18029TIP3    H275503   0.757   6.167  16.587  2.3962  0.2424  0.6509
18030TIP3   OH275504   6.100   2.900   3.674 -0.2718 -0.1355  0.3916
18030TIP3    H175505   6.161   2.943   3.615 -0.0434 -0.1966  0.5831
18030TIP3    H275506   6.014   2.911   3.632 -0.0034 -0.9433 -0.3756
18031TIP3   OH275507   3.193   0.324  11.008 -0.3741 -0.2639  0.1101
18031TIP3    H175508   3.224   0.415  11.015  1.3558 -0.7883 -0.1920
18031TIP3    H275509   3.098   0.331  11.004 -0.3046  1.4968  0.7275
18032TIP3   OH275510   4.966   2.240  12.528 -0.1815  0.0379 -0.3843
18032TIP3    H175511   4.915   2.183  12.470  0.5390  0.4799 -1.5046
18032TIP3    H275512   4.960   2.200  12.614 -2.2122 -0.0571 -0.5219
18033TIP3   OH275513   4.283   2.481   2.623  0.4844 -0.3786  0.6381
18033TIP3    H175514   4.281   2.389   2.596 -1.0883  0.1203 -1.1445
18033TIP3    H275515   4.258   2.530   2.545 -0.0826  1.4932  1.9170
18034TIP3   OH275516   1.401   1.486   5.933  0.4683  0.9767  0.0069
18034TIP3    H175517   1.321   1.518   5.891  0.6348  1.1925 -0.1509
18034TIP3    H275518   1.372   1.447   6.015 -0.0241 -0.6954 -0.9154
18035TIP3   OH275519   1.032   5.645   2.030 -0.0571  0.1072  0.1170
18035TIP3    H175520   1.120   5.608   2.032  0.7875  1.9703 -0.3327
18035TIP3    H275521   1.007   5.644   1.938  0.6369  1.9817 -0.1466
18036TIP3   OH275522   3.118   0.270   3.981  0.1512 -0.1469  0.3896
18036TIP3    H175523   3.057   0.295   3.911  1.8828  0.4837 -0.9907
18036TIP3    H275524   3.071   0.203   4.031 -0.9896 -1.0293 -1.7156
18037TIP3   OH275525   4.684   1.375  13.123 -0.1757 -0.2412  0.0209
18037TIP3    H175526   4.694   1.349  13.032  0.0114  0.6436 -0.2142
18037TIP3    H275527   4.767   1.417  13.146 -0.0470 -0.8562  0.7414
18038TIP3   OH275528   1.274   1.199   1.874  0.0376 -0.0681  0.0081
18038TIP3    H175529   1.344   1.135   1.890  0.2370  0.4601  1.3955
18038TIP3    H275530   1.196   1.160   1.915  0.0597  0.3634  0.4678
18039TIP3   OH275531   3.002   0.806   3.122 -0.6710  0.3486 -0.1184
18039TIP3    H175532   3.007   0.874   3.190 -0.8684  0.2340  0.0115
18039TIP3    H275533   2.922   0.758   3.142 -0.4938  0.0310 -0.1700
18040TIP3   OH275534   0.436   6.603   3.963 -0.0189 -0.0769  0.2291
18040TIP3    H175535   0.464   6.597   4.055  0.8927 -2.2168 -0.1156
18040TIP3    H275536   0.380   6.526   3.950 -2.3154  1.5840 -0.3859
18041TIP3   OH275537   5.927   2.066   4.429 -0.4537  0.1784  0.3245
18041TIP3    H175538   5.929   2.062   4.333  0.3419  0.1781  0.3375
18041TIP3    H275539   5.851   2.014   4.454  1.1451 -2.5984 -0.1655
18042TIP3   OH275540   5.775   1.956  14.382 -0.3353 -0.2443 -0.3533
18042TIP3    H175541   5.742   2.039  14.348 -0.4692 -0.2161 -0.1581
18042TIP3    H275542   5.851   1.980  14.436 -0.2319 -0.2715 -0.4865
18043TIP3   OH275543   0.215   4.357   1.092  0.2567  0.1745  0.2146
18043TIP3    H175544   0.158   4.300   1.040 -0.0355 -1.6587  2.4143
18043TIP3    H275545   0.220   4.438   1.041 -1.8332 -0.6916 -1.5249
18044TIP3   OH275546   4.273   5.205   5.374  0.3279  0.2121  0.2345
18044TIP3    H175547   4.280   5.117   5.337  1.6201  0.5090 -0.3025
18044TIP3    H275548   4.228   5.256   5.307 -0.3535 -0.0107  0.5142
18045TIP3   OH275549   3.590   6.263  12.296  0.2728  0.0526 -0.3170
18045TIP3    H175550   3.610   6.307  12.378  2.0024  0.8518 -1.1116
18045TIP3    H275551   3.533   6.325  12.249  0.2442  0.1195 -0.1943
18046TIP3   OH275552   4.276   6.000  13.569 -0.1997 -0.3687  0.0054
18046TIP3    H175553   4.365   5.968  13.585  0.7070  1.6993 -0.5792
18046TIP3    H275554   4.220   5.924  13.586  1.6508 -1.6984  0.4986
18047TIP3   OH275555   5.200   6.496   1.246  0.7212  0.0930 -0.3821
18047TIP3    H175556   5.134   6.433   1.219  0.3214  0.7442 -0.9654
18047TIP3    H275557   5.212   6.479   1.339 -1.1019  0.6874  0.0075
18048TIP3   OH275558   4.813   3.133  13.747  0.8271  0.4902  0.2610
18048TIP3    H175559   4.856   3.171  13.670  1.1868 -0.0840  0.1746
18048TIP3    H275560   4.820   3.039  13.735 -3.0626  0.1901 -1.2653
18049TIP3   OH275561   1.133   1.788  14.239  0.0354  0.0706 -0.0806
18049TIP3    H175562   1.199   1.799  14.308 -1.9509  1.9282  1.7186
18049TIP3    H275563   1.074   1.720  14.272  0.5951 -1.0489 -1.3168
18050TIP3   OH275564   4.252   0.295  14.208  0.3377  0.3289  0.0190
18050TIP3    H175565   4.255   0.352  14.285  2.2318 -0.4974  0.6001
18050TIP3    H275566   4.297   0.345  14.139  0.9652  0.0041  0.1947
18051TIP3   OH275567   5.316   2.772   5.795 -0.1955 -0.2292  0.0177
18051TIP3    H175568   5.302   2.680   5.816  0.7094 -0.0557  1.5430
18051TIP3    H275569   5.410   2.784   5.804 -0.0056  0.3817 -2.2818
18052TIP3   OH275570   2.048   2.626  16.284  0.0052  0.4406 -0.5522
18052TIP3    H175571   2.140   2.629  16.259  1.0181 -0.4094  2.6520
18052TIP3    H275572   2.040   2.689  16.355 -1.9943  0.7102 -0.9497
18053TIP3   OH275573   4.464   6.225   4.961 -0.0865 -0.4254 -0.4115
18053TIP3    H175574   4.425   6.232   4.874  2.5890 -0.9204 -1.7475
18053TIP3    H275575   4.480   6.132   4.973  2.0615 -0.1501 -0.6631
18054TIP3   OH275576   2.766   3.251   2.282  0.7602  0.2550 -0.5875
18054TIP3    H175577   2.832   3.300   2.234  2.1316 -0.7875  0.1689
18054TIP3    H275578   2.736   3.183   2.221 -0.2781  1.2612 -1.2274
18055TIP3   OH275579   0.742   6.589  13.225 -0.1410  0.1086  0.5496
18055TIP3    H175580   0.728   6.549  13.311 -0.2313 -1.2340 -0.0610
18055TIP3    H275581   0.663   6.566  13.176  1.1493 -1.6824 -0.8003
18056TIP3   OH275582   3.770   1.897  10.859 -0.0799 -0.3039 -0.0703
18056TIP3    H175583   3.755   1.956  10.786 -3.2857  0.1562  0.8365
18056TIP3    H275584   3.737   1.812  10.829  0.7350 -0.6881  0.0763
18057TIP3   OH275585   2.196   4.994  17.048 -0.6006  0.0743 -0.4509
18057TIP3    H175586   2.122   5.004  16.987  0.0806  1.3199 -1.1066
18057TIP3    H275587   2.168   5.040  17.127 -0.5221  0.5879 -0.7166
18058TIP3   OH275588   2.644   6.776  15.381  0.1824 -0.4328  0.2148
18058TIP3    H175589   2.654   6.834  15.457 -1.4876  0.6171 -0.3189
18058TIP3    H275590   2.679   6.826  15.307  0.5622 -0.9257  0.0475
18059TIP3   OH275591   5.510   5.137  14.926 -0.4542 -0.5660  0.3044
18059TIP3    H175592   5.447   5.073  14.893 -1.3901 -0.4941  1.8271
18059TIP3    H275593   5.571   5.151  14.854 -2.2705 -0.5105 -1.3080
18060TIP3   OH275594   2.603   1.602   3.075 -0.2917 -0.5329  0.4403
18060TIP3    H175595   2.536   1.567   3.016 -2.9834  1.4748  2.0912
18060TIP3    H275596   2.644   1.673   3.025  1.3172 -2.2858 -0.8780
18061TIP3   OH275597   4.669   0.512  11.820  0.0246 -0.5681 -0.2941
18061TIP3    H175598   4.606   0.474  11.881  0.0272 -0.3752 -0.1691
18061TIP3    H275599   4.749   0.525  11.872 -0.7917  2.1800  0.4545
18062TIP3   OH275600   5.535   2.028   3.547 -0.0704  0.2146 -0.5137
18062TIP3    H175601   5.613   2.004   3.498 -0.6524 -1.9385 -0.4910
18062TIP3    H275602   5.462   2.003   3.491 -0.7566  0.5986  0.1767
18063TIP3   OH275603   5.671   3.484   1.768 -0.1401  0.6215  0.6566
18063TIP3    H175604   5.756   3.509   1.731 -0.3587  0.6479  0.1694
18063TIP3    H275605   5.672   3.519   1.857  0.3851  0.5687  0.6728
18064TIP3   OH275606   3.723   4.605   5.328 -0.5317 -0.2090  0.0001
18064TIP3    H175607   3.643   4.600   5.379 -0.1635 -1.1917  0.4908
18064TIP3    H275608   3.768   4.683   5.361  0.5904 -1.8090  2.5367
18065TIP3   OH275609   0.843   2.060   3.796 -0.7397 -0.6697  0.1863
18065TIP3    H175610   0.762   2.106   3.778 -1.2034 -1.7304 -0.4872
18065TIP3    H275611   0.837   2.034   3.888  0.2125  1.9147  1.0616
18066TIP3   OH275612   1.516   2.932   0.912  0.3051 -0.0112  0.5193
18066TIP3    H175613   1.521   2.851   0.862  2.0214  0.6907 -0.5551
18066TIP3    H275614   1.427   2.964   0.897 -0.2571 -1.4585  0.6156
18067TIP3   OH275615   1.277   2.117   0.609  0.1156 -0.4351  0.1593
18067TIP3    H175616   1.246   2.108   0.699  0.6597  1.4993  0.5825
18067TIP3    H275617   1.356   2.062   0.606  1.1193  0.8367  1.4401
18068TIP3   OH275618   5.645   0.709  11.930  0.4779 -0.3966  0.0755
18068TIP3    H175619   5.575   0.650  11.959 -0.2320  0.6224  0.5177
18068TIP3    H275620   5.672   0.755  12.009 -0.4134  1.3133 -0.5609
18069TIP3   OH275621   2.265   1.404   1.398 -0.0648  0.5739 -0.2628
18069TIP3    H175622   2.251   1.393   1.492  0.4853 -0.2603 -0.2577
18069TIP3    H275623   2.357   1.431   1.391 -0.0692  0.5120 -0.5643
18070TIP3   OH275624   1.997   1.124  14.656 -0.3014  0.1697  0.1673
18070TIP3    H175625   1.931   1.066  14.617 -1.2469  0.4301  1.3226
18070TIP3    H275626   1.984   1.116  14.750  1.1586  0.4504  0.4147
18071TIP3   OH275627   4.615   0.635  14.723 -0.6026  0.0508 -0.1299
18071TIP3    H175628   4.605   0.722  14.762 -0.1144  1.1116 -2.2097
18071TIP3    H275629   4.542   0.584  14.759  0.2795  0.6543  2.7146
18072TIP3   OH275630   2.719   6.328  16.568  0.1775 -0.6517 -0.5645
18072TIP3    H175631   2.624   6.318  16.564  0.2335 -1.7474  0.4784
18072TIP3    H275632   2.732   6.411  16.613 -0.2772 -0.2087 -1.2312
18073TIP3   OH275633   5.630   2.815  12.814 -0.5838  0.0935 -0.0028
18073TIP3    H175634   5.662   2.887  12.868  2.7738 -0.4402 -1.0734
18073TIP3    H275635   5.542   2.842  12.787 -0.1430  2.9243  1.0969
18074TIP3   OH275636   1.683   5.526  10.565  0.5370 -0.2201 -0.7452
18074TIP3    H175637   1.679   5.482  10.480  1.7307  1.1442 -1.5428
18074TIP3    H275638   1.777   5.531  10.585  0.2626 -1.9644  1.4807
18075TIP3   OH275639   2.376   2.105   2.174  0.4767 -0.8244 -0.0779
18075TIP3    H175640   2.370   2.011   2.158 -0.5733 -0.7845 -0.0165
18075TIP3    H275641   2.285   2.134   2.179  0.7880  0.1352  0.2641
18076TIP3   OH275642   2.542   4.237   1.270  0.4751  0.1743 -0.2974
18076TIP3    H175643   2.611   4.183   1.308  0.0903 -0.3227 -0.2954
18076TIP3    H275644   2.468   4.226   1.329  1.1167  2.6536  1.0878
18077TIP3   OH275645   2.468   2.629  11.786  0.6317  0.3945 -0.2111
18077TIP3    H175646   2.506   2.632  11.699  0.8083  2.6019 -0.1278
18077TIP3    H275647   2.542   2.614  11.845  0.3415 -2.5179 -0.4466
18078TIP3   OH275648   2.004   5.053   6.344 -0.0562  0.2149  0.0106
18078TIP3    H175649   1.932   5.116   6.355 -0.2417  0.3055 -1.5310
18078TIP3    H275650   2.083   5.107   6.338  0.0244  0.1755  0.6861
18079TIP3   OH275651   0.981   6.118   4.450  0.0801  0.1963 -0.2826
18079TIP3    H175652   0.973   6.030   4.486  1.5864 -0.3505 -1.1503
18079TIP3    H275653   1.070   6.145   4.474 -0.6712  1.8656  0.7389
18080TIP3   OH275654   3.817   0.083   2.833 -1.0759  0.1377  0.0367
18080TIP3    H175655   3.773   0.069   2.917  1.4636 -2.1569  1.1675
18080TIP3    H275656   3.905   0.113   2.857 -0.0456 -1.2881 -1.6948
18081TIP3   OH275657   0.330   3.911  13.702  0.7449 -0.1239  0.2324
18081TIP3    H175658   0.253   3.882  13.653 -0.1730  0.1199  1.4814
18081TIP3    H275659   0.383   3.959  13.638 -0.2941 -0.0071 -0.5609
18082TIP3   OH275660   2.556   3.815   2.074 -0.6321  0.6305 -0.2286
18082TIP3    H175661   2.469   3.832   2.112 -0.5961  0.7681 -0.2089
18082TIP3    H275662   2.544   3.829   1.980 -0.6605  0.5328 -0.2396
18083TIP3   OH275663   5.384   2.910  12.097 -0.0358 -0.8610 -0.0245
18083TIP3    H175664   5.359   2.928  12.006 -2.0558 -1.1757  0.4193
18083TIP3    H275665   5.303   2.882  12.139  0.3827  1.1842  2.3911
18084TIP3   OH275666   0.077   0.468   4.025  0.3355 -0.1017  0.0105
18084TIP3    H175667   0.095   0.551   4.068 -1.2635 -0.0110  0.5701
18084TIP3    H275668   0.035   0.491   3.942  2.5119 -0.3078 -1.2229
18085TIP3   OH275669   1.270   0.042   1.114 -0.0385 -0.7261 -0.0677
18085TIP3    H175670   1.188   0.027   1.161 -0.0934  3.2579  1.4436
18085TIP3    H275671   1.338   0.028   1.180  0.1257  0.8737  0.1411
18086TIP3   OH275672   1.148   0.764   0.990  0.3410  0.4561 -0.0974
18086TIP3    H175673   1.126   0.741   1.080  1.4014  1.7514  0.5130
18086TIP3    H275674   1.091   0.837   0.969  0.8777  0.8819 -0.0845
18087TIP3   OH275675   6.284   5.927  16.621 -0.5707  0.2292  0.1327
18087TIP3    H175676   6.253   5.836  16.619  2.1463 -0.7921 -0.7006
18087TIP3    H275677   6.367   5.922  16.668  1.4274  1.5610 -2.9153
18088TIP3   OH275678   4.027   2.351  13.358 -0.2750 -1.0473  0.2674
18088TIP3    H175679   4.105   2.406  13.369 -0.6555 -0.9344  3.1055
18088TIP3    H275680   4.050   2.291  13.287  2.5623 -1.2804  1.2807
18089TIP3   OH275681   3.365   4.664   4.760  0.3804 -0.4560  0.2539
18089TIP3    H175682   3.274   4.694   4.756  0.4452  0.4746  3.3538
18089TIP3    H275683   3.371   4.600   4.689 -1.6507  1.9166 -2.3692
18090TIP3   OH275684   5.907   2.759   6.234 -0.0672  0.1331  0.4446
18090TIP3    H175685   5.868   2.835   6.191  1.5709  1.1493  0.6726
18090TIP3    H275686   5.857   2.684   6.202 -0.4774  1.1101 -1.3002
18091TIP3   OH275687   0.009   3.298   4.429  0.1005 -0.5341  0.6964
18091TIP3    H175688  -0.003   3.316   4.523  0.5532  1.1582  0.4598
18091TIP3    H275689   0.098   3.328   4.410  0.0656 -0.9928 -0.2551
18092TIP3   OH275690   1.534   2.193  10.593 -0.3148 -0.2371 -0.1105
18092TIP3    H175691   1.560   2.148  10.513 -2.4095 -1.3105 -0.2430
18092TIP3    H275692   1.532   2.123  10.659  2.3125  0.7727  1.2075
18093TIP3   OH275693   1.648   4.511   2.602 -0.0239  0.2220  0.2093
18093TIP3    H175694   1.712   4.534   2.534 -0.5072  0.0560 -0.3135
18093TIP3    H275695   1.586   4.584   2.601 -0.1475  0.1171  0.3251
18094TIP3   OH275696   6.133   5.407  12.392  0.5449 -0.3284 -0.1568
18094TIP3    H175697   6.173   5.370  12.470 -0.5499 -0.1749  0.5082
18094TIP3    H275698   6.178   5.491  12.379  0.4792 -0.1777  0.5434
18095TIP3   OH275699   3.825   6.721  13.859 -0.2953 -0.0046 -0.2869
18095TIP3    H175700   3.766   6.653  13.828 -0.3421 -0.0420 -0.1204
18095TIP3    H275701   3.832   6.783  13.787  1.6412 -1.4010 -1.3960
18096TIP3   OH275702   5.960   4.326  14.507 -0.2091 -0.2314 -0.1726
18096TIP3    H175703   5.980   4.270  14.582 -1.9104  2.5573  2.5916
18096TIP3    H275704   5.886   4.283  14.464  0.0910 -1.3352  0.3868
18097TIP3   OH275705   2.908   3.873   1.094 -0.3785 -0.0909  0.4450
18097TIP3    H175706   3.002   3.856   1.100 -0.2066  0.2520 -1.0554
18097TIP3    H275707   2.885   3.850   1.005 -2.1708 -2.2727  1.3747
18098TIP3   OH275708   1.224   3.552   3.263  0.6177  0.7617  0.3007
18098TIP3    H175709   1.205   3.566   3.170 -0.8356  1.0263  0.6001
18098TIP3    H275710   1.186   3.628   3.306 -2.8614 -1.3831  1.4846
18099TIP3   OH275711   0.431   0.401  13.432 -0.4137 -0.0178 -0.0497
18099TIP3    H175712   0.463   0.430  13.518 -0.6828  0.0330  0.0355
18099TIP3    H275713   0.344   0.442  13.424 -1.6258 -2.2518  0.8661
18100TIP3   OH275714   5.613   4.800  15.767 -0.2643 -0.2257  0.5116
18100TIP3    H175715   5.616   4.880  15.714  0.1540 -0.1947  0.5727
18100TIP3    H275716   5.543   4.748  15.729  1.3488 -1.1253 -1.4403
18101TIP3   OH275717   3.209   0.797   2.539  0.3297  0.0749 -0.1960
18101TIP3    H175718   3.298   0.787   2.504  0.2554  1.5595 -0.8999
18101TIP3    H275719   3.215   0.873   2.598  0.0118 -1.2066  1.5560
18102TIP3   OH275720   0.139   6.064  15.439  0.0344  0.9002 -0.2983
18102TIP3    H175721   0.203   6.127  15.407  0.8626  0.6423  0.7929
18102TIP3    H275722   0.055   6.095  15.404  0.9154  0.1177 -3.5125
18103TIP3   OH275723   4.078   5.386  13.264  0.1164 -0.1298 -0.1844
18103TIP3    H175724   4.094   5.388  13.170 -0.1260 -0.7873 -0.2450
18103TIP3    H275725   4.065   5.294  13.284 -0.9350  0.1007  0.3040
18104TIP3   OH275726   4.349   2.243   2.464 -0.0082 -0.7218 -0.0920
18104TIP3    H175727   4.386   2.328   2.438 -1.3245  0.1951  0.8387
18104TIP3    H275728   4.300   2.214   2.387 -0.2343 -0.2161 -0.1464
18105TIP3   OH275729   2.326   1.114   5.319  0.3246 -0.4012  0.3112
18105TIP3    H175730   2.345   1.041   5.260  1.2575 -0.2216  0.3722
18105TIP3    H275731   2.250   1.086   5.369 -0.9009 -0.3114 -1.4101
18106TIP3   OH275732   5.722   2.422   2.090 -0.2042 -0.3700 -0.5864
18106TIP3    H175733   5.676   2.460   2.165 -2.0613 -1.5847 -1.0349
18106TIP3    H275734   5.719   2.328   2.105  0.9936 -0.5424 -1.3183
18107TIP3   OH275735   3.994   6.624   1.632 -0.1601  0.2576  0.4125
18107TIP3    H175736   4.076   6.578   1.621 -0.6119 -0.8679  1.5598
18107TIP3    H275737   4.004   6.673   1.714 -0.5220  0.3755  0.3916
18108TIP3   OH275738   3.426   2.374  14.081  0.4124  0.8447 -0.3153
18108TIP3    H175739   3.349   2.421  14.112  0.3829  1.6207 -1.4828
18108TIP3    H275740   3.389   2.302  14.028  0.4172  2.3652 -2.5410
18109TIP3   OH275741   3.547   4.966  12.973  0.2303  0.0881 -0.2344
18109TIP3    H175742   3.523   5.059  12.974  0.6691  0.2029  0.9115
18109TIP3    H275743   3.619   4.961  12.911 -0.7545  0.2497 -1.4267
18110TIP3   OH275744   5.348   3.461  12.812 -0.1927  0.0215  0.2019
18110TIP3    H175745   5.370   3.553  12.831 -0.7038  0.5042 -1.3285
18110TIP3    H275746   5.323   3.462  12.719 -0.1294 -1.6936  0.1403
18111TIP3   OH275747   6.619   0.205  12.777  0.1947 -0.1000 -0.2682
18111TIP3    H175748   6.579   0.286  12.747 -1.6979 -1.0624 -0.5185
18111TIP3    H275749   6.639   0.220  12.869  1.6088  1.2389 -0.7491
18112TIP3   OH275750   1.528   1.890  16.679 -0.2432  0.1141 -0.1225
18112TIP3    H175751   1.533   1.953  16.751 -2.4805 -1.4515  1.5314
18112TIP3    H275752   1.528   1.944  16.600 -1.4176  2.1582  1.1944
18113TIP3   OH275753   0.944   6.448  13.643 -0.3801  0.4484  0.3747
18113TIP3    H175754   1.000   6.451  13.565  0.0962  1.6040  0.7349
18113TIP3    H275755   0.992   6.392  13.705 -0.4055  0.1195  0.0947
18114TIP3   OH275756   4.998   6.525   3.241 -0.0799 -0.5340 -0.2310
18114TIP3    H175757   5.007   6.614   3.275  1.0950 -0.0518 -1.7235
18114TIP3    H275758   4.904   6.507   3.247 -0.0863 -0.1194  2.2216
18115TIP3   OH275759   6.637   1.041   5.449  0.3938 -0.0958  0.3422
18115TIP3    H175760   6.661   1.003   5.364 -0.7315  0.8053 -0.4091
18115TIP3    H275761   6.679   1.127   5.449 -1.2747  0.7734 -0.2415
18116TIP3   OH275762   2.840   2.461  16.623 -0.5291  0.1774  0.4467
18116TIP3    H175763   2.868   2.552  16.610  0.3117 -0.1204  0.1138
18116TIP3    H275764   2.913   2.419  16.669 -0.8919 -0.3427  0.5615
18117TIP3   OH275765   5.641   2.188  16.428 -0.1866  0.0539 -0.0777
18117TIP3    H175766   5.688   2.197  16.510  1.0054 -0.4988 -0.6815
18117TIP3    H275767   5.587   2.109  16.439  0.2489 -0.2291  0.0387
18118TIP3   OH275768   0.487   4.346   3.402 -0.1430 -0.0637  0.6162
18118TIP3    H175769   0.415   4.284   3.393  1.3019 -1.7930  0.4757
18118TIP3    H275770   0.445   4.427   3.431 -2.3079 -0.5506 -0.9253
18119TIP3   OH275771   5.538   0.863  14.170 -0.2700  0.0318 -0.2114
18119TIP3    H175772   5.592   0.792  14.134 -0.5212 -1.0153  1.3980
18119TIP3    H275773   5.456   0.820  14.195 -0.7505  1.0650  0.0171
18120TIP3   OH275774   4.550   5.140  11.069  0.4631 -0.0021 -0.0344
18120TIP3    H175775   4.459   5.158  11.093 -0.2051 -1.0982 -1.5296
18120TIP3    H275776   4.596   5.223  11.084 -0.4735  0.2090  1.9816
18121TIP3   OH275777   0.356   3.397  16.363  0.3960  0.0993 -0.5192
18121TIP3    H175778   0.359   3.493  16.368  2.8803  0.0488  0.5292
18121TIP3    H275779   0.402   3.368  16.442  1.5517 -1.9065 -1.8578
18122TIP3   OH275780   0.093   3.692  15.298 -0.3857 -0.0392 -0.4644
18122TIP3    H175781   0.111   3.781  15.329 -0.4840  0.3963 -1.5920
18122TIP3    H275782   0.176   3.646  15.307 -0.9092 -0.6265  2.5007
18123TIP3   OH275783   6.091   0.319   2.563 -0.7450  0.4639  0.1363
18123TIP3    H175784   6.158   0.254   2.539 -2.8067 -1.7128 -0.0270
18123TIP3    H275785   6.126   0.361   2.641  1.5619  0.6217 -0.8878
18124TIP3   OH275786   0.668   4.576   5.562 -0.4880 -0.4133  0.1796
18124TIP3    H175787   0.620   4.652   5.529 -0.7478 -0.3591  0.6774
18124TIP3    H275788   0.755   4.610   5.583 -0.4824 -0.3393  0.0399
18125TIP3   OH275789   5.538   2.878   4.089 -0.0211 -0.9048 -0.4291
18125TIP3    H175790   5.453   2.922   4.082  0.2878 -0.1706  0.2519
18125TIP3    H275791   5.517   2.785   4.083 -1.0373 -0.7991  0.9522
18126TIP3   OH275792   4.078   4.867   3.958 -0.0566  0.1178 -0.5186
18126TIP3    H175793   4.076   4.804   4.030  0.2647  0.3210 -0.3303
18126TIP3    H275794   4.170   4.870   3.931  0.0823  1.0771 -0.0116
18127TIP3   OH275795   4.727   1.303  16.178 -0.5334  0.1789  0.5115
18127TIP3    H175796   4.785   1.309  16.102  1.3117  0.4309  1.8632
18127TIP3    H275797   4.732   1.211  16.205  1.0946  0.6343  1.9462
18128TIP3   OH275798   1.828   4.180   1.318  0.3785 -0.1555  0.5083
18128TIP3    H175799   1.815   4.091   1.286  1.3890  0.0697 -0.6082
18128TIP3    H275800   1.752   4.228   1.286  0.3961 -0.3748  0.1237
18129TIP3   OH275801   3.594   2.960  16.372  0.0009 -0.2234  0.4920
18129TIP3    H175802   3.582   2.950  16.466 -1.1263  1.3007  0.5680
18129TIP3    H275803   3.506   2.981  16.339  0.7438  1.6547 -0.5040
18130TIP3   OH275804   6.724   1.307   5.450 -0.0151 -1.0293  0.0423
18130TIP3    H175805   6.762   1.332   5.534  1.2413 -1.8926 -0.2444
18130TIP3    H275806   6.692   1.388   5.412  0.6226 -0.4362  0.7550
18131TIP3   OH275807   1.884   0.931  14.504 -0.1202 -0.6050 -0.1697
18131TIP3    H175808   1.807   0.874  14.503 -0.3600 -0.2779 -0.5041
18131TIP3    H275809   1.865   0.998  14.439  0.5387 -0.6395 -0.4031
18132TIP3   OH275810   3.520   1.320   0.481 -1.2137  0.6314  0.1966
18132TIP3    H175811   3.437   1.340   0.526 -2.0201  1.7078 -1.6514
18132TIP3    H275812   3.573   1.398   0.495 -0.7930  0.2524  0.7341
18133TIP3   OH275813   6.424   0.511  11.711 -0.5842 -0.0509  0.0750
18133TIP3    H175814   6.483   0.546  11.644 -1.5291 -0.0472 -0.7905
18133TIP3    H275815   6.470   0.523  11.793  0.9580 -0.7879 -0.6497
18134TIP3   OH275816   6.597   5.367  11.059 -0.4226 -0.5571 -0.4608
18134TIP3    H175817   6.610   5.333  10.971  1.5180 -0.6801 -0.1518
18134TIP3    H275818   6.683   5.362  11.101 -1.3303 -0.6922  1.5188
18135TIP3   OH275819   5.998   0.651   0.659 -0.5361 -0.4109  0.4372
18135TIP3    H175820   5.962   0.632   0.746 -0.2806 -0.6200  0.5012
18135TIP3    H275821   5.989   0.746   0.649 -1.3983 -0.4992  0.3148
18136TIP3   OH275822   1.041   6.141   3.374 -0.2786 -0.1426  0.6866
18136TIP3    H175823   0.994   6.189   3.442 -0.4470 -0.2865  0.6721
18136TIP3    H275824   1.133   6.164   3.387 -0.5362  1.9291 -0.6711
18137TIP3   OH275825   5.240   0.797  16.363  0.1293  0.1325  1.1037
18137TIP3    H175826   5.169   0.818  16.302  1.6188 -0.7039 -1.0648
18137TIP3    H275827   5.281   0.881  16.384  1.5609  0.2729 -1.7201
18138TIP3   OH275828   4.086   5.506   2.576 -0.0319  0.2054 -0.0430
18138TIP3    H175829   4.137   5.459   2.509 -1.4197 -1.4221 -0.0263
18138TIP3    H275830   4.021   5.555   2.527 -0.5424 -0.3582  0.0570
18139TIP3   OH275831   4.299   4.132  15.381  0.6190  0.5780 -0.0792
18139TIP3    H175832   4.356   4.158  15.308  0.9535 -0.4026 -0.1930
18139TIP3    H275833   4.212   4.163  15.357  0.9102  1.1489 -0.4150
18140TIP3   OH275834   3.182   5.196   5.702 -0.3942 -0.0571 -0.1424
18140TIP3    H175835   3.106   5.153   5.663 -1.3522  1.4383 -0.0256
18140TIP3    H275836   3.203   5.143   5.779 -1.3696 -0.4660 -0.1463
18141TIP3   OH275837   6.509   1.631   2.376  0.0704  0.7642  0.3145
18141TIP3    H175838   6.462   1.666   2.301 -0.5878  0.1266  0.4163
18141TIP3    H275839   6.446   1.635   2.448  0.6131  1.1419  0.7842
18142TIP3   OH275840   0.149   3.922  10.734 -0.9819 -0.5066  0.1455
18142TIP3    H175841   0.167   4.011  10.766 -1.5385  0.3425 -1.7660
18142TIP3    H275842   0.065   3.898  10.774 -0.8780 -0.1338  0.5924
18143TIP3   OH275843   4.167   1.024   0.855  0.4059  0.0824 -0.0758
18143TIP3    H175844   4.087   1.044   0.903  0.9753 -0.1239  0.9856
18143TIP3    H275845   4.221   1.102   0.865  0.6246 -0.0555 -0.1647
18144TIP3   OH275846   3.887   6.173  14.129  0.1698  0.0888 -0.1045
18144TIP3    H175847   3.879   6.216  14.044 -1.1521  0.4781  0.1995
18144TIP3    H275848   3.976   6.139  14.129  0.2613  0.2298 -1.5752
18145TIP3   OH275849   5.450   6.024  15.656  0.5209 -0.4761 -0.5442
18145TIP3    H175850   5.507   6.021  15.733 -2.1538  0.6228  1.6273
18145TIP3    H275851   5.454   5.935  15.620  3.2393 -0.5237 -0.2974
18146TIP3   OH275852   0.329   2.191  15.852  0.0621 -0.1649  0.4240
18146TIP3    H175853   0.378   2.115  15.822  0.3760  0.5848 -1.0833
18146TIP3    H275854   0.380   2.266  15.822 -2.2994  0.6725 -1.9425
18147TIP3   OH275855   1.479   0.474  11.059  0.2222  0.2958 -0.4089
18147TIP3    H175856   1.456   0.387  11.091 -1.3059  0.5961 -0.5917
18147TIP3    H275857   1.540   0.509  11.123  1.6188 -1.2621 -0.8349
18148TIP3   OH275858   5.814   4.081  14.965  0.0900  0.4625 -0.5871
18148TIP3    H175859   5.719   4.089  14.970  0.1979  1.2416  0.8301
18148TIP3    H275860   5.829   4.002  14.913 -1.4216 -1.8849  2.2807
18149TIP3   OH275861   5.425   3.379  15.768 -0.5206 -0.3087 -0.1998
18149TIP3    H175862   5.443   3.308  15.830  1.9470  0.5758  0.2118
18149TIP3    H275863   5.420   3.335  15.683 -0.5334 -1.1512  0.2263
18150TIP3   OH275864   2.667   4.690   5.941 -0.0144 -0.0805  0.4589
18150TIP3    H175865   2.721   4.761   5.905  1.0777 -0.8956  0.4305
18150TIP3    H275866   2.661   4.709   6.035 -0.1391  0.3071  0.3732
18151TIP3   OH275867   4.008   1.617  10.950 -0.1401 -0.0183  0.1384
18151TIP3    H175868   3.979   1.695  10.996 -2.6583 -0.7048 -0.1420
18151TIP3    H275869   3.932   1.559  10.951  1.6427 -2.5104  0.3997
18152TIP3   OH275870   4.492   4.759  15.256 -0.3427  0.0895 -0.0206
18152TIP3    H175871   4.537   4.699  15.316 -0.4661  0.1240  0.1068
18152TIP3    H275872   4.399   4.749  15.278 -0.2272  2.0141  1.5980
18153TIP3   OH275873   1.748   4.521  16.081 -0.1913 -0.4248 -0.4837
18153TIP3    H175874   1.743   4.436  16.037 -0.9668 -2.0262  2.4281
18153TIP3    H275875   1.661   4.533  16.120 -0.2598  2.0013 -1.2191
18154TIP3   OH275876   3.033   1.860  16.677 -0.2315 -0.3462 -0.5269
18154TIP3    H175877   3.016   1.922  16.747  1.4497  0.6168 -0.9254
18154TIP3    H275878   2.953   1.861  16.624 -0.0203  2.0144 -0.9108
18155TIP3   OH275879   0.631   5.731  15.346  0.3157 -0.1098  0.1023
18155TIP3    H175880   0.667   5.786  15.417 -0.5436  0.3862  0.1664
18155TIP3    H275881   0.681   5.758  15.269  1.2858 -0.6771  0.5086
18156TIP3   OH275882   1.507   2.097  14.023  0.4542  0.0318 -0.4063
18156TIP3    H175883   1.537   2.183  14.053  1.6092 -1.0511  1.7885
18156TIP3    H275884   1.551   2.035  14.080 -1.0020 -2.0121 -1.3670
18157TIP3   OH275885   4.854   5.588  13.057 -0.4195  0.3556 -0.0653
18157TIP3    H175886   4.816   5.503  13.079 -2.4445  1.7513  2.4444
18157TIP3    H275887   4.793   5.626  12.994  0.4808 -0.0115 -1.1830
18158TIP3   OH275888   3.000   4.471  12.858  0.1892  0.0463 -0.1354
18158TIP3    H175889   3.059   4.407  12.897  0.5579  1.1748  1.1881
18158TIP3    H275890   3.053   4.517  12.794  0.0782 -0.5474 -0.6701
18159TIP3   OH275891   3.771   0.809  12.541  0.0712 -0.1005 -0.5956
18159TIP3    H175892   3.760   0.888  12.595  0.4202  0.8082 -1.8131
18159TIP3    H275893   3.802   0.742  12.602 -1.3003  0.3842  0.6877
18160TIP3   OH275894   3.565   0.220  10.390  0.3081 -0.0417 -0.1515
18160TIP3    H175895   3.610   0.301  10.365 -0.1847  0.0094 -0.9020
18160TIP3    H275896   3.526   0.188  10.309  1.0204 -1.3709  0.0031
18161TIP3   OH275897   1.226   1.107   5.394 -0.0529 -0.1967 -0.0645
18161TIP3    H175898   1.250   1.179   5.335 -0.5212 -0.1226 -0.1656
18161TIP3    H275899   1.274   1.032   5.360  1.0323  0.2270  0.4868
18162TIP3   OH275900   5.608   1.022   3.702 -0.1975  0.9221  0.3040
18162TIP3    H175901   5.675   1.056   3.762 -0.7151  0.5634  1.1079
18162TIP3    H275902   5.575   1.098   3.655  1.2667  1.0176 -0.6239
18163TIP3   OH275903   5.366   4.668  15.763  0.1925 -0.3090  0.3447
18163TIP3    H175904   5.373   4.578  15.732 -2.7710 -0.5780  0.1682
18163TIP3    H275905   5.291   4.703  15.716  1.1028  2.2048  0.6253
18164TIP3   OH275906   2.454   6.110  14.809 -0.1504  0.0220 -0.0424
18164TIP3    H175907   2.473   6.199  14.836 -1.3598  0.3257 -0.1768
18164TIP3    H275908   2.508   6.055  14.867 -0.3146  0.7777  0.8367
18165TIP3   OH275909   2.225   4.296   4.329  0.7195 -0.2706  0.7675
18165TIP3    H175910   2.146   4.279   4.380 -0.7420  2.5284 -0.3051
18165TIP3    H275911   2.196   4.290   4.238  1.8024  0.4387  0.3493
18166TIP3   OH275912   5.308   3.240   1.424 -0.0560 -0.1828  0.2055
18166TIP3    H175913   5.385   3.202   1.466 -0.7860 -1.7906  0.1741
18166TIP3    H275914   5.256   3.274   1.497  0.8270  1.2861  0.1985
18167TIP3   OH275915   1.007   2.203  14.462  0.0110 -0.7620 -0.2195
18167TIP3    H175916   0.995   2.123  14.514  0.6333 -0.6379  0.1349
18167TIP3    H275917   1.077   2.180  14.400  2.2970  0.3329  1.7649
18168TIP3   OH275918   5.451   6.259  12.298  0.7500 -0.2965 -0.0955
18168TIP3    H175919   5.522   6.197  12.284 -0.8206 -1.8640 -1.5888
18168TIP3    H275920   5.425   6.287  12.210 -2.3913 -2.1037  0.0831
18169TIP3   OH275921   6.588   4.231  14.059 -0.3121 -0.2730 -0.9355
18169TIP3    H175922   6.549   4.173  14.125  0.8407 -3.0702 -2.5302
18169TIP3    H275923   6.519   4.241  13.993  0.0142 -1.3384 -1.4757
18170TIP3   OH275924   5.457   2.153   0.765 -0.0328  0.1130 -1.0750
18170TIP3    H175925   5.461   2.155   0.860  1.5302 -0.5562 -1.1054
18170TIP3    H275926   5.392   2.086   0.745 -3.0561  2.6062 -0.5402
18171TIP3   OH275927   0.316   5.224   4.345 -0.0702 -0.2697 -0.0292
18171TIP3    H175928   0.365   5.289   4.395 -0.0295  0.5311 -1.0881
18171TIP3    H275929   0.383   5.167   4.306 -0.0173  0.1513 -0.5659
18172TIP3   OH275930   3.198   6.180   1.429 -0.2045  0.4340  0.0147
18172TIP3    H175931   3.204   6.250   1.364 -0.0103  0.5119  0.1150
18172TIP3    H275932   3.220   6.101   1.381 -1.3574  0.2965 -0.3307
18173TIP3   OH275933   2.737   3.730  14.620 -0.4400 -0.1401 -0.3738
18173TIP3    H175934   2.800   3.668  14.582  0.2437  1.1366 -1.4196
18173TIP3    H275935   2.770   3.816  14.594 -0.7060  0.7623  2.0270
18174TIP3   OH275936   2.984   5.515   0.358 -0.2771  0.4569 -0.4572
18174TIP3    H175937   2.935   5.515   0.440  1.5625 -0.1837  0.7012
18174TIP3    H275938   3.027   5.430   0.356 -0.1510  0.5334 -2.0120
18175TIP3   OH275939   2.699   2.651  12.712 -0.1967 -0.0748  0.4976
18175TIP3    H175940   2.617   2.640  12.664  0.2410 -1.4919  0.0108
18175TIP3    H275941   2.673   2.684  12.798 -1.4903 -2.2045  1.0058
18176TIP3   OH275942   3.943   2.576  13.874  0.3910  0.1907 -0.5976
18176TIP3    H175943   3.917   2.619  13.955  0.6017  0.4130 -0.6489
18176TIP3    H275944   4.015   2.518  13.899 -0.9901 -1.4523 -0.1839
18177TIP3   OH275945   3.945   0.850  17.192  0.4710 -0.2471  0.0237
18177TIP3    H175946   3.974   0.761  17.170  0.3994 -0.5998  1.2819
18177TIP3    H275947   4.010   0.881  17.255 -0.2758  0.0539  0.6569
18178TIP3   OH275948   5.261   3.464  14.752 -0.0495  0.0359  0.4309
18178TIP3    H175949   5.294   3.406  14.683  1.5253 -1.2191  2.1361
18178TIP3    H275950   5.175   3.492  14.721 -0.7018 -2.8942 -0.6982
18179TIP3   OH275951   1.027   2.540  15.217  0.2193  0.0848 -0.4082
18179TIP3    H175952   1.080   2.528  15.139  3.5612 -0.5175  1.7466
18179TIP3    H275953   0.968   2.465  15.218  1.7137 -1.1545 -1.2051
18180TIP3   OH275954   2.946   3.502  12.371  0.2389  0.0706 -0.2611
18180TIP3    H175955   2.856   3.533  12.363  0.3466  0.7863  1.0235
18180TIP3    H275956   2.941   3.428  12.432  0.8598  2.0702  2.3907
18181TIP3   OH275957   2.365   4.505  13.996  0.9098 -0.2600 -0.1805
18181TIP3    H175958   2.298   4.511  14.064  0.5678 -0.7729 -0.4627
18181TIP3    H275959   2.428   4.573  14.018  0.5975 -0.1591  0.4252
18182TIP3   OH275960   0.686   5.564   4.494 -0.3278  0.6012 -0.3278
18182TIP3    H175961   0.655   5.619   4.422  0.9673 -0.1719 -1.5387
18182TIP3    H275962   0.781   5.576   4.494  0.1406 -2.3376 -1.3367
18183TIP3   OH275963   2.324   3.398   1.239 -0.0563  0.5908 -0.3862
18183TIP3    H175964   2.309   3.358   1.324 -0.8395  0.2877 -0.6534
18183TIP3    H275965   2.419   3.400   1.229  0.0342  0.5161  0.4373
18184TIP3   OH275966   5.311   1.130  14.741 -0.4328 -0.4297 -0.2901
18184TIP3    H175967   5.281   1.039  14.749  0.3731 -0.5844  1.2352
18184TIP3    H275968   5.231   1.179  14.723 -1.0698 -1.2904  0.0765
18185TIP3   OH275969   5.942   6.292  13.972 -0.8457  0.1460  0.3514
18185TIP3    H175970   5.974   6.333  14.052  1.8227  1.9590 -1.4686
18185TIP3    H275971   5.887   6.358  13.931 -0.5736  0.0139 -0.2459
18186TIP3   OH275972   2.890   2.199   4.851 -0.0952  0.6333  0.5189
18186TIP3    H175973   2.826   2.130   4.867 -0.7729  1.0176 -0.4189
18186TIP3    H275974   2.837   2.279   4.842  0.6022  1.1250  0.7329
18187TIP3   OH275975   2.997   5.310  12.268  0.1484  0.2372 -0.4343
18187TIP3    H175976   2.905   5.310  12.241  0.0427  2.3512 -0.2756
18187TIP3    H275977   3.023   5.402  12.260  2.1775 -0.2880 -0.2176
18188TIP3   OH275978   6.667   2.424  16.197 -0.4782 -0.2763  0.0462
18188TIP3    H175979   6.730   2.483  16.239  0.8693 -0.6295 -1.3493
18188TIP3    H275980   6.661   2.348  16.255  1.0815 -0.6108 -0.1865
18189TIP3   OH275981   6.754   0.075  15.437 -0.4218  0.1267  0.0070
18189TIP3    H175982   6.814   0.118  15.497 -1.2154  2.2884 -0.6809
18189TIP3    H275983   6.682   0.044  15.493  0.2330 -0.4686  0.5292
18190TIP3   OH275984   2.346   4.964  15.610 -0.4212  0.4522  1.0218
18190TIP3    H175985   2.375   5.044  15.564  2.8985 -1.2686 -0.2065
18190TIP3    H275986   2.285   4.923  15.548  1.6732 -0.3209 -0.6520
18191TIP3   OH275987   0.020   6.760  16.355  0.3918 -0.0985 -0.6426
18191TIP3    H175988  -0.050   6.708  16.395 -0.2731  1.7798  0.7381
18191TIP3    H275989   0.082   6.776  16.426  0.2977  1.4376 -0.8797
18192TIP3   OH275990   6.289   0.438  13.976  0.1342  0.1521  0.0198
18192TIP3    H175991   6.277   0.436  14.071 -2.2529 -0.5693 -0.2349
18192TIP3    H275992   6.217   0.494  13.945  1.3709  1.0450 -1.3232
18193TIP3   OH275993   2.616   3.273   3.124  0.3414  0.0828 -0.0647
18193TIP3    H175994   2.681   3.329   3.167  0.1425 -0.5935  1.1722
18193TIP3    H275995   2.549   3.258   3.192  0.5508 -1.9127 -0.2400
18194TIP3   OH275996   6.306   1.482   1.271 -0.2309 -0.6655  0.3634
18194TIP3    H175997   6.340   1.571   1.261  1.3491 -1.2786 -0.0082
18194TIP3    H275998   6.316   1.463   1.365  0.5418 -0.8504  0.2546
18195TIP3   OH275999   5.471   2.171   5.587  0.4869  0.1912  0.4013
18195TIP3    H176000   5.470   2.258   5.625 -0.2917  0.0402  0.7412
18195TIP3    H276001   5.453   2.112   5.661  2.2810 -0.3793  0.4492
18196TIP3   OH276002   6.054   5.321  17.115  0.2244 -0.5315  0.2340
18196TIP3    H176003   6.043   5.400  17.062  2.6277 -1.2753 -1.5342
18196TIP3    H276004   5.980   5.322  17.176 -0.4759  2.4178 -0.5374
18197TIP3   OH276005   0.811   6.156  17.186  0.0109  0.7049 -0.2924
18197TIP3    H176006   0.848   6.198  17.264  0.7396 -2.1845  1.0711
18197TIP3    H276007   0.717   6.151  17.204  0.2387 -0.4646  0.7549
18198TIP3   OH276008   6.496   0.688   3.868  0.2893 -0.3603 -0.0250
18198TIP3    H176009   6.474   0.741   3.944  1.9570  1.5520 -0.7674
18198TIP3    H276010   6.413   0.672   3.824 -0.5620 -0.6212  1.6031
18199TIP3   OH276011   3.973   0.898  14.972  0.1250 -0.5779 -0.4627
18199TIP3    H176012   3.908   0.859  15.030  0.5321 -1.1580 -0.3957
18199TIP3    H276013   3.954   0.992  14.976 -0.3809 -0.6916 -0.0437
18200TIP3   OH276014   2.775   4.033   1.323 -0.4145 -0.0461  0.0693
18200TIP3    H176015   2.845   3.993   1.271 -1.3800 -1.1759 -0.4141
18200TIP3    H276016   2.820   4.076   1.396  0.7063 -1.6969  0.3874
18201TIP3   OH276017   6.152   3.546   1.138 -0.3613  0.3196 -0.0236
18201TIP3    H176018   6.187   3.608   1.074 -1.3250 -0.5995 -1.5069
18201TIP3    H276019   6.093   3.598   1.193  0.1559  1.0459 -0.1466
18202TIP3   OH276020   6.468   5.568  14.799 -0.4043  0.0225 -0.3892
18202TIP3    H176021   6.421   5.500  14.847  1.3532 -2.1869 -1.6076
18202TIP3    H276022   6.511   5.620  14.867 -0.0339 -1.4524  0.5568
18203TIP3   OH276023   4.536   4.955  14.904  0.0836 -0.1250  0.3690
18203TIP3    H176024   4.523   4.983  14.814 -0.7245 -0.3180  0.4182
18203TIP3    H276025   4.574   5.031  14.948 -0.4839  0.3172  0.1051
18204TIP3   OH276026   3.597   4.208   4.489 -0.2949  0.4637  0.4820
18204TIP3    H176027   3.619   4.119   4.463 -1.0516 -0.1719  1.9028
18204TIP3    H276028   3.642   4.220   4.573  1.2882  2.0966 -0.5285
18205TIP3   OH276029   4.750   1.291   2.551 -0.3304  0.3063 -0.3601
18205TIP3    H176030   4.691   1.358   2.516 -0.2524 -0.3487 -1.8036
18205TIP3    H276031   4.721   1.210   2.509  0.6868 -0.2626  0.0202
18206TIP3   OH276032   3.295   0.949  17.060 -0.5677  0.2291  0.3485
18206TIP3    H176033   3.340   1.032  17.043  2.5322 -1.3703  0.0378
18206TIP3    H276034   3.291   0.942  17.155  0.1948  0.2309  0.3823
18207TIP3   OH276035   5.563   3.785   0.179 -0.3385  0.1517  0.0763
18207TIP3    H176036   5.484   3.733   0.167  1.1499 -2.0116 -1.0790
18207TIP3    H276037   5.634   3.721   0.179  1.4596  2.0274  0.7841
18208TIP3   OH276038   5.733   2.709  16.849  0.3127 -0.6110 -0.1396
18208TIP3    H176039   5.698   2.709  16.761 -1.4177  2.1449  0.4216
18208TIP3    H276040   5.719   2.799  16.881  3.9170 -0.5298  1.7743
18209TIP3   OH276041   2.423   3.867  16.347 -0.4076  0.2018 -0.2949
18209TIP3    H176042   2.473   3.935  16.301  0.3022 -0.3510 -0.3556
18209TIP3    H276043   2.376   3.821  16.277 -0.3619  0.1968 -0.3217
18210TIP3   OH276044   0.555   3.438  11.813  0.0760  0.3904 -0.4017
18210TIP3    H176045   0.577   3.418  11.722  0.9083  0.3710 -0.2064
18210TIP3    H276046   0.558   3.353  11.858 -1.8239  0.1551 -0.6252
18211TIP3   OH276047   6.027   5.909   4.718  0.1554 -0.2371  0.2635
18211TIP3    H176048   6.054   5.849   4.649  0.9871 -0.0744  0.4451
18211TIP3    H276049   5.983   5.854   4.782  0.1710 -0.5228  0.0291
18212TIP3   OH276050   1.731   1.053  10.396 -0.3325  0.4119  0.3753
18212TIP3    H176051   1.643   1.016  10.400 -0.1884  0.1798  2.5344
18212TIP3    H276052   1.790   0.978  10.408  0.1414  0.6849 -0.1787
18213TIP3   OH276053   3.029   1.201  14.629  0.1626  0.7521 -0.2456
18213TIP3    H176054   3.040   1.117  14.675  2.6143  0.2846 -1.5606
18213TIP3    H276055   2.935   1.220  14.638  0.1474 -0.2567  3.2248
18214TIP3   OH276056   6.773   4.410  14.123  0.5500 -0.3432  0.2772
18214TIP3    H176057   6.701   4.355  14.092  0.6919 -2.9081  3.9790
18214TIP3    H276058   6.847   4.388  14.066 -0.3337 -1.2754 -0.5476
18215TIP3   OH276059   1.017   2.566  12.927 -0.0867  0.5212  0.1100
18215TIP3    H176060   1.080   2.495  12.914  0.7993  1.0940  1.1443
18215TIP3    H276061   1.041   2.605  13.011 -0.5136  2.0891 -0.4498
18216TIP3   OH276062   3.765   1.736   3.391  0.1490  0.6296  0.2918
18216TIP3    H176063   3.763   1.811   3.331 -1.7556  0.8005  0.5072
18216TIP3    H276064   3.726   1.769   3.472 -0.4480 -0.5021  0.4871
18217TIP3   OH276065   6.431   1.614  16.372 -0.3437  0.1591  0.6121
18217TIP3    H176066   6.435   1.519  16.385  0.0064  0.1344  0.3352
18217TIP3    H276067   6.418   1.650  16.459  2.2088  0.0189  1.1342
18218TIP3   OH276068   2.506   5.880   0.366  0.3471  0.3200  0.1228
18218TIP3    H176069   2.414   5.857   0.348  0.0697  1.9619 -0.7811
18218TIP3    H276070   2.504   5.914   0.455  0.4047 -1.2261  0.7321
18219TIP3   OH276071   5.501   2.411  10.645  0.7013 -0.5350 -0.1700
18219TIP3    H176072   5.517   2.330  10.694  2.4193 -0.9813 -1.3741
18219TIP3    H276073   5.417   2.398  10.603  0.9379 -1.6981 -0.3135
18220TIP3   OH276074   6.433   4.867  12.540  0.1862  0.0685 -0.0874
18220TIP3    H176075   6.451   4.956  12.572  0.9003 -0.2260  0.3511
18220TIP3    H276076   6.416   4.878  12.447  0.1527  0.6856 -0.0119
18221TIP3   OH276077   4.339   4.454   4.440  0.0646  0.1522  0.0428
18221TIP3    H176078   4.304   4.395   4.507  0.3961  0.2401  0.2944
18221TIP3    H276079   4.334   4.404   4.359 -0.2558  0.0127  0.1504
18222TIP3   OH276080   5.707   6.009  15.813 -0.2848  0.5509  0.6483
18222TIP3    H176081   5.684   5.996  15.905 -1.3855  1.9655  0.6070
18222TIP3    H276082   5.793   6.051  15.816  0.9561 -1.8552  0.9058
18223TIP3   OH276083   2.288   4.996  15.869  0.2352 -0.1097 -0.2903
18223TIP3    H176084   2.333   4.973  15.788  1.3496 -0.4627  0.4081
18223TIP3    H276085   2.357   5.003  15.934 -0.5958  0.5534  0.5600
18224TIP3   OH276086   5.730   2.695   1.515  0.2157 -0.4470 -0.2033
18224TIP3    H176087   5.776   2.678   1.433 -1.4244  1.7360 -1.6797
18224TIP3    H276088   5.674   2.619   1.527  0.2611 -0.6641 -1.2744
18225TIP3   OH276089   3.124   5.902   4.097  0.4612  0.2200  0.0342
18225TIP3    H176090   3.168   5.824   4.063 -0.7866 -0.3562 -0.3127
18225TIP3    H276091   3.140   5.969   4.031  0.7603  0.0071 -0.1121
18226TIP3   OH276092   2.639   5.614  17.027  0.4380  0.2277 -0.4059
18226TIP3    H176093   2.704   5.546  17.008  0.8615  0.9079 -1.5374
18226TIP3    H276094   2.669   5.690  16.976 -0.0217  1.2669  0.8160
18227TIP3   OH276095   2.655   6.694   4.038 -0.4966 -0.6286  0.4641
18227TIP3    H176096   2.729   6.688   3.977 -0.3507  1.3562  0.3716
18227TIP3    H276097   2.599   6.620   4.016  1.3266 -2.0819  0.3857
18228TIP3   OH276098   4.546   0.408  16.440 -0.0479  0.2724 -0.3155
18228TIP3    H176099   4.617   0.349  16.413  0.7018  1.3050 -0.6787
18228TIP3    H276100   4.587   0.467  16.504 -0.3457  1.4196 -1.1488
18229TIP3   OH276101   4.384   4.846   1.828  0.8681  0.4115  0.2836
18229TIP3    H176102   4.466   4.815   1.868  2.0214  0.7648 -1.6454
18229TIP3    H276103   4.399   4.939   1.812 -0.1176  0.5854  0.3189
18230TIP3   OH276104   2.604   6.604   2.558  0.0725  0.1106 -0.1495
18230TIP3    H176105   2.671   6.544   2.526  0.1506  0.0229  0.1803
18230TIP3    H276106   2.558   6.633   2.479 -0.3657 -0.8537 -0.2614
18231TIP3   OH276107   0.846   4.629  12.449 -0.1299  0.1215 -0.1406
18231TIP3    H176108   0.845   4.620  12.354  2.7550  0.3292 -0.2802
18231TIP3    H276109   0.939   4.625  12.473 -0.6691  1.2658  2.5535
18232TIP3   OH276110   6.694   3.811  12.042  0.0501  0.5752 -0.2171
18232TIP3    H176111   6.684   3.729  11.995  3.3171 -0.8806  1.3220
18232TIP3    H276112   6.633   3.805  12.116 -0.3196 -0.0705 -0.5681
18233TIP3   OH276113   6.284   4.851  13.496 -0.6459 -0.3587 -0.3929
18233TIP3    H176114   6.329   4.849  13.580 -0.5190 -0.8595 -0.4728
18233TIP3    H276115   6.255   4.942  13.487 -0.1792 -0.1745 -0.0646
18234TIP3   OH276116   5.160   0.259  15.170  0.0044  0.5100  0.5090
18234TIP3    H176117   5.077   0.306  15.176 -0.6347  0.2685 -3.6168
18234TIP3    H276118   5.137   0.167  15.185 -0.2363  0.5892  0.6264
18235TIP3   OH276119   3.347   1.885   0.499  0.2455 -0.0612  0.5073
18235TIP3    H176120   3.436   1.866   0.530 -0.1110  0.5665  1.9980
18235TIP3    H276121   3.360   1.940   0.421  1.1651 -0.9626 -0.0021
18236TIP3   OH276122   5.350   4.047  17.221 -0.0381 -0.5385 -0.3565
18236TIP3    H176123   5.362   3.994  17.142 -0.9354  0.7114 -1.3713
18236TIP3    H276124   5.257   4.037  17.243 -0.0936  0.1526 -0.2465
18237TIP3   OH276125   4.736   6.302   4.743  0.0397  0.6785  0.1644
18237TIP3    H176126   4.649   6.267   4.723  0.7429 -0.5777 -0.8866
18237TIP3    H276127   4.785   6.293   4.661  1.9570 -1.1960  1.4094
18238TIP3   OH276128   0.003   1.536  13.393 -0.0210 -0.0401 -0.0027
18238TIP3    H176129  -0.059   1.464  13.405  1.6791 -1.4792  0.5678
18238TIP3    H276130  -0.007   1.561  13.301 -1.2722 -0.3740  0.0170
18239TIP3   OH276131   4.349   5.139  15.757 -0.1195  0.0671 -0.5968
18239TIP3    H176132   4.431   5.183  15.780  0.1432 -0.6739 -0.0917
18239TIP3    H276133   4.313   5.192  15.685  0.9723  0.2077 -1.0630
18240TIP3   OH276134   2.213   3.651   3.047  0.3130  0.0925  0.4714
18240TIP3    H176135   2.304   3.628   3.065  0.4649 -0.1282 -0.5186
18240TIP3    H276136   2.196   3.727   3.103  1.7755  1.5011 -0.8792
18241TIP3   OH276137   6.020   6.568   0.945 -0.2979  0.3450 -0.2878
18241TIP3    H176138   6.041   6.493   0.999  0.9458  1.0336  0.2402
18241TIP3    H276139   6.062   6.642   0.989  1.1063  0.8790 -2.3454
18242TIP3   OH276140   4.625   4.208  11.992  0.1072 -0.1706 -0.4489
18242TIP3    H176141   4.540   4.238  11.963  0.1040  0.8446  0.5628
18242TIP3    H276142   4.638   4.249  12.077  1.2582 -0.9502 -0.2171
18243TIP3   OH276143   1.066   2.195  12.349 -0.2136  0.1586  0.0002
18243TIP3    H176144   1.148   2.234  12.380 -0.3778 -1.5787  3.0856
18243TIP3    H276145   0.998   2.248  12.391 -0.6238  0.2870 -0.8131
18244TIP3   OH276146   1.341   3.591  14.087  0.0317 -0.1587  0.3378
18244TIP3    H176147   1.336   3.685  14.068  0.8644 -0.4342 -1.4182
18244TIP3    H276148   1.249   3.564  14.099 -0.4676  0.3656 -1.9283
18245TIP3   OH276149   0.311   5.070   2.507 -0.0874 -0.9764 -0.4949
18245TIP3    H176150   0.398   5.040   2.534 -0.7876 -2.2884  0.4759
18245TIP3    H276151   0.256   5.054   2.584 -1.0936  0.2665 -0.9357
18246TIP3   OH276152   2.704   1.465   1.754  0.5134  0.2550  0.2630
18246TIP3    H176153   2.741   1.544   1.713  0.1864 -1.1584 -3.1060
18246TIP3    H276154   2.760   1.394   1.723 -0.3483 -1.0570  1.6336
18247TIP3   OH276155   2.609   2.350  16.184  1.1362 -0.0946  0.3465
18247TIP3    H176156   2.560   2.392  16.255 -0.3079 -2.0673  0.6068
18247TIP3    H276157   2.569   2.385  16.104  1.5324  0.7414  0.4962
18248TIP3   OH276158   5.160   4.457   4.942 -0.4553  0.1676 -0.2726
18248TIP3    H176159   5.177   4.534   4.889 -1.2638 -1.3380 -2.9264
18248TIP3    H276160   5.237   4.447   4.997  0.0749  2.2729 -0.5809
18249TIP3   OH276161   2.228   6.297   5.706 -0.0034 -0.1169  0.0880
18249TIP3    H176162   2.212   6.339   5.791 -0.5894 -0.3757  0.1153
18249TIP3    H276163   2.146   6.310   5.658 -0.0042 -0.7688 -0.0916
18250TIP3   OH276164   0.555   5.358  13.988  0.0183 -0.0282  0.4657
18250TIP3    H176165   0.552   5.418  14.063 -1.9844  0.0202  0.4060
18250TIP3    H276166   0.463   5.340  13.968  0.3702  1.0790 -2.8627
18251TIP3   OH276167   3.409   4.441   1.014  0.5960 -0.2122 -0.0421
18251TIP3    H176168   3.410   4.370   0.950 -3.3318 -0.6967  0.1686
18251TIP3    H276169   3.389   4.519   0.964  0.1753 -0.1112  0.2780
18252TIP3   OH276170   2.641   4.166   1.899 -0.4384  0.1838 -0.0434
18252TIP3    H176171   2.550   4.162   1.928 -0.9754  0.1003 -1.6747
18252TIP3    H276172   2.692   4.163   1.981 -1.8972  1.1466  0.9482
18253TIP3   OH276173   2.929   2.943   4.247 -0.2625 -0.1118  0.1183
18253TIP3    H176174   3.004   2.937   4.188 -0.5537  0.2986 -0.2976
18253TIP3    H276175   2.884   2.859   4.238 -2.4640  1.1962 -3.1768
18254TIP3   OH276176   0.982   6.283   1.432 -0.6836 -0.7001 -0.1016
18254TIP3    H176177   1.011   6.281   1.523  0.2164 -2.0530 -0.3970
18254TIP3    H276178   1.012   6.368   1.399  1.1449 -1.1995  0.1985
18255TIP3   OH276179   3.313   3.233  14.136 -0.0554 -0.3345 -0.0790
18255TIP3    H176180   3.240   3.292  14.153 -1.1146 -1.7176  0.3181
18255TIP3    H276181   3.362   3.275  14.065 -1.0073  0.8005 -0.0910
18256TIP3   OH276182   1.781   1.418   2.146 -0.5856  0.4432 -0.6469
18256TIP3    H176183   1.794   1.465   2.064 -1.4452 -1.3804 -1.8784
18256TIP3    H276184   1.686   1.417   2.158 -0.4419  1.7290  1.0529
18257TIP3   OH276185   3.570   1.870  14.392  0.2099  0.6632  0.1479
18257TIP3    H176186   3.546   1.859  14.484  2.4623 -2.2064  0.5436
18257TIP3    H276187   3.536   1.791  14.350  1.5944  0.6011 -0.8954
18258TIP3   OH276188   4.676   6.217  11.417 -0.2120  0.1618 -0.6079
18258TIP3    H176189   4.716   6.290  11.464  0.9733 -0.6412 -0.3278
18258TIP3    H276190   4.593   6.202  11.462  0.4040  0.1178  0.5491
18259TIP3   OH276191   4.995   0.379  12.155  0.0132 -0.2826  0.8446
18259TIP3    H176192   4.968   0.444  12.090 -3.0149  0.3706  2.5685
18259TIP3    H276193   5.078   0.412  12.189  1.7072 -0.6366 -2.5121
18260TIP3   OH276194   6.161   5.771   3.669 -0.1592 -0.4073  0.0153
18260TIP3    H176195   6.068   5.793   3.667 -0.4305 -1.3596  0.8468
18260TIP3    H276196   6.207   5.855   3.664 -1.0768  0.1191  0.3051
18261TIP3   OH276197   1.719   6.090  11.343  0.3288 -0.3909  0.1529
18261TIP3    H176198   1.802   6.115  11.302 -0.4782  1.2237 -0.5944
18261TIP3    H276199   1.667   6.170  11.343 -0.8564 -1.1078  1.5835
18262TIP3   OH276200   6.182   5.603   4.295  0.2788  0.0038 -0.1502
18262TIP3    H176201   6.256   5.610   4.236  0.2427  0.6911 -0.1175
18262TIP3    H276202   6.108   5.579   4.239  0.2107  0.8071 -0.4081
18263TIP3   OH276203   1.870   0.607  12.900 -0.3703  0.1860 -0.1577
18263TIP3    H176204   1.929   0.616  12.825 -0.9888 -0.7731 -0.7774
18263TIP3    H276205   1.793   0.657  12.876  0.0358  1.1540  0.5069
18264TIP3   OH276206   2.938   2.260   4.310 -0.0523 -0.7734 -0.2682
18264TIP3    H176207   2.925   2.312   4.390 -0.7575 -0.5727 -0.5031
18264TIP3    H276208   2.966   2.174   4.342 -2.5883 -1.4585  0.3740
18265TIP3   OH276209   3.079   0.515   4.917  0.4133 -0.3316 -0.2084
18265TIP3    H176210   3.030   0.495   4.997  0.7779 -2.4413 -0.4457
18265TIP3    H276211   3.154   0.565   4.946  0.5282 -1.0520  0.7960
18266TIP3   OH276212   0.608   2.865  13.047 -0.3978 -0.6897 -0.5157
18266TIP3    H176213   0.636   2.872  12.955  0.2127 -3.0050 -0.5585
18266TIP3    H276214   0.516   2.889  13.046  0.2952  2.5185 -1.1446
18267TIP3   OH276215   5.170   3.625   5.517 -0.2734  0.2801  0.1918
18267TIP3    H176216   5.124   3.688   5.460  1.9611  0.2702 -1.7824
18267TIP3    H276217   5.130   3.540   5.495 -2.2950  0.7439  1.8000
18268TIP3   OH276218   5.274   3.749  12.029  0.1737 -0.8320 -0.2339
18268TIP3    H176219   5.319   3.790  12.102  0.0618 -1.0453 -0.0449
18268TIP3    H276220   5.341   3.695  11.987  0.5180  0.1002 -0.9235
18269TIP3   OH276221   3.621   5.915   5.543  0.1602 -0.8432  1.2792
18269TIP3    H176222   3.716   5.914   5.554 -0.0722 -0.8053  3.7111
18269TIP3    H276223   3.601   6.003   5.511  0.9053 -0.7611  1.0351
18270TIP3   OH276224   0.607   6.371  17.103 -0.9723  0.1398 -0.4698
18270TIP3    H176225   0.559   6.289  17.089 -2.1502  0.5328  1.0355
18270TIP3    H276226   0.681   6.366  17.043 -1.1816 -1.8980 -0.6117
18271TIP3   OH276227   0.300   5.603  11.147  0.0645 -0.3054 -0.0235
18271TIP3    H176228   0.360   5.603  11.073  1.5184  0.7077  1.0819
18271TIP3    H276229   0.259   5.517  11.145  2.1200 -1.3397 -0.3985
18272TIP3   OH276230   2.527   2.126  15.071 -0.3266 -0.3138  0.4103
18272TIP3    H176231   2.534   2.175  15.152 -1.9441 -1.6106  1.4030
18272TIP3    H276232   2.450   2.161  15.028  0.8419  0.7655 -0.9198
18273TIP3   OH276233   6.404   4.953  16.365 -0.2525  0.3431 -0.7892
18273TIP3    H176234   6.326   4.909  16.399 -1.1591  1.9225 -0.7421
18273TIP3    H276235   6.376   4.987  16.280  0.1465  1.5909 -0.4319
18274TIP3   OH276236   2.276   4.028   2.960  0.0997 -0.0876  0.5028
18274TIP3    H176237   2.368   4.050   2.941 -0.3664  1.4600 -0.0538
18274TIP3    H276238   2.281   3.966   3.033  1.5296  1.2244  1.5745
18275TIP3   OH276239   0.356   6.054  12.814  0.1073  0.1488 -0.1909
18275TIP3    H176240   0.358   6.083  12.906 -1.9203  1.6910 -0.5679
18275TIP3    H276241   0.395   6.127  12.765  0.0741 -0.1604 -0.6825
18276TIP3   OH276242   4.295   6.136  13.293 -0.8020 -0.2475 -0.2307
18276TIP3    H176243   4.293   6.132  13.388  2.6824 -2.0733 -0.0593
18276TIP3    H276244   4.227   6.075  13.265 -1.2674 -0.3772  1.1093
18277TIP3   OH276245   4.396   4.685  13.158  0.4019 -0.1763  0.3626
18277TIP3    H176246   4.466   4.622  13.138  0.0433 -0.6546  0.5832
18277TIP3    H276247   4.355   4.703  13.073 -0.0342 -0.8996  0.4097
18278TIP3   OH276248   2.369   6.613  12.225 -0.6071  0.2190 -0.0767
18278TIP3    H176249   2.396   6.532  12.182 -0.6833 -0.1055  0.4846
18278TIP3    H276250   2.411   6.682  12.173 -0.1374 -0.1998 -0.2639
18279TIP3   OH276251   4.682   3.009  12.072  0.5088  0.1914 -0.1774
18279TIP3    H176252   4.663   2.998  12.166 -1.6725  0.3111 -0.5543
18279TIP3    H276253   4.597   2.999  12.029  0.9095  3.1429 -1.9133
18280TIP3   OH276254   3.700   4.033   6.406  0.0452 -0.1868  0.5903
18280TIP3    H176255   3.704   3.938   6.399  1.6524 -0.1074  0.1758
18280TIP3    H276256   3.700   4.050   6.501 -2.3698 -0.6277  0.7256
18281TIP3   OH276257   2.677   3.295   0.932  0.0896  0.0480 -0.3796
18281TIP3    H176258   2.754   3.286   0.987 -0.0548 -0.8784 -0.3067
18281TIP3    H276259   2.650   3.386   0.941  0.0153 -0.1123  1.1483
18282TIP3   OH276260   5.227   3.718  15.592  0.0640 -0.3213  0.1772
18282TIP3    H176261   5.283   3.779  15.641 -2.8959  1.4672  1.6619
18282TIP3    H276262   5.158   3.774  15.555 -3.1002 -2.6782  1.9758
18283TIP3   OH276263   3.018   6.057  15.233 -0.1810  0.4625  0.2860
18283TIP3    H176264   3.047   6.144  15.261  1.0570  0.6224 -1.3756
18283TIP3    H276265   2.980   6.070  15.146 -1.4939 -0.4330  0.6876
18284TIP3   OH276266   2.034   3.458  14.089  0.2947 -0.6537  0.7117
18284TIP3    H176267   2.033   3.553  14.074 -1.8996 -0.4455  1.7690
18284TIP3    H276268   2.125   3.438  14.110  1.1159  0.9403 -0.9946
18285TIP3   OH276269   3.597   2.787   4.940  0.1318 -0.0451 -0.2083
18285TIP3    H176270   3.508   2.803   4.908 -0.7884 -0.9443  1.7443
18285TIP3    H276271   3.604   2.841   5.019  1.5762  0.5133 -0.6879
18286TIP3   OH276272   1.341   3.450   4.268 -0.0347 -0.4400  0.4088
18286TIP3    H176273   1.374   3.458   4.358 -0.9121 -1.9936  0.9186
18286TIP3    H276274   1.246   3.461   4.277 -0.0230  0.5052 -0.5102
18287TIP3   OH276275   6.422   4.643   1.338 -0.7125  0.1497 -0.1912
18287TIP3    H176276   6.430   4.559   1.383 -0.7567 -0.3287 -1.0529
18287TIP3    H276277   6.509   4.658   1.300 -0.6247  0.6362  0.1930
18288TIP3   OH276278   6.482   5.150  15.599 -0.1088 -0.3660 -0.1011
18288TIP3    H176279   6.448   5.159  15.688  1.0257  1.2418  0.2040
18288TIP3    H276280   6.547   5.080  15.606 -0.1262 -0.3460  0.2984
18289TIP3   OH276281   5.208   3.877   0.408 -0.1740  0.1055 -0.0250
18289TIP3    H176282   5.251   3.902   0.490 -1.3308 -1.4200  1.0922
18289TIP3    H276283   5.189   3.961   0.365  0.1779  0.9522  1.4025
18290TIP3   OH276284   2.697   3.826   4.643 -0.4857 -0.0821 -0.3521
18290TIP3    H176285   2.614   3.798   4.683  0.4543  0.4076  2.1759
18290TIP3    H276286   2.686   3.920   4.629 -0.7939 -0.2437 -1.2735
18291TIP3   OH276287   4.829   5.706  14.771  0.0329 -0.0775  0.3448
18291TIP3    H176288   4.824   5.634  14.834 -0.2032 -0.8313 -0.5208
18291TIP3    H276289   4.922   5.725  14.764  0.2084 -1.1303 -0.3311
18292TIP3   OH276290   6.158   0.707  12.588 -0.1326  0.0655 -0.0640
18292TIP3    H176291   6.149   0.707  12.492  1.7228 -2.2091 -0.3295
18292TIP3    H276292   6.108   0.630  12.616 -1.4084  1.2165  0.9603
18293TIP3   OH276293   1.592   5.799  16.059 -0.6317 -0.3015  0.0518
18293TIP3    H176294   1.521   5.735  16.058 -0.0936 -0.9134  0.1322
18293TIP3    H276295   1.656   5.763  16.121  1.2154 -1.4232 -2.3241
18294TIP3   OH276296   0.828   4.109   1.412 -0.1809 -0.1876  0.0507
18294TIP3    H176297   0.765   4.159   1.464  0.6599  0.0011  0.9332
18294TIP3    H276298   0.840   4.160   1.332 -1.8758 -0.7374 -0.5832
18295TIP3   OH276299   1.893   3.317   1.036 -0.0121  0.0725 -0.1371
18295TIP3    H176300   1.798   3.329   1.035 -0.0779 -0.4230 -0.9781
18295TIP3    H276301   1.905   3.224   1.054  0.4762  0.9281  5.6576
18296TIP3   OH276302   0.104   1.810  13.479  0.6302  0.2149  0.0331
18296TIP3    H176303   0.068   1.724  13.499 -0.5281  0.3525 -1.2956
18296TIP3    H276304   0.073   1.866  13.550  0.9869 -0.3592  0.6465
18297TIP3   OH276305   3.802   0.704   1.448  0.2532 -0.7642  0.0601
18297TIP3    H176306   3.881   0.728   1.497 -0.4400 -0.3394  0.9968
18297TIP3    H276307   3.736   0.767   1.477 -0.2433 -0.6412 -1.2732
18298TIP3   OH276308   0.079   0.449   5.877 -0.1271  0.4148 -1.0175
18298TIP3    H176309   0.074   0.422   5.785 -0.9444  0.7370 -1.0775
18298TIP3    H276310   0.077   0.367   5.926 -0.6590  0.2833 -1.2578
18299TIP3   OH276311   4.291   3.189   6.204 -0.1042  0.2156 -0.0539
18299TIP3    H176312   4.198   3.179   6.223  0.3863 -2.5868  1.4366
18299TIP3    H276313   4.323   3.252   6.269 -0.4510 -1.1648  1.5204
18300TIP3   OH276314   4.970   5.430  16.104  0.2332  0.7192 -0.2602
18300TIP3    H176315   4.910   5.432  16.179 -0.1656  0.5521 -0.5753
18300TIP3    H276316   4.951   5.348  16.060  2.2659 -0.4836  0.9131
18301TIP3   OH276317   2.607   4.225   3.822  0.1697  0.1602  0.7404
18301TIP3    H176318   2.520   4.199   3.854  0.1693  1.5073  1.9301
18301TIP3    H276319   2.668   4.186   3.884  0.2659  1.3870  1.4277
18302TIP3   OH276320   0.134   3.279  13.305  0.4027 -0.0061 -0.1330
18302TIP3    H176321   0.102   3.214  13.242 -3.2479  1.5881 -0.1584
18302TIP3    H276322   0.136   3.233  13.389  0.8827 -0.9277 -0.6349
18303TIP3   OH276323   2.927   6.646  12.886 -0.4310  0.1232 -0.2022
18303TIP3    H176324   2.897   6.719  12.832  0.9417 -0.8203 -2.3604
18303TIP3    H276325   2.993   6.685  12.944 -1.6028  1.0676  0.5310
18304TIP3   OH276326   2.434   1.184  10.981  0.4563 -0.0763  0.2193
18304TIP3    H176327   2.441   1.205  10.888 -0.1933 -0.5637  0.0476
18304TIP3    H276328   2.369   1.246  11.014 -1.0771 -1.3751 -0.1787
18305TIP3   OH276329   3.414   0.345  12.214 -0.0032 -0.5295  0.6019
18305TIP3    H176330   3.366   0.287  12.272  0.0013 -2.3124 -1.0665
18305TIP3    H276331   3.507   0.328  12.233  0.0144  0.4819  1.5236
18306TIP3   OH276332   6.456   4.536  10.980 -0.1298 -0.4246 -0.1452
18306TIP3    H176333   6.474   4.590  11.057 -0.1026 -0.1839 -0.3211
18306TIP3    H276334   6.507   4.576  10.910  0.4823 -1.1140 -0.1059
18307TIP3   OH276335   2.323   6.147   2.965 -0.0903  0.3805  0.0198
18307TIP3    H176336   2.385   6.124   3.034  0.9912  1.3541 -0.6073
18307TIP3    H276337   2.366   6.215   2.915 -1.7615  1.2399 -0.3237
18308TIP3   OH276338   3.337   0.949  10.419 -0.4950 -0.3347  0.1736
18308TIP3    H176339   3.432   0.940  10.412 -0.2253  1.0507  1.5449
18308TIP3    H276340   3.323   0.997  10.501 -2.4594 -1.6244  0.6616
18309TIP3   OH276341   5.669   4.678   5.401  0.5536 -0.6154  0.3388
18309TIP3    H176342   5.695   4.601   5.452  0.3226 -0.3908  0.8065
18309TIP3    H276343   5.740   4.690   5.338  0.0718 -1.8445 -0.4600
18310TIP3   OH276344   1.021   5.829  16.994 -0.0024  0.2247  0.4266
18310TIP3    H176345   0.967   5.897  16.954  0.7063 -0.0992 -1.1462
18310TIP3    H276346   1.065   5.873  17.066 -1.9257  0.6290  1.4444
18311TIP3   OH276347   2.565   3.915   3.695  0.5323 -0.1013 -0.0658
18311TIP3    H176348   2.591   4.005   3.712  2.4094 -0.7595  0.8179
18311TIP3    H276349   2.625   3.862   3.747 -0.2273 -1.8872 -0.9054
18312TIP3   OH276350   3.263   2.541   4.660  0.0417  0.2288  0.6449
18312TIP3    H176351   3.219   2.616   4.700 -0.6017  0.6163 -0.7253
18312TIP3    H276352   3.219   2.529   4.576  1.2658 -0.6129  0.0912
18313TIP3   OH276353   4.270   2.632  12.653  0.4327  0.0719 -0.2648
18313TIP3    H176354   4.342   2.694  12.646  1.8565 -1.3300  1.2736
18313TIP3    H276355   4.248   2.629  12.746  0.1354 -1.4168 -0.3523
18314TIP3   OH276356   6.462   3.234  14.962 -0.5484  0.0259  0.0821
18314TIP3    H176357   6.521   3.309  14.972 -0.3324 -0.4350  3.6303
18314TIP3    H276358   6.374   3.272  14.967 -0.4567  0.1887  0.5206
18315TIP3   OH276359   6.330   2.392  14.927  0.0207 -0.3675  0.2954
18315TIP3    H176360   6.267   2.358  14.991  1.3050 -1.2754  1.1272
18315TIP3    H276361   6.357   2.315  14.878 -1.0290  0.3339 -1.4878
18316TIP3   OH276362   5.029   2.685   5.628 -0.1588  0.1148 -0.0636
18316TIP3    H176363   5.009   2.762   5.682  0.2964  0.7353 -0.7491
18316TIP3    H276364   5.010   2.610   5.684  0.1378  0.7410  0.8967
18317TIP3   OH276365   1.272   1.173  16.942 -0.1236  0.4651 -0.4074
18317TIP3    H176366   1.193   1.204  16.898 -0.0534  1.7693  0.3372
18317TIP3    H276367   1.328   1.251  16.948  0.9424 -0.2891 -0.3377
18318TIP3   OH276368   0.527   0.821   3.704 -0.2345 -0.4803  0.4194
18318TIP3    H176369   0.451   0.775   3.740  0.3567 -0.7305  1.3667
18318TIP3    H276370   0.600   0.796   3.760  0.5959 -0.3796 -0.5785
18319TIP3   OH276371   5.706   5.253   0.920 -0.4998  0.1584 -0.3355
18319TIP3    H176372   5.681   5.178   0.975  1.4310 -0.7249 -0.5617
18319TIP3    H276373   5.643   5.321   0.942  0.5250  0.1080  3.5196
18320TIP3   OH276374   1.576   6.048  11.907 -0.3760 -0.0071  0.0639
18320TIP3    H176375   1.650   6.106  11.887  0.5667 -0.6880  1.3800
18320TIP3    H276376   1.520   6.052  11.830  0.8782  0.7918 -0.8377
18321TIP3   OH276377   5.311   0.871   3.240 -0.3536  0.3033 -0.0345
18321TIP3    H176378   5.282   0.784   3.212 -1.3614  0.6206 -0.0313
18321TIP3    H276379   5.349   0.911   3.162  1.0357 -0.4952  0.2052
18322TIP3   OH276380   3.020   5.556   1.594  0.1211  0.6017 -0.4293
18322TIP3    H176381   3.091   5.498   1.567 -0.2434  0.0116 -0.1459
18322TIP3    H276382   2.953   5.497   1.630  1.1946  1.3764  3.2243
18323TIP3   OH276383   6.011   3.398  13.289 -0.0606 -0.0210 -0.1618
18323TIP3    H176384   6.063   3.364  13.217 -0.2315 -1.2318  0.2587
18323TIP3    H276385   6.061   3.375  13.368 -1.1503 -1.1086  0.2401
18324TIP3   OH276386   0.645   2.680   4.073 -0.6160  0.6008 -0.1331
18324TIP3    H176387   0.733   2.699   4.105 -0.2020 -0.8026 -0.3530
18324TIP3    H276388   0.597   2.649   4.150 -0.1288 -1.1086 -0.4715
18325TIP3   OH276389   5.255   4.163  16.171  0.2148 -0.6694  0.7187
18325TIP3    H176390   5.251   4.251  16.133  0.7332 -0.4148  1.2462
18325TIP3    H276391   5.223   4.174  16.261  0.8856 -0.8992  0.9907
18326TIP3   OH276392   6.015   2.331   5.726  0.1429 -0.2140  0.2231
18326TIP3    H176393   5.987   2.388   5.655  0.5715  1.3529  1.2646
18326TIP3    H276394   6.051   2.254   5.682 -1.2877 -0.1204 -1.2011
18327TIP3   OH276395   3.464   5.707   1.373  0.7539 -0.1248 -0.0449
18327TIP3    H176396   3.460   5.767   1.299  1.0057 -0.4450 -0.3196
18327TIP3    H276397   3.391   5.733   1.429  0.2671 -0.1836 -0.6344
18328TIP3   OH276398   3.606   5.258   1.859 -0.3066 -0.6660  0.2994
18328TIP3    H176399   3.685   5.226   1.816 -0.4968 -0.3460 -0.2976
18328TIP3    H276400   3.633   5.276   1.949 -0.1451 -2.3412  0.6266
18329TIP3   OH276401   5.409   2.144  13.323  0.2718 -0.1835  0.0036
18329TIP3    H176402   5.358   2.196  13.261 -0.9771 -1.4344 -0.0548
18329TIP3    H276403   5.382   2.176  13.409 -0.1619 -0.4316 -0.0398
18330TIP3   OH276404   3.691   5.549  15.864 -0.1445  0.1402  0.0195
18330TIP3    H176405   3.639   5.623  15.894 -1.5688  0.3608 -2.7246
18330TIP3    H276406   3.678   5.482  15.932 -1.4710  1.2737  0.9477
18331TIP3   OH276407   5.702   1.924   5.095 -0.3726  0.7376  0.1211
18331TIP3    H176408   5.659   1.925   5.010 -0.7566  2.8503  0.2854
18331TIP3    H276409   5.630   1.925   5.158 -0.1306  1.9786  0.4141
18332TIP3   OH276410   2.747   5.176   2.599  0.3880 -0.7411 -0.0415
18332TIP3    H176411   2.734   5.261   2.642  0.2783 -0.5215 -0.4953
18332TIP3    H276412   2.774   5.199   2.510  1.0131 -1.1906  0.0295
18333TIP3   OH276413   0.911   4.159  11.667  0.2959  0.7587  0.5640
18333TIP3    H176414   0.877   4.172  11.755 -2.4068 -1.2891 -0.0229
18333TIP3    H276415   0.853   4.210  11.611 -0.5058 -0.9748 -0.2793
18334TIP3   OH276416   6.051   0.752   2.008  0.4363  0.2160 -0.7241
18334TIP3    H176417   5.980   0.807   2.040 -0.0407 -0.1446 -1.1475
18334TIP3    H276418   6.021   0.721   1.922  0.8588 -0.3879 -0.6608
18335TIP3   OH276419   3.429   0.905  13.633  0.9047  0.6703  0.6679
18335TIP3    H176420   3.376   0.835  13.593 -0.0700  0.8052  1.6609
18335TIP3    H276421   3.513   0.899  13.589  0.0477  0.5003 -1.0587
18336TIP3   OH276422   5.742   4.582   3.518 -0.3496  0.0024 -0.2082
18336TIP3    H176423   5.686   4.520   3.472 -1.6081 -0.3216  1.6492
18336TIP3    H276424   5.790   4.529   3.582  2.2075  0.2589 -1.7604
18337TIP3   OH276425   2.059   2.259   3.414 -0.2346  0.0747  0.1819
18337TIP3    H176426   2.152   2.259   3.393 -0.2552 -0.7810  0.0673
18337TIP3    H276427   2.050   2.196   3.485 -0.8526 -0.5446 -0.4228
18338TIP3   OH276428   3.132   4.877  15.807 -0.0762  0.0479  0.2526
18338TIP3    H176429   3.107   4.907  15.720  0.5559  0.8047  0.3186
18338TIP3    H276430   3.225   4.856  15.800 -0.3996 -1.5178  0.3237
18339TIP3   OH276431   0.252   6.302   3.623  0.2503 -0.2436  0.2582
18339TIP3    H176432   0.331   6.329   3.671  0.7072 -0.1269 -0.5551
18339TIP3    H276433   0.261   6.342   3.537  1.5819 -3.8750 -1.4846
18340TIP3   OH276434   5.429   6.725  16.724 -0.3838  0.5676  0.3508
18340TIP3    H176435   5.467   6.755  16.642 -0.0065  1.7823  0.9452
18340TIP3    H276436   5.392   6.803  16.764 -1.1170 -0.1186  1.0542
18341TIP3   OH276437   3.919   5.576  15.741 -0.2175 -0.4778 -0.4283
18341TIP3    H176438   3.832   5.579  15.780 -0.4967 -1.8447 -0.8889
18341TIP3    H276439   3.928   5.486  15.709  0.4610  0.2437 -2.4455
18342TIP3   OH276440   3.256   1.167  12.860 -0.0085 -0.4965  0.0492
18342TIP3    H176441   3.286   1.189  12.948  0.4255 -0.4221 -0.1130
18342TIP3    H276442   3.201   1.241  12.834 -1.5263 -1.2877  0.8994
18343TIP3   OH276443   5.546   0.720  11.231  0.3842 -0.4917  0.2337
18343TIP3    H176444   5.634   0.737  11.198  1.4502 -2.8263  1.6142
18343TIP3    H276445   5.538   0.778  11.307 -0.2306  1.3758 -1.1684
18344TIP3   OH276446   3.817   2.194  13.429  0.6491 -0.1093  0.4229
18344TIP3    H176447   3.831   2.138  13.353 -2.0891 -0.5273  0.1125
18344TIP3    H276448   3.879   2.265  13.419  1.2278 -0.8270 -1.5133
18345TIP3   OH276449   0.564   6.526  14.162 -0.1872 -0.0919 -0.0603
18345TIP3    H176450   0.575   6.432  14.178 -0.7391  0.0389  1.2180
18345TIP3    H276451   0.652   6.562  14.172  0.2302 -0.5887 -1.6245
18346TIP3   OH276452   3.401   5.462  14.769 -0.5376 -0.2843 -0.0153
18346TIP3    H176453   3.383   5.525  14.699 -0.5373  0.4432  0.6365
18346TIP3    H276454   3.492   5.480  14.795  0.2157 -1.9754 -1.2643
18347TIP3   OH276455   4.262   4.528   2.792  0.2692 -0.3836 -0.4882
18347TIP3    H176456   4.339   4.584   2.777  0.2558 -0.7822 -2.2052
18347TIP3    H276457   4.192   4.590   2.814  0.6721  0.1199 -0.5933
18348TIP3   OH276458   3.099   1.727   3.010 -0.5638 -0.2672  0.1386
18348TIP3    H176459   3.178   1.749   3.060 -1.1229 -0.5461  1.1805
18348TIP3    H276460   3.072   1.809   2.969 -0.1311 -0.0099  0.3610
18349TIP3   OH276461   1.070   4.442  11.830 -0.3462 -0.2851  0.0541
18349TIP3    H176462   1.034   4.524  11.863 -0.8132 -0.1326 -0.8095
18349TIP3    H276463   1.016   4.421  11.753  0.6413 -0.6770 -0.5511
18350TIP3   OH276464   0.394   5.806  12.927 -0.5675  0.6685  0.0214
18350TIP3    H176465   0.364   5.889  12.891  2.5300  1.6223 -0.6527
18350TIP3    H276466   0.444   5.766  12.856  2.8488  0.9998  2.0420
18351TIP3   OH276467   3.839   1.830  11.423  0.3050 -0.1001  0.2333
18351TIP3    H176468   3.759   1.872  11.454 -0.2678 -0.0100 -1.2649
18351TIP3    H276469   3.829   1.738  11.447 -0.5869 -0.2192 -0.5442
18352TIP3   OH276470   5.285   2.074  16.369 -0.0711 -0.2197 -0.3594
18352TIP3    H176471   5.319   2.128  16.440  2.4759 -0.9424 -0.8943
18352TIP3    H276472   5.361   2.023  16.340 -1.3051 -0.8371 -2.7902
18353TIP3   OH276473   5.186   5.310   0.828  0.4137 -0.1020  0.4220
18353TIP3    H176474   5.219   5.399   0.820  2.3678 -0.7278  0.9672
18353TIP3    H276475   5.208   5.269   0.744  0.4489 -0.3591  0.5578
18354TIP3   OH276476   1.615   2.049   2.560 -0.1796  0.1404 -0.0703
18354TIP3    H176477   1.606   2.069   2.467  1.2667 -0.5446 -0.3889
18354TIP3    H276478   1.578   1.962   2.570 -2.2424  1.0273  0.4276
18355TIP3   OH276479   5.787   1.898  16.561 -0.0649 -0.1457  0.1860
18355TIP3    H176480   5.874   1.898  16.601  0.5825  0.4365 -1.1712
18355TIP3    H276481   5.727   1.912  16.635  1.1767  2.3829  0.8115
18356TIP3   OH276482   6.054   4.087   2.933  0.5069 -0.9380 -0.3031
18356TIP3    H176483   6.088   4.006   2.894 -0.5993 -1.7192  0.3021
18356TIP3    H276484   5.995   4.123   2.867  0.0625 -1.2792 -0.0969
18357TIP3   OH276485   3.523   3.791  15.476 -0.4212  0.2935 -0.2578
18357TIP3    H176486   3.439   3.760  15.510 -0.1281 -0.2013  0.0460
18357TIP3    H276487   3.509   3.883  15.456 -0.0172  1.2974  3.3604
18358TIP3   OH276488   5.730   0.715   4.474 -0.2995 -0.0296 -0.1182
18358TIP3    H176489   5.725   0.697   4.381 -1.8815  1.0352 -0.2683
18358TIP3    H276490   5.643   0.695   4.508  0.0067  0.3848  0.9707
18359TIP3   OH276491   6.420   2.415  16.069  0.8737 -0.1210  0.5035
18359TIP3    H176492   6.420   2.322  16.089  2.0199  0.2269  2.3562
18359TIP3    H276493   6.491   2.451  16.122  0.4304  1.8151 -0.1324
18360TIP3   OH276494   4.699   2.550   3.748 -0.2410  0.0180  0.0307
18360TIP3    H176495   4.714   2.581   3.837 -0.0485 -0.0673  0.0267
18360TIP3    H276496   4.716   2.626   3.692 -3.8966  1.2440  0.2657
18361TIP3   OH276497   1.980   0.856   0.705  0.8739 -0.3470  0.1089
18361TIP3    H176498   2.040   0.803   0.653  0.1308 -1.4844  0.3509
18361TIP3    H276499   1.946   0.795   0.771  1.1824  0.8528  1.4277
18362TIP3   OH276500   3.887   3.638   5.635  0.1878  0.0173 -0.0905
18362TIP3    H176501   3.923   3.624   5.548 -0.4291 -0.3119 -0.2920
18362TIP3    H276502   3.803   3.680   5.621  0.8963  1.7114  0.4196
18363TIP3   OH276503   0.347   3.032   5.359  0.2625  0.0599  0.3908
18363TIP3    H176504   0.412   2.965   5.376 -0.2593  0.0940  2.8009
18363TIP3    H276505   0.290   2.994   5.292  0.9013 -1.2417  0.5664
18364TIP3   OH276506   5.059   0.876   5.091  0.5006 -0.6737  0.0044
18364TIP3    H176507   5.123   0.943   5.064 -1.0999  0.4603 -1.2117
18364TIP3    H276508   5.073   0.804   5.029  1.0450 -0.7202  0.1760
18365TIP3   OH276509   3.904   3.300   1.399  0.2248  0.2387 -0.2615
18365TIP3    H176510   3.873   3.359   1.467  0.2504 -0.0384 -0.0068
18365TIP3    H276511   3.989   3.337   1.372  1.0607 -0.5999  1.0911
18366TIP3   OH276512   2.610   1.502  10.913  0.3255 -0.4250 -0.3706
18366TIP3    H176513   2.632   1.573  10.853 -0.3935  1.6018  1.5966
18366TIP3    H276514   2.685   1.442  10.907  1.4692  1.0110 -1.3881
18367TIP3   OH276515   5.727   1.951   2.393  0.0435 -0.1050 -0.3116
18367TIP3    H176516   5.802   1.915   2.344 -0.4211 -1.8095  0.1708
18367TIP3    H276517   5.767   1.989   2.472  0.3471 -2.3144  0.6842
18368TIP3   OH276518   3.952   0.216   4.790 -0.1390 -0.3574 -0.2388
18368TIP3    H176519   4.046   0.204   4.804 -0.4406 -0.6675  1.8510
18368TIP3    H276520   3.946   0.285   4.724  1.5435 -0.0031 -0.0598
18369TIP3   OH276521   4.971   5.075  15.602  1.1937 -0.0706  0.1645
18369TIP3    H176522   4.879   5.053  15.609  1.4065 -0.7298  0.9303
18369TIP3    H276523   4.993   5.116  15.686  0.3998  4.8337 -1.6607
18370TIP3   OH276524   3.069   5.046  12.209  0.3928  0.0698 -0.3109
18370TIP3    H176525   3.052   5.125  12.261  0.3764 -0.4967  0.5689
18370TIP3    H276526   3.040   5.069  12.121 -2.9187 -0.1161  0.6148
18371TIP3   OH276527   5.236   3.996   3.221 -0.2186 -0.2563 -0.4291
18371TIP3    H176528   5.234   3.993   3.317 -0.0056 -1.5375 -0.4545
18371TIP3    H276529   5.152   4.035   3.197 -0.0532  0.5719  0.2837
18372TIP3   OH276530   0.975   0.637  13.532 -0.3256 -0.7595 -0.2533
18372TIP3    H176531   0.988   0.704  13.599  0.0260 -0.1539 -0.9176
18372TIP3    H276532   0.995   0.681  13.450 -2.2922 -1.0466 -0.9203
18373TIP3   OH276533   3.190   2.549   3.718 -0.2858  0.3043 -0.5641
18373TIP3    H176534   3.134   2.601   3.661 -2.2169 -1.3381 -0.3040
18373TIP3    H276535   3.137   2.472   3.739  1.8820 -1.0622  0.2175
18374TIP3   OH276536   2.369   5.136  12.897 -0.4878 -0.6840  0.0254
18374TIP3    H176537   2.320   5.062  12.862 -0.0422 -0.8800 -0.1895
18374TIP3    H276538   2.426   5.163  12.825 -3.3997  2.4552 -1.4343
18375TIP3   OH276539   2.068   5.200   5.606  0.2503 -0.6529 -0.2824
18375TIP3    H176540   2.142   5.153   5.567 -0.1774 -2.2849  0.7969
18375TIP3    H276541   2.061   5.281   5.554  0.2557 -2.2982 -3.0349
18376TIP3   OH276542   6.204   6.356  17.243  0.1373 -0.1075  0.4023
18376TIP3    H176543   6.270   6.353  17.312  0.4641  0.5241  0.1132
18376TIP3    H276544   6.253   6.352  17.161  0.0076  2.5728  0.1138
18377TIP3   OH276545   1.251   1.235   4.535 -0.4352  0.5022  0.6261
18377TIP3    H176546   1.278   1.170   4.599  0.3086  1.8029  1.6867
18377TIP3    H276547   1.229   1.184   4.457  0.7646 -0.9578  1.1869
18378TIP3   OH276548   4.724   1.072  12.287 -0.2167 -0.6275  0.0344
18378TIP3    H176549   4.698   1.119  12.208 -0.4847  0.1781  0.5882
18378TIP3    H276550   4.733   0.981  12.259  2.0470 -0.0289 -1.4917
18379TIP3   OH276551   3.618   4.484  17.019  0.6525 -0.0391  0.1570
18379TIP3    H176552   3.668   4.513  17.095  0.2810 -0.2312  0.4721
18379TIP3    H276553   3.533   4.527  17.027  0.1751 -1.0085  0.5143
18380TIP3   OH276554   0.960   0.486  11.765 -0.3349 -0.1732 -0.0968
18380TIP3    H176555   0.865   0.475  11.778 -0.0958 -1.9077  0.4362
18380TIP3    H276556   0.967   0.545  11.689 -1.8430 -0.8175 -0.7785
18381TIP3   OH276557   5.990   5.512   4.132  0.0406  0.0979 -0.0140
18381TIP3    H176558   5.911   5.459   4.128 -1.1764  1.5629  2.3833
18381TIP3    H276559   5.967   5.593   4.087  0.6838 -0.0319 -0.5882
18382TIP3   OH276560   3.946   6.739  17.054  0.0942  0.5469  0.1349
18382TIP3    H176561   3.954   6.694  17.139 -0.7395 -0.7770 -0.4661
18382TIP3    H276562   3.865   6.788  17.060 -0.1111  0.2250  0.0036
18383TIP3   OH276563   6.541   3.172  15.284 -0.1314 -0.6369 -0.1447
18383TIP3    H176564   6.472   3.175  15.217  0.5256 -0.0184 -0.8084
18383TIP3    H276565   6.621   3.193  15.237  0.5219 -1.3508  0.6224
18384TIP3   OH276566   2.564   4.740   4.888  0.0589  0.0831  0.1295
18384TIP3    H176567   2.658   4.728   4.876  0.4596  1.6606  1.3376
18384TIP3    H276568   2.530   4.653   4.908  1.1702 -0.5820 -0.7861
18385TIP3   OH276569   5.480   3.785   4.547 -0.1628 -0.1880  0.1524
18385TIP3    H176570   5.570   3.761   4.525 -1.3198 -1.0779 -4.4797
18385TIP3    H276571   5.436   3.702   4.562 -0.5550  0.1724  1.0749
18386TIP3   OH276572   6.334   3.977  11.213 -0.6768  0.0021 -0.0089
18386TIP3    H176573   6.277   4.028  11.154 -0.7231  0.4798  0.4426
18386TIP3    H276574   6.279   3.905  11.243 -2.2064  2.1999  2.9893
18387TIP3   OH276575   6.201   5.828   0.609  0.4305  0.2384  0.0921
18387TIP3    H176576   6.253   5.758   0.647  1.0151  0.7306  0.2167
18387TIP3    H276577   6.126   5.784   0.569  0.3422 -0.3698  0.9200
18388TIP3   OH276578   6.402   1.106  11.886  0.1856  0.1417  0.5398
18388TIP3    H176579   6.379   1.064  11.803 -0.7230 -0.4675  1.0801
18388TIP3    H276580   6.459   1.180  11.861  0.4765 -0.4353 -0.5527
18389TIP3   OH276581   4.935   1.888   4.161  0.0652  0.0832  0.2725
18389TIP3    H176582   4.954   1.979   4.185  1.6010 -0.2195  0.3091
18389TIP3    H276583   4.851   1.869   4.204  0.6153  0.9150  1.7923
18390TIP3   OH276584   0.855   0.811   2.847  0.0026 -0.3854 -0.1690
18390TIP3    H176585   0.840   0.742   2.912 -1.6328 -1.0009 -1.1430
18390TIP3    H276586   0.798   0.882   2.874  1.8531  0.7410  0.9589
18391TIP3   OH276587   5.087   0.533  15.879  0.2477 -0.0144  0.6052
18391TIP3    H176588   5.080   0.594  15.952  4.6419  0.7173  0.6906
18391TIP3    H276589   5.090   0.589  15.801 -2.3076 -0.6794 -0.0876
18392TIP3   OH276590   6.392   5.352   0.422 -0.1018 -0.0651  0.4659
18392TIP3    H176591   6.329   5.307   0.366  0.7026  1.7993 -2.1431
18392TIP3    H276592   6.353   5.438   0.437  1.1097  0.5634  0.1210
18393TIP3   OH276593   1.964   5.146   1.255 -0.6286 -0.0075  0.4623
18393TIP3    H176594   2.042   5.098   1.226 -0.5742  0.3859 -0.0692
18393TIP3    H276595   1.970   5.230   1.209  0.1260  1.1729  2.5761
18394TIP3   OH276596   3.547   0.900   3.692 -0.3919 -0.0428  0.3583
18394TIP3    H176597   3.489   0.917   3.766  1.0152  1.2821  1.2094
18394TIP3    H276598   3.567   0.986   3.655  1.4627 -0.3685  0.4657
18395TIP3   OH276599   6.142   1.645   4.671  0.3116 -0.1052  0.0732
18395TIP3    H176600   6.137   1.562   4.623  1.9866 -0.9342  1.2240
18395TIP3    H276601   6.191   1.623   4.751 -0.2458  1.7485  0.9689
18396TIP3   OH276602   0.283   4.757  15.276 -0.0451  0.4989  0.3202
18396TIP3    H176603   0.340   4.727  15.205  1.5140 -1.7132  2.3687
18396TIP3    H276604   0.333   4.826  15.319 -0.5973  1.1992 -0.1349
18397TIP3   OH276605   0.513   3.128   4.826 -0.2002 -0.5347 -0.1700
18397TIP3    H176606   0.578   3.134   4.756  0.0913 -0.7127  0.0862
18397TIP3    H276607   0.441   3.184   4.796  0.8701  1.2814  0.4223
18398TIP3   OH276608   5.937   5.276   5.816 -0.3734  0.2205  0.4463
18398TIP3    H176609   5.884   5.211   5.770  1.3835 -0.5708 -0.5820
18398TIP3    H276610   5.973   5.229   5.891 -0.9435  0.7036  1.0401
18399TIP3   OH276611   0.852   4.604  15.889  0.1756  0.1867 -0.0004
18399TIP3    H176612   0.794   4.672  15.924 -0.0614 -0.0786  0.1242
18399TIP3    H276613   0.940   4.636  15.910  0.0837  0.6545 -0.3091
18400TIP3   OH276614   6.748   1.633  16.970 -0.1525  0.1833 -0.2237
18400TIP3    H176615   6.815   1.575  16.935  1.1137 -0.2024  2.5761
18400TIP3    H276616   6.733   1.697  16.901 -0.4604 -2.4957 -2.7986
18401TIP3   OH276617   6.632   1.693  12.054 -0.5032 -0.2800  0.0303
18401TIP3    H176618   6.590   1.609  12.072 -1.0216 -0.4156 -1.6232
18401TIP3    H276619   6.560   1.751  12.030 -0.0885  0.4809  0.5943
18402TIP3   OH276620   5.198   4.160   4.260  0.0927  0.0926  0.1507
18402TIP3    H176621   5.115   4.176   4.216  0.2929 -0.9532 -0.6489
18402TIP3    H276622   5.230   4.077   4.223  1.2092  0.1764  0.8590
18403TIP3   OH276623   3.728   3.491  16.001  0.3425 -0.9179 -0.4014
18403TIP3    H176624   3.672   3.569  16.007  1.5242 -0.1001  0.5650
18403TIP3    H276625   3.750   3.484  15.908 -0.6526 -0.7533 -0.6593
18404TIP3   OH276626   1.506   4.711  12.657 -0.0833  0.0537 -0.1187
18404TIP3    H176627   1.515   4.659  12.578 -1.8099  0.4010 -0.5724
18404TIP3    H276628   1.419   4.690  12.691  0.7904 -0.4677  1.9773
18405TIP3   OH276629   0.286   6.256   5.630 -0.2881 -0.1573  0.0684
18405TIP3    H176630   0.200   6.213   5.629 -0.4629  0.1123 -2.0662
18405TIP3    H276631   0.345   6.192   5.590 -0.0966  0.6961 -1.0665
18406TIP3   OH276632   1.967   2.649   5.967 -0.0942  0.3723 -0.5466
18406TIP3    H176633   2.029   2.721   5.975  0.7864 -0.3155 -0.9695
18406TIP3    H276634   1.911   2.656   6.044  2.0975 -0.4779  1.2494
18407TIP3   OH276635   4.250   3.526  11.793 -0.6173  0.0185 -0.6698
18407TIP3    H176636   4.249   3.550  11.700  1.2803  0.6813 -0.5572
18407TIP3    H276637   4.296   3.598  11.836 -0.2120 -0.9487  0.5831
18408TIP3   OH276638   0.012   5.045  12.168 -0.4733  0.3899  0.0891
18408TIP3    H176639  -0.043   4.985  12.119 -0.3831 -0.9583  1.5524
18408TIP3    H276640   0.101   5.011  12.156 -0.5118 -0.3530  1.6295
18409TIP3   OH276641   5.237   4.320  14.151 -0.0895 -0.1898  0.2476
18409TIP3    H176642   5.298   4.247  14.140  0.3536  0.1853  0.1304
18409TIP3    H276643   5.159   4.294  14.103  0.0264 -0.6279  0.2902
18410TIP3   OH276644   4.653   4.544  13.463  0.0304  0.0107  0.2201
18410TIP3    H176645   4.614   4.618  13.509  1.1445  0.5519  0.3427
18410TIP3    H276646   4.579   4.494  13.429 -0.7537  0.7917  0.7501
18411TIP3   OH276647   3.353   1.884   4.812  0.4862  0.1195 -0.1437
18411TIP3    H176648   3.391   1.937   4.742  1.4610 -0.5921 -0.1750
18411TIP3    H276649   3.289   1.942   4.854  0.2468  0.7183 -1.2937
18412TIP3   OH276650   5.151   4.841   5.458 -0.6400  0.0382 -0.4881
18412TIP3    H176651   5.229   4.811   5.412  0.6951  0.2992  1.4508
18412TIP3    H276652   5.095   4.764   5.464  0.5182 -0.7902  0.0816
18413TIP3   OH276653   4.632   2.948   2.202  0.1283 -0.4207  0.2520
18413TIP3    H176654   4.689   2.871   2.198 -0.4263 -0.8449  0.3086
18413TIP3    H276655   4.684   3.015   2.247  1.0861 -0.3408 -0.9302
18414TIP3   OH276656   2.243   4.458  12.042 -0.1565  0.0219  0.0412
18414TIP3    H176657   2.207   4.377  12.080 -0.7385 -1.1812 -2.8143
18414TIP3    H276658   2.169   4.517  12.038 -0.3919 -0.2986 -0.3721
18415TIP3   OH276659   0.730   4.434  15.286  0.3289 -0.3280 -0.3435
18415TIP3    H176660   0.793   4.435  15.214  1.3549  0.7448  0.5291
18415TIP3    H276661   0.762   4.501  15.347 -1.1953 -0.3475  0.5305
18416TIP3   OH276662   6.498   5.198  15.320  0.3005 -0.1229 -0.5102
18416TIP3    H176663   6.485   5.164  15.408  0.7623 -0.1701 -0.4557
18416TIP3    H276664   6.410   5.212  15.286  0.1189 -0.3539 -0.1391
18417TIP3   OH276665   3.968   0.753  15.849  0.0648  0.0320  0.0581
18417TIP3    H176666   4.040   0.782  15.793  0.5095 -0.3616  0.4052
18417TIP3    H276667   3.936   0.673  15.807 -0.0842  0.1397 -0.0307
18418TIP3   OH276668   3.287   0.944   2.779 -0.0874 -0.5716  0.0750
18418TIP3    H176669   3.287   0.904   2.866 -1.8979 -0.6529  0.0659
18418TIP3    H276670   3.261   1.035   2.794 -2.3974 -1.0767 -0.5298
18419TIP3   OH276671   2.672   1.778  14.882  0.1777  0.2121 -0.1567
18419TIP3    H176672   2.604   1.793  14.817  0.9313 -0.0157 -1.0167
18419TIP3    H276673   2.718   1.699  14.852  0.4798  0.0446  0.6997
18420TIP3   OH276674   5.854   6.306  13.073  0.1563 -0.1729 -0.8787
18420TIP3    H176675   5.824   6.396  13.062  0.0394 -0.2088 -0.8527
18420TIP3    H276676   5.911   6.290  12.997  1.0596  0.2843 -0.3132
18421TIP3   OH276677   4.902   1.550   0.552  0.1167  0.3141  0.0847
18421TIP3    H176678   4.922   1.543   0.459 -0.0945  1.4528 -0.0723
18421TIP3    H276679   4.815   1.512   0.561  0.0433  0.4050 -0.2249
18422TIP3   OH276680   2.563   2.505  16.527 -0.4877 -0.1211 -0.0683
18422TIP3    H176681   2.516   2.495  16.609  0.5103 -0.6496  0.4564
18422TIP3    H276682   2.636   2.442  16.532 -1.0156 -0.9595 -1.8024
18423TIP3   OH276683   0.472   1.095   4.812 -0.0065  0.0151 -0.2730
18423TIP3    H176684   0.450   1.093   4.906 -0.0623  0.0711 -0.2848
18423TIP3    H276685   0.567   1.098   4.810  0.0383 -1.0809 -0.2263
18424TIP3   OH276686   1.308   1.421  15.260 -0.2302  0.5505 -0.2677
18424TIP3    H176687   1.403   1.430  15.255 -0.1409  2.0426  2.3087
18424TIP3    H276688   1.295   1.342  15.314 -0.4252  0.7722  0.0114
18425TIP3   OH276689   6.612   1.819   5.827 -0.1425 -0.5664 -0.1992
18425TIP3    H176690   6.546   1.840   5.893  0.8315  0.1712  0.5662
18425TIP3    H276691   6.685   1.877   5.847  0.3255 -0.5853 -1.7123
18426TIP3   OH276692   3.782   1.307  13.295  0.5738 -0.5384  0.2738
18426TIP3    H176693   3.728   1.313  13.374 -0.9102  0.6531 -0.7817
18426TIP3    H276694   3.854   1.368  13.311 -0.0708  0.1963  0.4621
18427TIP3   OH276695   6.216   1.086  11.394  0.0714 -0.1178  0.8228
18427TIP3    H176696   6.128   1.123  11.383  0.1386 -0.4144 -1.0383
18427TIP3    H276697   6.275   1.152  11.357  0.5213 -0.4118  1.0097
18428TIP3   OH276698   3.987   3.956  12.738 -0.0244 -0.5254 -0.2877
18428TIP3    H176699   4.078   3.979  12.757  0.3625  0.2061 -2.6496
18428TIP3    H276700   3.957   4.026  12.679 -1.3951 -1.9245 -1.3125
18429TIP3   OH276701   1.938   0.303   5.694 -0.2170  0.3704  0.4195
18429TIP3    H176702   1.880   0.371   5.729  0.3312  1.3579 -0.5608
18429TIP3    H276703   1.953   0.328   5.604 -2.0040 -2.4004 -0.8021
18430TIP3   OH276704   0.313   3.634   5.626 -0.7709  0.2981 -0.5469
18430TIP3    H176705   0.406   3.656   5.618 -0.6626  0.6599  1.2600
18430TIP3    H276706   0.273   3.669   5.547  0.3361  1.8867 -0.4549
18431TIP3   OH276707   5.588   6.554  15.547 -0.0783  0.0567  0.6833
18431TIP3    H176708   5.682   6.545  15.559  0.4749 -1.1921 -3.3835
18431TIP3    H276709   5.557   6.465  15.529 -1.1304  0.9480 -2.5903
18432TIP3   OH276710   0.153   2.570   3.262  0.2069  0.4233  0.8987
18432TIP3    H176711   0.123   2.603   3.347  1.2867  1.3182  0.9585
18432TIP3    H276712   0.079   2.586   3.203  0.3927  2.3006  1.1053
18433TIP3   OH276713   0.262   5.358  14.002  0.4181  0.1548 -0.2518
18433TIP3    H176714   0.183   5.348  13.948  1.3101 -0.5955 -1.4637
18433TIP3    H276715   0.253   5.446  14.041 -0.4903  0.5161 -1.2209
18434TIP3   OH276716   0.106   2.529   5.240 -0.1357  0.2035  0.2628
18434TIP3    H176717   0.124   2.435   5.243  0.5652  0.3584  1.5935
18434TIP3    H276718   0.169   2.567   5.301 -0.7444  1.4883  0.1160
18435TIP3   OH276719   1.153   4.781   2.829  0.1299  0.4728 -0.1690
18435TIP3    H176720   1.227   4.723   2.808 -0.3779 -0.3005  0.0991
18435TIP3    H276721   1.077   4.734   2.797 -0.4660  0.1934  1.5411
18436TIP3   OH276722   5.524   6.499  11.411  0.2496  0.0857 -0.2562
18436TIP3    H176723   5.495   6.411  11.435 -0.9995 -0.0598 -2.0852
18436TIP3    H276724   5.582   6.486  11.336  1.3188  0.7371  0.4346
18437TIP3   OH276725   3.098   1.740  11.192 -0.1796  0.3301 -0.3354
18437TIP3    H176726   3.150   1.762  11.269 -0.2028 -0.3424 -0.1143
18437TIP3    H276727   3.159   1.693  11.135 -0.0087  1.3380 -0.9924
18438TIP3   OH276728   2.132   4.607  13.380  0.2551  0.3241  0.2753
18438TIP3    H176729   2.063   4.625  13.316 -0.0584 -0.5379  0.3652
18438TIP3    H276730   2.102   4.649  13.460  0.5766  1.2778 -0.0775
18439TIP3   OH276731   1.129   5.879   6.631  0.2818  0.3947  0.2292
18439TIP3    H176732   1.118   5.816   6.702  1.3005 -1.4509 -1.1552
18439TIP3    H276733   1.185   5.948   6.668 -0.1427  0.0609  1.5358
18440TIP3   OH276734   0.459   3.778  12.204  0.7399 -0.7506 -0.1954
18440TIP3    H176735   0.509   3.730  12.138 -0.4877 -1.9223 -0.3213
18440TIP3    H276736   0.403   3.837  12.153  0.0356 -1.4147 -0.2126
18441TIP3   OH276737   2.750   3.294  14.694 -0.4342  0.5298  0.4267
18441TIP3    H176738   2.796   3.223  14.649 -1.7631  0.0775 -0.2838
18441TIP3    H276739   2.804   3.314  14.771 -0.1252 -1.3691  0.7405
18442TIP3   OH276740   3.547   1.763   2.032  0.6627  0.5428  0.1204
18442TIP3    H176741   3.639   1.738   2.038  0.8209  0.9904 -0.3671
18442TIP3    H276742   3.548   1.859   2.033  0.1118  0.5506  1.3596
18443TIP3   OH276743   2.195   4.708  11.611  0.0348 -0.0319  0.6523
18443TIP3    H176744   2.127   4.676  11.551 -0.5616 -0.0903  1.3387
18443TIP3    H276745   2.250   4.632  11.628 -0.5808 -0.3630  1.2139
18444TIP3   OH276746   3.729   6.006   4.498 -0.1323 -0.6209  0.0981
18444TIP3    H176747   3.693   6.024   4.411 -2.3754  2.2662  1.4389
18444TIP3    H276748   3.694   5.920   4.522  1.2035 -1.8590 -2.0737
18445TIP3   OH276749   2.259   3.971   6.200 -0.0499  0.1102  0.6220
18445TIP3    H176750   2.216   3.891   6.169  1.6822 -0.0065 -1.8000
18445TIP3    H276751   2.279   3.954   6.292  0.1683 -2.2154  0.2041
18446TIP3   OH276752   0.003   2.913  14.714 -0.1090 -0.7055  0.5082
18446TIP3    H176753  -0.007   2.840  14.775 -0.1039 -1.2717 -0.1600
18446TIP3    H276754  -0.007   2.874  14.628 -0.8149  0.2067  0.1613
18447TIP3   OH276755   5.263   4.378  14.896 -0.6970  0.4636  0.2891
18447TIP3    H176756   5.227   4.362  14.809 -1.0561  0.8821  0.3556
18447TIP3    H276757   5.232   4.466  14.919  1.1987  1.2790 -0.0544
18448TIP3   OH276758   3.477   2.554   0.705  0.1016 -0.3768 -0.1447
18448TIP3    H176759   3.430   2.512   0.633 -0.2909  0.1801 -0.2218
18448TIP3    H276760   3.534   2.618   0.662  2.2855 -2.2092 -0.2078
18449TIP3   OH276761   5.722   1.695  15.478 -0.4902  0.4507 -0.4611
18449TIP3    H176762   5.657   1.678  15.411  0.9138  1.9292 -2.3217
18449TIP3    H276763   5.776   1.766  15.442 -1.3092  3.3633  3.3484
18450TIP3   OH276764   0.887   3.855  13.841  0.0204  0.3591  0.2190
18450TIP3    H176765   0.814   3.916  13.838  1.0619  1.6722  0.2965
18450TIP3    H276766   0.888   3.822  13.930 -1.2029 -0.6447 -0.1063
18451TIP3   OH276767   1.776   0.286  16.850 -0.1722 -0.1224  0.3296
18451TIP3    H176768   1.756   0.335  16.929 -0.9133 -0.9569  0.6867
18451TIP3    H276769   1.816   0.205  16.881  0.5182 -0.0055 -0.2174
18452TIP3   OH276770   6.031   1.810  14.222 -0.0423  0.4909  0.1689
18452TIP3    H176771   6.062   1.873  14.287 -3.6014  1.2604  1.3579
18452TIP3    H276772   6.034   1.726  14.268 -0.2681  0.6512  0.4832
18453TIP3   OH276773   2.373   6.322   2.771 -0.0989  0.3329  0.3072
18453TIP3    H176774   2.321   6.328   2.691 -1.0381  1.0417  0.9486
18453TIP3    H276775   2.418   6.407   2.777 -0.7467  0.6503  0.9787
18454TIP3   OH276776   2.496   3.957   3.182  0.1016 -0.4698 -0.1980
18454TIP3    H176777   2.445   3.912   3.249 -1.4248  0.9532 -0.3394
18454TIP3    H276778   2.557   3.891   3.149 -0.7445 -1.8527  0.9171
18455TIP3   OH276779   3.715   1.216  11.035  0.2295 -0.3560  0.0349
18455TIP3    H176780   3.712   1.123  11.013  0.0021 -0.2299 -0.4816
18455TIP3    H276781   3.626   1.248  11.020 -0.2286 -0.4787  2.1789
18456TIP3   OH276782   1.118   5.222  13.434 -0.0854  0.5405 -0.4291
18456TIP3    H176783   1.084   5.136  13.409  3.7249 -2.1722  2.4244
18456TIP3    H276784   1.080   5.238  13.520 -0.7647  1.7898 -0.9404
18457TIP3   OH276785   4.199   5.991   2.393 -0.2237  0.1699  0.3060
18457TIP3    H176786   4.228   5.922   2.454  2.7522 -1.1114 -2.3166
18457TIP3    H276787   4.129   5.950   2.343 -0.8910  0.3237  1.0958
18458TIP3   OH276788   3.707   2.924   0.063 -0.8337  0.7952 -0.1026
18458TIP3    H176789   3.636   2.949   0.123 -0.8254  0.8146 -0.1006
18458TIP3    H276790   3.702   2.829   0.058 -0.9611  0.8072 -0.2266
18459TIP3   OH276791   0.064   1.771   5.520  0.4175 -0.0716 -0.1257
18459TIP3    H176792   0.076   1.865   5.512  2.4381  0.0134  2.4783
18459TIP3    H276793   0.115   1.733   5.448 -0.2576  0.7773 -1.0738
18460TIP3   OH276794   5.380   3.586   6.222  0.7743 -0.3544  0.3782
18460TIP3    H176795   5.471   3.589   6.251  0.8280 -1.4868  0.3456
18460TIP3    H276796   5.329   3.568   6.301  0.5727  0.2121  0.3857
18461TIP3   OH276797   2.991   5.486   3.055  0.2278  0.2197 -0.0495
18461TIP3    H176798   2.935   5.409   3.061  2.2456 -1.2045  3.0942
18461TIP3    H276799   2.934   5.559   3.080 -0.7886 -0.7890  0.6650
18462TIP3   OH276800   5.036   1.667  14.801 -0.4639 -0.3431 -0.0165
18462TIP3    H176801   5.027   1.626  14.715 -1.5574  0.1281 -0.1475
18462TIP3    H276802   5.123   1.707  14.799 -0.8385  0.4736 -1.2766
18463TIP3   OH276803   3.061   5.414  14.650  0.1877  0.1119 -0.2322
18463TIP3    H176804   2.993   5.348  14.654 -1.4766  1.5948 -2.0117
18463TIP3    H276805   3.100   5.414  14.737 -2.0725 -0.8167  0.8433
18464TIP3   OH276806   5.265   6.329   4.029 -0.6549  0.1987  0.0487
18464TIP3    H176807   5.187   6.283   4.059 -0.1552 -0.0841  0.9406
18464TIP3    H276808   5.236   6.378   3.952 -1.4496 -0.7456 -0.2647
18465TIP3   OH276809   3.876   2.726   1.761  0.3143 -0.5103  0.3490
18465TIP3    H176810   3.932   2.663   1.715 -0.2917 -0.8161  0.0117
18465TIP3    H276811   3.908   2.812   1.732  0.9945 -0.6622  0.6300
18466TIP3   OH276812   3.853   5.716   2.072 -0.0538  0.7331 -0.5607
18466TIP3    H176813   3.769   5.736   2.031 -0.3657  1.6783  0.4820
18466TIP3    H276814   3.878   5.631   2.037 -1.6811  0.2119 -0.5077
18467TIP3   OH276815   0.932   5.779   0.590 -0.0499  0.0061 -0.3743
18467TIP3    H176816   0.986   5.849   0.552  1.5979 -0.0881  1.6237
18467TIP3    H276817   0.850   5.822   0.614  0.8338  1.2439  0.5687
18468TIP3   OH276818   2.143   1.328  14.009 -0.3282 -0.2486 -0.2196
18468TIP3    H176819   2.164   1.269  13.937 -3.3057  0.1766 -1.5648
18468TIP3    H276820   2.195   1.407  13.992  1.9636 -1.5149  0.3697
18469TIP3   OH276821   0.639   5.181   3.328  0.2351  0.5186  0.4286
18469TIP3    H176822   0.660   5.088   3.337  1.3810  0.4969 -1.6816
18469TIP3    H276823   0.724   5.226   3.333 -0.4104  1.6324  2.6054
18470TIP3   OH276824   4.637   5.023  15.274  0.3199  0.1579 -0.9396
18470TIP3    H176825   4.663   5.051  15.361 -0.0892 -2.2378  0.0160
18470TIP3    H276826   4.573   4.954  15.288 -1.9561  1.5906 -3.1821
18471TIP3   OH276827   3.745   1.549   5.755 -0.2273 -0.4416  0.1202
18471TIP3    H176828   3.791   1.548   5.839 -0.9828  1.0904  0.5813
18471TIP3    H276829   3.653   1.558   5.778 -0.5330 -0.8411 -0.8672
18472TIP3   OH276830   5.911   1.063  14.410 -0.3355  0.2356 -0.4590
18472TIP3    H176831   5.882   1.102  14.493  0.3523 -1.7333  0.7605
18472TIP3    H276832   5.835   1.014  14.380  0.3815 -1.7377  0.7514
18473TIP3   OH276833   4.413   0.939  16.822 -0.1960 -0.0922 -0.5083
18473TIP3    H176834   4.488   0.985  16.859 -0.2188 -0.2117 -0.3118
18473TIP3    H276835   4.369   0.900  16.897 -0.6671  0.2830 -0.5839
18474TIP3   OH276836   4.490   5.391   5.814  0.0760  0.0816 -0.2583
18474TIP3    H176837   4.511   5.359   5.726  2.6676 -1.1180  0.6872
18474TIP3    H276838   4.553   5.462   5.829  0.6441 -0.6719  1.1049
18475TIP3   OH276839   5.709   5.339   5.963 -0.0660 -0.2194 -0.2584
18475TIP3    H176840   5.786   5.302   5.919  0.4317 -0.6881  0.9583
18475TIP3    H276841   5.644   5.268   5.961  0.3053 -0.6055  0.5966
18476TIP3   OH276842   4.860   4.436   4.918 -0.1717  0.1063  0.0679
18476TIP3    H176843   4.815   4.408   4.839  0.3731  0.3045 -0.3233
18476TIP3    H276844   4.952   4.442   4.892 -0.1176  1.1453  0.4298
18477TIP3   OH276845   2.039   4.081  17.121  0.5361 -0.0419 -0.2184
18477TIP3    H176846   2.010   4.171  17.105 -0.8276 -0.4618 -0.2477
18477TIP3    H276847   1.959   4.029  17.112  1.1562 -1.1627  0.5834
18478TIP3   OH276848   0.443   6.394  13.737 -0.0786  0.5069 -0.3904
18478TIP3    H176849   0.414   6.306  13.760 -4.0080  1.5762 -0.4956
18478TIP3    H276850   0.522   6.408  13.790 -1.5311 -1.6885  2.6882
18479TIP3   OH276851   4.897   0.744   2.428 -0.0125 -0.3811 -0.0400
18479TIP3    H176852   4.989   0.720   2.416 -0.2805 -2.3005  1.1320
18479TIP3    H276853   4.872   0.787   2.347  1.4274 -1.4995 -1.1358
18480TIP3   OH276854   5.622   0.650  11.670 -0.5177  0.1078  0.1904
18480TIP3    H176855   5.672   0.717  11.623 -1.4013  0.9213  0.3851
18480TIP3    H276856   5.639   0.668  11.763  0.4699 -0.9156  0.2439
18481TIP3   OH276857   5.062   1.827   4.774 -0.5241  0.2626  0.2070
18481TIP3    H176858   4.986   1.833   4.717  1.1005 -2.0256 -2.4710
18481TIP3    H276859   5.028   1.788   4.855 -2.0243 -2.4620 -1.5713
18482TIP3   OH276860   5.909   2.005  12.323 -0.5807 -0.8133 -0.5410
18482TIP3    H176861   5.868   2.091  12.330  0.6180 -0.2563  0.0084
18482TIP3    H276862   5.942   1.987  12.411  0.2507 -1.2822 -0.9325
18483TIP3   OH276863   5.551   5.809  13.492 -0.3868  1.0324  0.4220
18483TIP3    H176864   5.635   5.807  13.537  0.3663 -2.9224 -0.6838
18483TIP3    H276865   5.564   5.870  13.420  1.2303  1.2132  0.8256
18484TIP3   OH276866   5.448   1.843   5.375 -0.0634 -0.6480 -0.1522
18484TIP3    H176867   5.494   1.767   5.410  0.6666 -0.5775 -0.9267
18484TIP3    H276868   5.488   1.918   5.420 -1.6610 -0.7509  1.5823
18485TIP3   OH276869   4.882   0.986   4.230  0.2662 -0.2737 -0.4887
18485TIP3    H176870   4.807   1.046   4.231 -0.0055 -0.6110 -0.1232
18485TIP3    H276871   4.898   0.969   4.323  4.2621  4.0608 -0.0098
18486TIP3   OH276872   4.414   2.923  14.300  0.2175 -0.5943  0.1507
18486TIP3    H176873   4.482   2.882  14.353 -0.9667 -0.3047  1.9848
18486TIP3    H276874   4.396   3.007  14.343 -2.3484 -1.3125  0.6647
18487TIP3   OH276875   0.026   3.803  17.237  0.2816 -0.1671 -0.8610
18487TIP3    H176876   0.012   3.708  17.235 -0.7964 -0.0861  0.8107
18487TIP3    H276877  -0.062   3.839  17.242  0.7147  0.7260  2.5707
18488TIP3   OH276878   0.585   2.034  13.772 -0.1223  0.0861 -0.0343
18488TIP3    H176879   0.625   1.953  13.804 -1.2958  0.1095  1.6425
18488TIP3    H276880   0.523   2.006  13.705 -2.5600 -0.8452  2.3974
18489TIP3   OH276881   5.458   3.771   1.428 -0.6964  1.0670 -0.4045
18489TIP3    H176882   5.392   3.773   1.359 -1.4508  0.7489  0.2893
18489TIP3    H276883   5.411   3.741   1.506  0.3780  0.3215 -0.0080
18490TIP3   OH276884   4.167   6.629   1.044 -0.0862  0.1550  0.2739
18490TIP3    H176885   4.235   6.592   0.989 -0.6839 -0.3354 -0.1469
18490TIP3    H276886   4.101   6.661   0.983  0.5603  2.2617  0.5939
18491TIP3   OH276887   2.819   2.049   5.192 -0.2961  0.3524 -0.2511
18491TIP3    H176888   2.748   1.986   5.182  0.1405 -0.0417 -0.8683
18491TIP3    H276889   2.889   2.018   5.135  0.5499  0.5023  0.6658
18492TIP3   OH276890   3.569   4.747  16.467 -0.0263  0.0319  0.4131
18492TIP3    H176891   3.551   4.679  16.401 -0.5216 -0.0786  0.6567
18492TIP3    H276892   3.663   4.742  16.481 -0.1841 -1.3381  1.2047
18493TIP3   OH276893   1.059   1.331  11.482 -0.1145 -0.1108 -0.5918
18493TIP3    H176894   1.063   1.426  11.473 -0.3885 -0.0755 -0.3438
18493TIP3    H276895   0.966   1.312  11.489 -0.0001 -0.2654  0.8260
18494TIP3   OH276896   6.106   1.351  13.666  0.7955 -0.4885 -0.8002
18494TIP3    H176897   6.124   1.270  13.617 -2.0959 -2.9279  1.7076
18494TIP3    H276898   6.117   1.326  13.758 -1.7985  1.4358  0.1577
18495TIP3   OH276899   1.632   3.567  13.089  0.2864  0.0823 -0.0628
18495TIP3    H176900   1.607   3.570  13.182  2.1349 -0.1190  0.4811
18495TIP3    H276901   1.723   3.595  13.088 -0.3030  2.2577 -2.1081
18496TIP3   OH276902   2.216   2.860   0.638  0.0116 -0.2287  0.1914
18496TIP3    H176903   2.269   2.937   0.615 -0.0219  0.7803  3.1194
18496TIP3    H276904   2.137   2.869   0.585  1.0723  0.3392 -1.3894
18497TIP3   OH276905   4.597   1.828   1.909  0.3380 -0.5441 -0.4597
18497TIP3    H176906   4.639   1.808   1.993  0.3581  1.2646  0.0029
18497TIP3    H276907   4.573   1.920   1.916 -0.1468 -0.5017 -2.2555
18498TIP3   OH276908   4.297   6.760   3.610 -0.1624 -0.3579  0.3248
18498TIP3    H176909   4.324   6.848   3.639 -0.8856  0.1472 -0.4782
18498TIP3    H276910   4.202   6.763   3.612 -0.2313 -0.5223 -1.4010
18499TIP3   OH276911   2.152   6.726  16.262 -0.0478 -0.0651 -0.1060
18499TIP3    H176912   2.073   6.702  16.213 -0.1067 -3.4520  1.3455
18499TIP3    H276913   2.134   6.696  16.352  1.9645  1.3646  0.8391
18500TIP3   OH276914   2.501   0.967  12.535 -0.2810  0.0720 -0.1082
18500TIP3    H176915   2.557   0.890  12.529 -0.2441  0.0571  0.3879
18500TIP3    H276916   2.522   1.019  12.457 -1.8485 -1.4366 -1.6049
18501TIP3   OH276917   0.670   1.208   0.394 -0.3247  0.2806 -0.5577
18501TIP3    H176918   0.655   1.285   0.448 -1.0289 -0.8237  0.8968
18501TIP3    H276919   0.585   1.163   0.394  0.6939 -1.7662  0.7351
18502TIP3   OH276920   1.409   5.530   0.847  0.0644  0.0471 -0.3744
18502TIP3    H176921   1.458   5.516   0.928  0.5860 -0.5353 -0.7768
18502TIP3    H276922   1.474   5.517   0.777 -0.6556 -0.7468 -0.9244
18503TIP3   OH276923   6.232   0.471   5.451 -0.0385 -0.3887 -0.0672
18503TIP3    H176924   6.294   0.441   5.516  0.0312 -1.3514 -0.5625
18503TIP3    H276925   6.184   0.542   5.494  2.0241  1.0437 -0.0035
18504TIP3   OH276926   2.112   1.439  17.011  0.1427 -0.4810  0.4711
18504TIP3    H176927   2.100   1.463  16.919 -2.8201 -1.7988  0.3963
18504TIP3    H276928   2.206   1.422  17.019  0.6178  0.4260 -2.0868
18505TIP3   OH276929   5.499   5.906   5.084 -0.0543  0.1157 -0.6311
18505TIP3    H176930   5.518   5.930   4.993 -0.5672  0.4187 -0.6605
18505TIP3    H276931   5.560   5.957   5.136  0.6098 -0.4608 -0.8278
18506TIP3   OH276932   2.367   5.694  16.285  0.9737 -0.7067  0.1463
18506TIP3    H176933   2.279   5.659  16.276  0.4490  0.2188  1.4742
18506TIP3    H276934   2.381   5.746  16.205 -0.2228  0.2769  0.5602
18507TIP3   OH276935   1.644   5.099  12.986  0.1066 -0.6947  0.6371
18507TIP3    H176936   1.673   5.161  12.919  1.0480 -1.1846  0.5689
18507TIP3    H276937   1.585   5.040  12.939 -1.8310  0.8491  0.9759
18508TIP3   OH276938   2.474   1.734  11.249  0.5185 -1.0116  0.2647
18508TIP3    H176939   2.413   1.685  11.194 -0.4885  1.9950 -1.5483
18508TIP3    H276940   2.560   1.721  11.208 -0.3923  2.3531 -3.2665
18509TIP3   OH276941   0.168   0.225   2.134  0.8681  0.6280 -0.2119
18509TIP3    H176942   0.183   0.315   2.106  1.8565  0.4352 -0.3212
18509TIP3    H276943   0.167   0.230   2.230 -0.5618  0.9713 -0.2142
18510TIP3   OH276944   4.382   3.306   2.799 -0.5044  0.1362 -0.1429
18510TIP3    H176945   4.395   3.242   2.729 -0.4291 -1.3919  1.2248
18510TIP3    H276946   4.408   3.260   2.879 -2.4184  1.1660  1.1412
18511TIP3   OH276947   2.869   2.636  14.788 -0.4803 -0.1933  0.4654
18511TIP3    H176948   2.791   2.581  14.785  0.6370 -1.8017 -2.0243
18511TIP3    H276949   2.932   2.591  14.732  1.7586  1.8049  1.2291
18512TIP3   OH276950   2.785   5.720   1.314  0.2949  0.1678 -0.1310
18512TIP3    H176951   2.860   5.669   1.283 -0.6597 -1.3784  0.0302
18512TIP3    H276952   2.780   5.701   1.408 -0.6470 -0.2101 -0.2485
18513TIP3   OH276953   3.596   1.749   4.834 -0.0923 -0.4521 -0.5387
18513TIP3    H176954   3.509   1.783   4.856 -0.2078 -0.5842 -0.8007
18513TIP3    H276955   3.653   1.788   4.901 -0.7755 -2.6131  1.4132
18514TIP3   OH276956   6.720   6.356   1.489  0.0524  0.1250  0.7933
18514TIP3    H176957   6.813   6.334   1.485 -0.1092 -0.6553  1.2738
18514TIP3    H276958   6.713   6.421   1.559  0.4462  1.3556 -0.2620
18515TIP3   OH276959   3.213   6.604   0.314  0.3947  0.2583  0.9044
18515TIP3    H176960   3.226   6.590   0.220 -0.6011 -1.3057  0.9701
18515TIP3    H276961   3.300   6.628   0.346  0.8338  0.4192 -0.3441
18516TIP3   OH276962   3.456   0.788   0.925 -0.0407  0.0628  0.3546
18516TIP3    H176963   3.412   0.730   0.988 -0.1111 -1.0703 -0.6893
18516TIP3    H276964   3.385   0.825   0.873  0.1234 -0.9217 -0.6219
18517TIP3   OH276965   4.468   5.390   6.379  0.3307  0.2456  0.5577
18517TIP3    H176966   4.400   5.348   6.327  1.3748 -1.4137  0.4886
18517TIP3    H276967   4.422   5.459   6.428 -1.6125 -1.4926  1.2971
18518TIP3   OH276968   4.943   0.307   2.399  0.2543  0.6719  0.1073
18518TIP3    H176969   4.900   0.388   2.372 -0.4507  0.7699  1.4127
18518TIP3    H276970   4.900   0.238   2.347 -1.1429  0.8357  0.9915
18519TIP3   OH276971   4.205   3.754   0.022 -0.3800 -0.0262 -0.4310
18519TIP3    H176972   4.265   3.711   0.082 -0.2436 -0.7274 -1.0449
18519TIP3    H276973   4.255   3.827  -0.014 -0.0766 -0.2794 -0.5280
18520TIP3   OH276974   5.390   4.890   5.759  0.3068 -0.1172  0.4068
18520TIP3    H176975   5.300   4.857   5.752  0.9206 -2.2659  1.7415
18520TIP3    H276976   5.416   4.907   5.668 -1.3236  0.2295 -0.0270
18521TIP3   OH276977   3.621   1.083   1.834  0.1130 -0.0938  0.2509
18521TIP3    H176978   3.609   1.091   1.929 -2.9061 -3.3045  0.3145
18521TIP3    H276979   3.551   1.136   1.796 -0.6544 -1.3042 -0.0602
18522TIP3   OH276980   3.901   5.564  10.319 -0.1254  0.1550 -0.0886
18522TIP3    H176981   3.824   5.612  10.350  0.6053  0.8820  0.6616
18522TIP3    H276982   3.906   5.488  10.376 -1.4270 -1.0051 -1.4345
18523TIP3   OH276983   2.708   3.804  12.486  0.1791 -0.0368 -0.2489
18523TIP3    H176984   2.718   3.710  12.471 -1.1691  0.0310 -1.7761
18523TIP3    H276985   2.624   3.812  12.531  0.3419  0.4341 -0.0227
18524TIP3   OH276986   6.533   6.506  10.296 -0.5204 -0.3300 -0.3615
18524TIP3    H176987   6.440   6.501  10.273 -0.3893 -1.5197 -0.6973
18524TIP3    H276988   6.550   6.425  10.344  0.5587 -0.5697 -1.1096
18525TIP3   OH276989   5.852   0.158  11.946 -0.6396 -0.0329  0.3906
18525TIP3    H176990   5.838   0.234  11.890 -1.2930 -0.6155 -0.2681
18525TIP3    H276991   5.769   0.147  11.993 -0.8752 -0.8638 -0.1927
18526TIP3   OH276992   0.493   1.992   3.293 -0.1605  0.3359 -0.1034
18526TIP3    H176993   0.571   1.958   3.248 -1.5239 -1.8262 -0.9392
18526TIP3    H276994   0.486   2.082   3.261  1.3371  0.2193 -0.8854
18527TIP3   OH276995   4.855   6.054  10.268  0.4907 -0.0381  0.2306
18527TIP3    H176996   4.823   6.140  10.292  1.4219  0.3063  0.2991
18527TIP3    H276997   4.825   6.041  10.178 -0.3851 -0.0238  0.5110
18528TIP3   OH276998   1.987   3.282   2.754 -0.6235  0.2004  0.2672
18528TIP3    H176999   1.980   3.277   2.659  1.3582  1.2853 -0.0011
18528TIP3    H277000   2.003   3.375   2.772  0.7826 -0.2335  1.4711
18529TIP3   OH277001   3.552   5.016   3.338  0.0927  0.2428 -0.0233
18529TIP3    H177002   3.617   4.957   3.300 -0.5517  0.1186 -0.9786
18529TIP3    H277003   3.550   5.091   3.278  1.3582  1.5742  1.5014
18530TIP3   OH277004   2.769   6.320   2.757  0.9586  0.4674 -0.3721
18530TIP3    H177005   2.736   6.266   2.829  1.4006  2.5944  1.5399
18530TIP3    H277006   2.714   6.296   2.682 -1.0802 -0.2330  1.2482
18531TIP3   OH277007   5.939   2.559   1.021  0.4641  0.3216 -0.1715
18531TIP3    H177008   6.011   2.530   0.965  0.8994 -0.3117  0.7008
18531TIP3    H277009   5.860   2.537   0.971  0.7931 -1.6450  0.0799
18532TIP3   OH277010   4.114   6.578   2.258  0.5061 -0.8012 -0.4139
18532TIP3    H177011   4.036   6.605   2.209  0.4135 -1.5856 -0.7250
18532TIP3    H277012   4.162   6.521   2.197  0.2300 -2.0491  0.4867
18533TIP3   OH277013   4.617   6.630  12.833 -0.0663  0.1891 -0.0154
18533TIP3    H177014   4.659   6.621  12.919  1.2602  0.9065 -0.5665
18533TIP3    H277015   4.685   6.606  12.770 -0.8031  0.3624 -0.8949
18534TIP3   OH277016   4.715   5.935   2.197 -0.3092 -0.2252 -0.0516
18534TIP3    H177017   4.799   5.918   2.239  0.0793  0.8874 -0.3520
18534TIP3    H277018   4.707   6.031   2.196  0.7247  0.0444 -4.4241
18535TIP3   OH277019   0.363   3.531  11.166 -0.0976 -0.0763  0.0724
18535TIP3    H177020   0.321   3.507  11.083 -2.4663 -2.8157  1.8762
18535TIP3    H277021   0.443   3.479  11.168 -0.9883 -1.5177  0.2374
18536TIP3   OH277022   0.894   5.429   5.268  0.1286  0.3193 -0.2941
18536TIP3    H177023   0.925   5.390   5.187  0.3896 -0.0785 -0.0050
18536TIP3    H277024   0.972   5.469   5.307 -0.0884  0.9112 -0.4675
18537TIP3   OH277025   4.766   1.408   2.125 -0.3626 -0.1116 -0.4644
18537TIP3    H177026   4.776   1.335   2.186 -0.5673  0.7843  0.6888
18537TIP3    H277027   4.694   1.383   2.068  0.4484 -1.3796 -0.9788
18538TIP3   OH277028   5.988   3.854   2.239 -0.2203  0.3908 -0.5565
18538TIP3    H177029   6.031   3.934   2.271  0.6893  0.4804 -1.8962
18538TIP3    H277030   5.899   3.881   2.219  0.1572  1.1740 -1.2616
18539TIP3   OH277031   2.296   0.109  15.393  0.3028 -0.2319 -0.3927
18539TIP3    H177032   2.297   0.201  15.366  1.7501  0.4772  1.8911
18539TIP3    H277033   2.284   0.111  15.488  0.7155 -2.4008 -0.2379
18540TIP3   OH277034   1.770   6.448   1.042  0.0831 -0.3761 -0.0188
18540TIP3    H177035   1.786   6.464   0.949  0.0480  1.3020  0.2327
18540TIP3    H277036   1.674   6.446   1.050  0.0330  1.4593  0.2441
18541TIP3   OH277037   5.520   5.033  10.878 -0.3635  0.2692 -0.4323
18541TIP3    H177038   5.437   5.052  10.921 -0.7445 -4.2257  1.4592
18541TIP3    H277039   5.585   5.034  10.948  0.4050 -0.1309 -1.1093
18542TIP3   OH277040   2.858   6.295  16.319  0.4205  0.2070 -0.1138
18542TIP3    H177041   2.793   6.309  16.387 -1.4662  0.3779 -1.8705
18542TIP3    H277042   2.856   6.200  16.303 -0.7654  0.4271 -1.4170
18543TIP3   OH277043   5.353   3.940   6.362  0.5245  0.1700  0.9296
18543TIP3    H177044   5.323   3.876   6.426 -0.0063  0.5981  1.1133
18543TIP3    H277045   5.307   4.021   6.384  0.4441  0.3647  0.1004
18544TIP3   OH277046   0.515   5.416   3.751  0.1641 -0.1986  0.4683
18544TIP3    H177047   0.569   5.485   3.791  0.5880  0.3755 -1.0248
18544TIP3    H277048   0.551   5.334   3.785  0.2991  0.2647  1.4901
18545TIP3   OH277049   2.127   2.274   5.575  0.2215 -0.3746  0.0718
18545TIP3    H177050   2.096   2.351   5.527 -0.5473 -0.4399  0.4482
18545TIP3    H277051   2.199   2.307   5.629 -0.1329  0.1059  0.2677
18546TIP3   OH277052   5.608   3.267  11.011 -0.1528  0.2966  0.5740
18546TIP3    H177053   5.655   3.267  11.094 -0.7129  1.5688  0.9153
18546TIP3    H277054   5.631   3.350  10.970  0.7762 -0.6658 -0.9456
18547TIP3   OH277055   4.755   1.507  11.778  0.0458  0.3815 -0.3358
18547TIP3    H177056   4.850   1.502  11.780  0.1654  2.2837  0.5886
18547TIP3    H277057   4.734   1.526  11.686  0.6124  0.7180 -0.3983
18548TIP3   OH277058   0.707   3.541  15.152 -0.2447  0.2376 -0.4284
18548TIP3    H177059   0.760   3.606  15.106  3.6889  0.2313  3.4758
18548TIP3    H277060   0.662   3.591  15.220 -1.3187 -0.5019 -0.5745
18549TIP3   OH277061   3.111   2.535  11.737 -0.6581  0.0259  0.1512
18549TIP3    H177062   3.152   2.605  11.788 -0.0374  0.0346 -0.3527
18549TIP3    H277063   3.160   2.532  11.655 -0.0971 -1.5660  0.5015
18550TIP3   OH277064   4.240   1.732  14.127  0.4744  0.4275  0.5481
18550TIP3    H177065   4.335   1.730  14.138  0.3672  0.7284  1.6975
18550TIP3    H277066   4.226   1.785  14.049  1.2084  1.5633  1.1662
18551TIP3   OH277067   0.870   4.594   3.805  0.3370  0.6810 -1.0988
18551TIP3    H177068   0.787   4.556   3.833  0.0087  0.0313 -2.8070
18551TIP3    H277069   0.915   4.616   3.887 -1.1237  0.2212 -0.1237
18552TIP3   OH277070   0.132   0.740  16.961 -0.5676 -0.2936  0.5216
18552TIP3    H177071   0.067   0.677  16.930 -0.1490  0.2716 -1.6452
18552TIP3    H277072   0.175   0.696  17.035 -0.2046 -2.6471 -0.9915
18553TIP3   OH277073   3.735   0.789   2.106 -0.2079 -0.0596  0.3979
18553TIP3    H177074   3.684   0.709   2.120 -1.6874  1.0762  1.9108
18553TIP3    H277075   3.761   0.784   2.014  1.4734 -3.1982  0.8998
18554TIP3   OH277076   0.091   4.560   4.521  0.0098 -0.3127 -0.2936
18554TIP3    H177077   0.067   4.505   4.446 -0.5536 -1.2051  0.5205
18554TIP3    H277078   0.028   4.537   4.589 -1.8926  3.0878 -0.6452
18555TIP3   OH277079   1.898   3.383   3.006  0.1959 -0.4124 -0.6937
18555TIP3    H177080   1.962   3.354   2.941  0.7878  0.6948 -0.6214
18555TIP3    H277081   1.840   3.441   2.957  0.2596 -0.0823 -0.3753
18556TIP3   OH277082   2.811   6.335   4.685 -0.9560 -0.3231  0.6296
18556TIP3    H177083   2.850   6.393   4.620  0.0089  0.3049  1.7272
18556TIP3    H277084   2.737   6.383   4.720 -0.8051 -0.1951  0.7752
18557TIP3   OH277085   0.786   1.752   1.164  0.4934  0.0398  0.6731
18557TIP3    H177086   0.861   1.768   1.106  0.9483 -2.6592  0.4148
18557TIP3    H277087   0.818   1.687   1.227 -2.4289 -3.8582 -1.4221
18558TIP3   OH277088   5.724   1.751  13.849 -0.0947 -0.1046  0.3742
18558TIP3    H177089   5.771   1.677  13.810  1.6715  0.2805  1.6359
18558TIP3    H277090   5.733   1.738  13.944  1.4422  2.3348  0.6714
18559TIP3   OH277091   1.042   0.816  13.730 -0.0166  1.0364  0.0748
18559TIP3    H177092   1.134   0.806  13.755  0.2846  1.1998 -0.9433
18559TIP3    H277093   0.995   0.759  13.791  0.9847 -1.0106 -0.9496
18560TIP3   OH277094   2.405   2.092   1.668 -0.1103  0.0099 -0.8691
18560TIP3    H177095   2.366   2.018   1.620 -0.7983 -1.9761  2.4081
18560TIP3    H277096   2.499   2.086   1.649 -0.2857 -1.0784 -1.4844
18561TIP3   OH277097   1.553   2.437   4.158 -0.0801  0.4985  0.0408
18561TIP3    H177098   1.462   2.451   4.185 -0.8858 -0.4396 -1.9764
18561TIP3    H277099   1.563   2.342   4.157  0.6070  0.5717 -0.7093
18562TIP3   OH277100   4.460   1.923   0.645 -0.3773  0.1656  0.8033
18562TIP3    H177101   4.367   1.910   0.626  0.2881 -1.9733 -1.5705
18562TIP3    H277102   4.495   1.968   0.567  1.1761 -2.4978 -0.1937
18563TIP3   OH277103   1.090   5.567   6.131 -0.0311 -0.3530 -0.6111
18563TIP3    H177104   1.015   5.543   6.076  0.9272 -1.9667 -1.2781
18563TIP3    H277105   1.087   5.505   6.204  0.3247 -0.0345 -0.3212
18564TIP3   OH277106   2.231   5.291   3.817 -0.3185 -0.5479  0.1055
18564TIP3    H177107   2.152   5.236   3.812  0.8041 -2.2542  0.0122
18564TIP3    H277108   2.227   5.347   3.740 -1.2640 -0.8574 -0.0783
18565TIP3   OH277109   0.053   3.201  12.008 -0.4154 -0.5002 -0.4283
18565TIP3    H177110   0.080   3.261  11.938  1.6804 -0.4159  0.3897
18565TIP3    H277111   0.029   3.120  11.962 -0.6901  0.0941 -1.3516
18566TIP3   OH277112   1.274   0.560  15.165 -0.3543  0.4257  0.1181
18566TIP3    H177113   1.348   0.500  15.175 -0.3562  0.1796 -1.1507
18566TIP3    H277114   1.202   0.505  15.135 -0.4231  0.9966 -0.8359
18567TIP3   OH277115   6.082   5.473   0.140 -0.1614 -0.1498  1.2224
18567TIP3    H177116   6.021   5.410   0.102 -1.3244  0.9360  1.2326
18567TIP3    H277117   6.066   5.554   0.091  1.8304 -0.0212  0.6972
18568TIP3   OH277118   2.433   0.917  15.839 -0.0948 -0.3543 -0.4164
18568TIP3    H177119   2.420   0.870  15.922 -0.4063 -1.5195 -1.1037
18568TIP3    H277120   2.460   1.005  15.866  1.3003 -1.1287  0.9235
18569TIP3   OH277121   6.624   1.589   5.387  0.2724  0.4661 -0.3185
18569TIP3    H177122   6.594   1.674   5.419  1.4355  0.8547 -0.2341
18569TIP3    H277123   6.678   1.609   5.311  0.5874 -0.1939 -0.2766
18570TIP3   OH277124   4.370   5.405   3.908 -0.1782  0.2561  0.5545
18570TIP3    H177125   4.304   5.343   3.879 -0.5389  1.9539 -2.6385
18570TIP3    H277126   4.321   5.473   3.954 -0.1603 -0.2678  1.3656
18571TIP3   OH277127   3.388   0.861   5.524  0.5688  0.2107  0.9916
18571TIP3    H177128   3.313   0.897   5.572  0.5778  1.2310  0.2805
18571TIP3    H277129   3.425   0.796   5.583 -1.2998 -0.8532  1.0794
18572TIP3   OH277130   5.623   6.118   5.237 -0.0388  0.1365 -0.2260
18572TIP3    H177131   5.654   6.163   5.159  0.3488  1.1212  0.4788
18572TIP3    H277132   5.702   6.081   5.277 -0.4021 -1.6803 -1.0737
18573TIP3   OH277133   4.787   5.994  16.303 -0.4924 -0.0645  0.0292
18573TIP3    H177134   4.813   5.919  16.250 -1.1405 -0.6021  0.4488
18573TIP3    H277135   4.693   6.003  16.288 -0.3813  0.8460 -0.2310
18574TIP3   OH277136   4.936   6.712   5.031 -0.1019 -0.0194 -0.0959
18574TIP3    H177137   4.973   6.656   4.963 -0.9245 -0.3324 -0.3014
18574TIP3    H277138   4.851   6.739   4.996  0.9122  2.6774 -0.6986
18575TIP3   OH277139   5.698   4.886   3.675 -0.0854  0.2432 -0.0167
18575TIP3    H177140   5.649   4.814   3.636 -0.1002  0.3639 -0.2229
18575TIP3    H277141   5.642   4.962   3.664  0.3824  0.4959 -0.7710
18576TIP3   OH277142   2.374   3.148  17.153  0.3491  0.6442 -0.3119
18576TIP3    H177143   2.422   3.192  17.084  0.6477 -0.5076 -0.8653
18576TIP3    H277144   2.417   3.175  17.234  1.7985 -0.1528 -0.7746
18577TIP3   OH277145   1.112   4.678   5.390  0.3296  0.5789  0.4028
18577TIP3    H177146   1.095   4.691   5.483 -0.4230 -1.3815  0.5810
18577TIP3    H277147   1.111   4.583   5.378  0.0170  0.7909 -1.6753
18578TIP3   OH277148   6.636   1.096   3.094  0.4469  0.2936  0.6509
18578TIP3    H177149   6.567   1.031   3.107 -0.3600  1.0447  0.2244
18578TIP3    H277150   6.661   1.122   3.182 -0.1256  0.3277  0.8077
18579TIP3   OH277151   1.690   5.826   3.677  0.2212  0.0668  0.2958
18579TIP3    H177152   1.720   5.868   3.758  0.5507  0.9245 -0.2543
18579TIP3    H277153   1.756   5.851   3.612 -0.7041  0.4294 -0.5188
18580TIP3   OH277154   1.556   5.173  16.769  0.2698  0.2622  0.4142
18580TIP3    H177155   1.578   5.232  16.697 -0.0351 -1.2370 -0.9663
18580TIP3    H277156   1.614   5.098  16.758  0.3842  0.1034  1.8989
18581TIP3   OH277157   1.636   0.871  15.909 -0.5222 -0.1687 -0.4065
18581TIP3    H177158   1.682   0.791  15.935 -1.3285 -0.9332 -1.2888
18581TIP3    H277159   1.623   0.918  15.991 -0.6822 -1.2813  0.2289
18582TIP3   OH277160   3.067   1.702  14.726 -0.4102 -0.0300 -0.3427
18582TIP3    H177161   3.090   1.700  14.819 -1.7132 -0.3203 -0.0067
18582TIP3    H277162   3.113   1.627  14.689  0.4379  0.3174 -0.0146
18583TIP3   OH277163   3.709   0.492  15.015  0.0691  0.7060 -0.0866
18583TIP3    H177164   3.670   0.424  15.068  0.3294  1.2516  0.8318
18583TIP3    H277165   3.737   0.559  15.078  0.6485  1.2388 -0.8808
18584TIP3   OH277166   4.760   3.727   6.270  1.0067  0.3961 -0.0841
18584TIP3    H177167   4.732   3.751   6.181  0.1095  0.4105  0.1852
18584TIP3    H277168   4.697   3.660   6.297  0.2649  1.5463  1.1492
18585TIP3   OH277169   4.441   4.425  15.046  0.0014  0.6719 -0.5208
18585TIP3    H177170   4.447   4.364  15.119  0.2893  1.3921  0.0694
18585TIP3    H277171   4.517   4.404  14.991 -0.1140  0.2493 -0.5202
18586TIP3   OH277172   0.510   3.492  13.008  0.9596  0.1103  0.6081
18586TIP3    H177173   0.448   3.508  13.079 -0.5695 -0.0418 -0.6310
18586TIP3    H277174   0.487   3.558  12.942 -1.4017 -3.0637 -2.0469
18587TIP3   OH277175   4.524   2.435   3.213  0.9770  0.1664 -0.0430
18587TIP3    H177176   4.452   2.486   3.249  0.2325 -0.3714 -0.7545
18587TIP3    H277177   4.601   2.491   3.224  1.0398 -0.4042  3.4589
18588TIP3   OH277178   2.899   0.868  14.899 -0.2823  0.0956 -0.8935
18588TIP3    H177179   2.882   0.955  14.935  0.1511 -0.6086  1.1340
18588TIP3    H277180   2.813   0.827  14.894 -0.4297  0.4552 -1.3654
18589TIP3   OH277181   3.780   3.747  14.127  0.9339  0.1398  0.2138
18589TIP3    H177182   3.781   3.819  14.063 -0.5108  1.4885  1.6237
18589TIP3    H277183   3.866   3.753  14.170  0.9390  0.8655  0.1234
18590TIP3   OH277184   4.254   1.744   3.754 -0.7599  0.0815  0.2093
18590TIP3    H177185   4.201   1.685   3.807 -1.1742  1.7062  1.6789
18590TIP3    H277186   4.294   1.687   3.688 -1.1704 -1.8202  1.5233
18591TIP3   OH277187   0.111   2.896   2.004  0.5912 -0.4406 -0.2796
18591TIP3    H177188   0.128   2.808   2.038  0.5192  0.0123  0.9835
18591TIP3    H277189   0.098   2.883   1.910  0.4523 -1.8001 -0.0984
18592TIP3   OH277190   4.611   3.955   0.189  0.1387 -0.4475  0.1938
18592TIP3    H177191   4.658   4.038   0.189 -1.5263  0.5509  0.2465
18592TIP3    H277192   4.544   3.964   0.257  0.0196 -1.9049  0.3163
18593TIP3   OH277193   1.901   0.264  17.185 -0.0339 -0.1483  0.2406
18593TIP3    H177194   1.850   0.185  17.164  0.8656 -0.3073 -1.4999
18593TIP3    H277195   1.909   0.263  17.281 -1.2246 -1.4070  0.3538
18594TIP3   OH277196   3.152   2.752   0.464 -0.0732  0.1045  0.6998
18594TIP3    H177197   3.088   2.821   0.483 -0.0959  0.3622 -0.2777
18594TIP3    H277198   3.106   2.693   0.405  0.7947  0.6464 -0.5571
18595TIP3   OH277199   2.244   5.900  13.300  0.1727  0.0222  0.0869
18595TIP3    H177200   2.241   5.995  13.314 -1.8930  0.2650 -1.5527
18595TIP3    H277201   2.182   5.864  13.364 -2.3227  0.2725 -2.0320
18596TIP3   OH277202   0.197   1.902  12.743 -0.0847 -0.0343 -0.0203
18596TIP3    H177203   0.201   1.885  12.649 -0.6243 -0.1840 -0.0155
18596TIP3    H277204   0.163   1.822  12.781 -0.4163  0.2289  0.2442
18597TIP3   OH277205   2.491   3.789  14.397 -0.4257 -0.2290 -0.1353
18597TIP3    H177206   2.518   3.730  14.327 -1.1818  0.4525 -1.0301
18597TIP3    H277207   2.411   3.749  14.433  0.4929 -1.0838  1.0130
18598TIP3   OH277208   4.129   5.119  14.351  0.2915 -0.2750  0.2583
18598TIP3    H177209   4.087   5.034  14.339 -0.2439 -0.0403  0.3999
18598TIP3    H277210   4.091   5.174  14.282  0.5749 -0.1304  0.2162
18599TIP3   OH277211   6.344   1.037   0.095  0.2365  0.3709  0.2715
18599TIP3    H177212   6.314   1.110   0.149 -2.0839 -0.2902 -0.0309
18599TIP3    H277213   6.407   1.076   0.034  1.6746  1.4316  2.2996
18600TIP3   OH277214   2.792   4.662   2.094  0.4202  0.4457 -0.1528
18600TIP3    H177215   2.724   4.651   2.028 -0.0157 -1.2981  0.5229
18600TIP3    H277216   2.792   4.755   2.114 -0.2088  0.8354 -1.7724
18601TIP3   OH277217   1.437   1.023  13.426 -0.0918  0.0605 -0.0504
18601TIP3    H177218   1.355   1.059  13.390 -0.4802 -0.3231  0.4396
18601TIP3    H277219   1.493   1.099  13.437  0.1519  0.1781 -1.7240
18602TIP3   OH277220   5.874   3.939   0.833 -0.0047  0.3671  0.2034
18602TIP3    H177221   5.913   3.854   0.816  0.3972  0.5643  0.1331
18602TIP3    H277222   5.796   3.941   0.777  1.6683  1.2842 -2.2490
18603TIP3   OH277223   4.262   1.324  11.071  0.3009 -0.4419 -0.2343
18603TIP3    H177224   4.315   1.400  11.047 -0.1350 -0.3448 -0.9093
18603TIP3    H277225   4.211   1.304  10.993 -0.0996 -1.0078  0.1604
18604TIP3   OH277226   2.777   1.090  16.633  0.4198  0.3624 -0.6627
18604TIP3    H177227   2.825   1.072  16.553  1.7641  0.7593  0.0273
18604TIP3    H277228   2.802   1.018  16.692  1.8612  1.6715  0.4045
18605TIP3   OH277229   5.507   2.922  14.418  0.9239 -0.0808 -0.7763
18605TIP3    H177230   5.561   2.968  14.483  2.8528 -1.7580 -1.1186
18605TIP3    H277231   5.486   2.839  14.460 -1.1600  0.3692 -0.8150
18606TIP3   OH277232   3.306   6.043  12.933 -0.0733  0.2469  0.1176
18606TIP3    H177233   3.256   6.124  12.944 -2.1626 -0.8943 -0.4059
18606TIP3    H277234   3.266   5.981  12.994 -0.5728 -1.2354 -1.6033
18607TIP3   OH277235   2.824   6.121   1.748 -0.1860 -0.1986 -0.0653
18607TIP3    H177236   2.889   6.051   1.757  1.5916  1.3141 -0.5755
18607TIP3    H277237   2.827   6.144   1.655  1.7457  2.7243  0.5803
18608TIP3   OH277238   0.134   5.367   4.224  0.1612  0.0529 -0.3975
18608TIP3    H177239   0.040   5.348   4.228  0.0291  0.7115 -0.1156
18608TIP3    H277240   0.175   5.302   4.281 -0.2974  0.7716  0.7763
18609TIP3   OH277241   4.783   2.786  14.231 -0.3853  0.0203 -0.1204
18609TIP3    H177242   4.703   2.819  14.191 -0.3928  0.7045  0.4462
18609TIP3    H277243   4.852   2.843  14.196  0.1142 -1.5469 -1.8702
18610TIP3   OH277244   3.685   2.109   3.856  0.0316  0.0300  0.2063
18610TIP3    H177245   3.651   2.020   3.852 -1.8157  0.7188 -0.3054
18610TIP3    H277246   3.768   2.101   3.903 -0.2410 -1.9033  0.4306
18611TIP3   OH277247   3.038   6.314  12.307 -0.1317  0.5734  0.1705
18611TIP3    H177248   3.127   6.298  12.275 -0.3866  0.0543 -0.2878
18611TIP3    H277249   3.043   6.297  12.401  0.5022  1.6152  0.3454
18612TIP3   OH277250   6.069   3.948  12.237  0.4345  0.7498  0.5737
18612TIP3    H177251   6.016   3.993  12.172  0.0198 -0.8012 -0.2097
18612TIP3    H277252   6.054   3.855  12.221  2.1012  0.2810  1.4157
18613TIP3   OH277253   1.581   1.856  11.405 -0.0111  0.1512  0.1338
18613TIP3    H177254   1.569   1.803  11.326  0.1531  0.0136  0.2010
18613TIP3    H277255   1.671   1.837  11.432 -0.1797 -0.0567  0.5438
18614TIP3   OH277256   4.065   1.060  10.768  0.2014  0.0043  0.5521
18614TIP3    H177257   4.081   1.150  10.797  0.3792  0.7105 -1.5555
18614TIP3    H277258   3.970   1.055  10.758 -0.1017 -0.9335  3.1808
18615TIP3   OH277259   0.332   3.221   1.252 -0.7486  0.0917 -0.1100
18615TIP3    H177260   0.426   3.232   1.266 -0.1814  0.9105 -3.6466
18615TIP3    H277261   0.316   3.129   1.271  0.6940 -0.0351  0.7124
18616TIP3   OH277262   1.525   1.537   6.340  0.3652 -0.4731  0.1175
18616TIP3    H177263   1.548   1.533   6.247 -1.4596 -0.9942 -0.3673
18616TIP3    H277264   1.454   1.601   6.344  0.6830 -0.1764  1.2196
18617TIP3   OH277265   2.197   5.511   2.236  0.0187  0.1587  0.0423
18617TIP3    H177266   2.221   5.593   2.279  2.2258 -0.6225  0.4655
18617TIP3    H277267   2.201   5.532   2.142  0.6696  0.5291  0.1437
18618TIP3   OH277268   0.549   5.969  14.962 -0.2228 -0.4660 -0.2507
18618TIP3    H177269   0.458   5.965  14.991  0.0663 -0.1475  0.7355
18618TIP3    H277270   0.591   5.893  15.003 -0.1893 -1.0093 -1.2640
18619TIP3   OH277271   0.347   3.698  15.064 -0.8854  0.9200  0.3242
18619TIP3    H177272   0.359   3.633  15.133 -1.7720  0.5699  0.1657
18619TIP3    H277273   0.412   3.675  14.997 -0.6352  0.7074  0.6392
18620TIP3   OH277274   2.738   3.481   2.963  0.0333  0.3738 -0.1652
18620TIP3    H177275   2.803   3.550   2.977  1.1007 -0.4985 -0.7383
18620TIP3    H277276   2.775   3.426   2.895 -0.2339 -1.4615  1.1077
18621TIP3   OH277277   6.723   4.964  12.749 -0.0108  0.0241  0.9929
18621TIP3    H177278   6.786   5.035  12.742 -0.5594  0.4125 -0.6471
18621TIP3    H277279   6.775   4.885  12.765  0.7597  0.5408  1.0370
18622TIP3   OH277280   3.283   0.198  15.768 -0.2561  0.6930  0.3178
18622TIP3    H177281   3.234   0.270  15.806 -1.9548 -1.4297  2.5006
18622TIP3    H277282   3.237   0.177  15.687 -1.5447  0.2944  1.1230
18623TIP3   OH277283   6.583   0.411   3.764  0.2009 -0.3354 -0.1269
18623TIP3    H177284   6.526   0.371   3.699  0.7018 -2.4226  0.6414
18623TIP3    H277285   6.535   0.488   3.794 -1.5158 -1.1860 -0.5942
18624TIP3   OH277286   4.833   1.038  16.406  0.2961 -0.3108 -0.0746
18624TIP3    H177287   4.795   0.973  16.466 -0.2308 -0.5896 -0.6960
18624TIP3    H277288   4.775   1.037  16.330 -0.0777  1.3272  0.1428
18625TIP3   OH277289   0.624   6.078  14.024  0.2233 -1.0718 -0.8609
18625TIP3    H177290   0.712   6.115  14.015 -0.4310  0.3096 -2.2227
18625TIP3    H277291   0.638   5.984  14.034  1.8411 -1.1685 -3.1240
18626TIP3   OH277292   5.457   6.097   1.315  0.1160 -0.3837  0.5547
18626TIP3    H177293   5.370   6.058   1.321 -0.0637 -0.3127 -1.2846
18626TIP3    H277294   5.516   6.029   1.349 -0.3505 -1.7015 -1.1434
18627TIP3   OH277295   5.155   4.124   1.092 -0.3475  0.6064  0.3537
18627TIP3    H177296   5.064   4.141   1.115 -0.6486 -0.0708 -0.2997
18627TIP3    H277297   5.156   4.033   1.062  0.7005  0.3366  1.1205
18628TIP3   OH277298   0.689   3.054   1.802 -0.1342 -0.5681 -0.4784
18628TIP3    H177299   0.761   3.012   1.850  0.0931 -0.2086 -0.5057
18628TIP3    H277300   0.717   3.144   1.789 -0.6672 -0.3751 -0.3376
18629TIP3   OH277301   5.385   5.454   4.876 -0.7459 -0.0518  0.4460
18629TIP3    H177302   5.297   5.456   4.915  0.1160  1.2528  2.4906
18629TIP3    H277303   5.431   5.385   4.923 -0.3517 -0.0157  0.1219
18630TIP3   OH277304   3.511   2.807  15.177  0.8937 -0.3918  0.4651
18630TIP3    H177305   3.455   2.864  15.125  2.4856  2.5060  1.7181
18630TIP3    H277306   3.569   2.766  15.112 -1.0860 -1.6879 -0.5909
18631TIP3   OH277307   2.619   4.088  13.608  0.2998  0.3388 -0.4370
18631TIP3    H177308   2.701   4.084  13.558 -0.7718  0.3051 -2.3118
18631TIP3    H277309   2.598   4.181  13.614  0.2028  0.3181 -0.4447
18632TIP3   OH277310   6.183   2.232   2.135 -0.3347 -0.0786  0.0640
18632TIP3    H177311   6.133   2.210   2.213  0.0477 -2.9555 -0.3931
18632TIP3    H277312   6.137   2.189   2.064  0.3729  0.9227 -1.0396
18633TIP3   OH277313   2.670   0.581  16.297  0.0745 -0.0798 -0.4496
18633TIP3    H177314   2.751   0.605  16.252  2.3633 -1.4365  2.5198
18633TIP3    H277315   2.634   0.510  16.244  0.5747  0.7983 -2.0425
18634TIP3   OH277316   5.169   5.703   2.034 -0.3340  0.1149  0.9609
18634TIP3    H177317   5.134   5.792   2.045 -2.2327 -0.1281 -1.9857
18634TIP3    H277318   5.212   5.705   1.948  0.2739 -1.6314  1.1948
18635TIP3   OH277319   6.119   2.970   2.318  0.2190  0.4925 -0.6598
18635TIP3    H177320   6.116   2.907   2.247 -0.3980  1.0205 -1.1078
18635TIP3    H277321   6.206   3.009   2.312  0.2249  0.4231 -1.0244
18636TIP3   OH277322   2.033   0.301   0.195  0.8376  0.1428 -0.1377
18636TIP3    H177323   2.036   0.379   0.249  0.5384  0.1222 -0.0936
18636TIP3    H277324   2.119   0.298   0.152  0.1444  1.6174 -1.7290
18637TIP3   OH277325   3.434   1.342  11.651  0.3052 -0.1763  0.5676
18637TIP3    H177326   3.522   1.379  11.637  0.0844 -0.6776 -3.0950
18637TIP3    H277327   3.439   1.254  11.615 -1.4902 -0.5282  1.1068
18638TIP3   OH277328   1.828   4.001   3.408  0.1016 -0.2843  0.6177
18638TIP3    H177329   1.747   3.954   3.391  0.1579  0.0026 -0.4765
18638TIP3    H277330   1.842   4.055   3.331  2.5613 -2.0717 -0.3579
18639TIP3   OH277331   4.606   4.086  13.450  0.4176 -0.1117 -0.1791
18639TIP3    H177332   4.562   4.116  13.370  0.1543 -2.4183 -0.9745
18639TIP3    H277333   4.698   4.104  13.435  0.5864 -1.9116 -1.7730
18640TIP3   OH277334   6.143   6.231   0.293  0.1605 -0.4209 -0.1493
18640TIP3    H177335   6.137   6.293   0.220  0.7936  0.3265  0.4187
18640TIP3    H277336   6.135   6.285   0.371  3.1357 -0.6616  0.4450
18641TIP3   OH277337   6.752   0.157  11.840  0.0528  0.4513 -0.7568
18641TIP3    H177338   6.757   0.191  11.751  3.1650  2.9465  0.1821
18641TIP3    H277339   6.778   0.230  11.896 -0.3697 -1.4122  2.1167
18642TIP3   OH277340   4.385   3.319   6.426  0.3148  0.4683 -0.2744
18642TIP3    H177341   4.357   3.410   6.433  0.5113  0.4357  1.3399
18642TIP3    H277342   4.317   3.269   6.472  1.5238  0.1049  1.1979
18643TIP3   OH277343   5.136   6.211  10.588  0.3181  0.0765  0.2760
18643TIP3    H177344   5.115   6.267  10.513  1.5757 -0.2707 -0.3638
18643TIP3    H277345   5.051   6.183  10.622 -0.2821  0.8755 -0.5361
18644TIP3   OH277346   5.207   0.187   3.006 -0.3210  0.0866 -0.2203
18644TIP3    H177347   5.269   0.117   3.023 -0.2331  0.3634  0.6360
18644TIP3    H277348   5.130   0.143   2.969 -0.9845 -0.7186  1.9870
18645TIP3   OH277349   3.006   2.008  16.168  0.2899 -0.0564 -0.5540
18645TIP3    H177350   2.954   1.955  16.107  0.5443 -0.4971 -0.3902
18645TIP3    H277351   2.962   2.093  16.169 -1.1675 -0.7655  0.5008
18646TIP3   OH277352   1.552   1.873  17.145 -0.3318 -0.3292 -0.5547
18646TIP3    H177353   1.506   1.936  17.090  0.0701 -0.9392 -1.6209
18646TIP3    H277354   1.617   1.833  17.087 -1.4868 -2.7198 -0.3259
18647TIP3   OH277355   0.191   1.364  12.454 -0.0759 -0.5399  0.3337
18647TIP3    H177356   0.229   1.277  12.440  2.6994  0.7075 -0.4702
18647TIP3    H277357   0.227   1.418  12.384  1.5408  2.1798  3.0228
18648TIP3   OH277358   0.116   0.959   3.104 -0.3145  0.1642 -0.2843
18648TIP3    H177359   0.117   1.048   3.141 -1.4942  0.0913 -0.0312
18648TIP3    H277360   0.024   0.944   3.081 -0.3924 -1.5230  0.9920
18649TIP3   OH277361   5.828   0.117  12.351 -0.5961  0.6814  0.4686
18649TIP3    H177362   5.861   0.032  12.379 -1.2324  0.2719 -0.0111
18649TIP3    H277363   5.862   0.178  12.416 -2.1715 -0.2583  2.2696
18650TIP3   OH277364   1.403   5.393   1.644  0.2695 -0.3781  0.1848
18650TIP3    H177365   1.346   5.382   1.567  0.5582 -0.5030 -0.0120
18650TIP3    H277366   1.492   5.386   1.609  0.3976 -1.7554  0.7091
18651TIP3   OH277367   4.978   4.122   3.182 -0.1746  0.2814 -0.1260
18651TIP3    H177368   4.916   4.127   3.109  0.2520 -1.2186 -0.6304
18651TIP3    H277369   4.935   4.170   3.253 -2.7620 -2.0608  0.0806
18652TIP3   OH277370   1.848   1.911   1.159 -0.5622  0.8051  0.0474
18652TIP3    H177371   1.758   1.895   1.188 -1.1479 -0.4244 -2.2154
18652TIP3    H277372   1.839   1.971   1.086  0.5357  1.1625  0.1876
18653TIP3   OH277373   2.334   0.063  14.444 -0.1832  0.3474 -0.1304
18653TIP3    H177374   2.339   0.125  14.371 -1.1682 -0.1216 -0.6108
18653TIP3    H277375   2.245   0.072  14.477  0.1231  0.2504  0.7658
18654TIP3   OH277376   1.497   2.577   3.014 -0.3297 -0.1729 -0.2055
18654TIP3    H177377   1.457   2.564   2.928 -0.0252  0.6006 -0.4766
18654TIP3    H277378   1.591   2.580   2.996 -0.3319  1.6230 -0.0984
18655TIP3   OH277379   2.927   5.984   1.262  0.1144 -0.5361  0.1268
18655TIP3    H177380   2.969   6.004   1.346  0.0455 -0.6282  0.1817
18655TIP3    H277381   2.838   5.958   1.284  0.5235 -1.9794  0.1426
18656TIP3   OH277382   1.954   1.484   5.159 -0.3932 -0.4133 -0.0169
18656TIP3    H177383   1.930   1.498   5.067  0.6256 -3.6204 -0.9026
18656TIP3    H277384   2.036   1.532   5.169 -0.0997 -0.6632 -1.0435
18657TIP3   OH277385   6.334   2.220  16.275  0.0498  0.8823 -0.7408
18657TIP3    H177386   6.247   2.202  16.242  0.0382 -0.8646  0.1295
18657TIP3    H277387   6.392   2.161  16.226  0.0233 -1.7995  2.1444
18658TIP3   OH277388   2.729   3.175   3.532  0.1395  0.2601 -0.4448
18658TIP3    H177389   2.731   3.212   3.443 -1.8796 -0.8304 -0.9971
18658TIP3    H277390   2.804   3.115   3.534  0.0102  0.0369 -1.5518
18659TIP3   OH277391   3.049   0.527  13.583 -0.0240  0.1922 -0.0405
18659TIP3    H177392   3.127   0.578  13.605 -0.4410  1.2833 -1.0079
18659TIP3    H277393   2.990   0.590  13.543 -0.7730 -0.9496 -0.7902
18660TIP3   OH277394   5.001   2.164   1.497  0.1824 -0.5967  0.0277
18660TIP3    H177395   5.054   2.214   1.434  2.7040 -0.7289  1.8912
18660TIP3    H277396   4.947   2.230   1.540  2.0293  0.3181  1.0695
18661TIP3   OH277397   1.639   4.399  15.541  0.0590 -0.5306  0.0090
18661TIP3    H177398   1.609   4.479  15.583  0.5296 -0.2010 -0.2661
18661TIP3    H277399   1.630   4.416  15.447  1.2660 -0.3363 -0.0931
18662TIP3   OH277400   2.518   6.430   0.983 -0.3694 -0.1024  0.1804
18662TIP3    H177401   2.558   6.516   0.995 -0.0822 -0.1142 -0.6511
18662TIP3    H277402   2.518   6.391   1.070  2.0147 -0.3557  0.1306
18663TIP3   OH277403   3.466   2.578  15.952  0.2995  1.3548  0.0908
18663TIP3    H177404   3.398   2.640  15.926 -0.5711 -0.1466 -1.3871
18663TIP3    H277405   3.508   2.619  16.027 -0.4853  3.5442 -0.5990
18664TIP3   OH277406   5.285   5.353   3.564 -0.6892  0.3440 -0.7504
18664TIP3    H177407   5.266   5.303   3.643  1.6889  1.8303  0.8706
18664TIP3    H277408   5.226   5.428   3.568 -0.4942  0.4760 -0.3177
18665TIP3   OH277409   1.855   4.165  16.336 -0.2148  0.2189  0.8896
18665TIP3    H177410   1.822   4.081  16.370 -1.5919  0.8041  1.0554
18665TIP3    H277411   1.835   4.162  16.243  1.2583 -0.3178  0.5714
18666TIP3   OH277412   6.179   0.459  16.554  0.5541  0.0690  0.5248
18666TIP3    H177413   6.186   0.469  16.459  0.6978 -0.0681  0.5197
18666TIP3    H277414   6.115   0.389  16.566  0.8231 -0.1784  0.5196
18667TIP3   OH277415   6.239   0.323   3.054 -0.3058  0.4948 -0.0264
18667TIP3    H177416   6.155   0.285   3.081 -0.7188  1.5817  0.2704
18667TIP3    H277417   6.299   0.248   3.052 -1.2590 -0.2976 -0.1910
18668TIP3   OH277418   0.712   1.645   3.413  0.0564  0.1338  0.2058
18668TIP3    H177419   0.635   1.702   3.413  0.1656  0.2837  0.6033
18668TIP3    H277420   0.724   1.622   3.505  0.9968  0.7955  0.2562
18669TIP3   OH277421   5.288   6.242  16.423  0.2844 -0.6460  0.5322
18669TIP3    H177422   5.345   6.196  16.361 -0.6217  0.4711 -1.1932
18669TIP3    H277423   5.327   6.328  16.432 -0.9850  0.0814 -0.5496
18670TIP3   OH277424   1.579   6.330  11.063  0.7212 -0.3303 -0.4458
18670TIP3    H177425   1.576   6.406  11.005 -0.2259 -1.7275 -2.3390
18670TIP3    H277426   1.643   6.272  11.022  0.2978 -1.2088  0.1157
18671TIP3   OH277427   1.916   2.834   0.215  0.2788 -0.3534  0.3777
18671TIP3    H177428   1.885   2.761   0.269 -0.7128  1.1976  2.0562
18671TIP3    H277429   1.906   2.911   0.272  0.3363  1.2295 -1.6404
18672TIP3   OH277430   5.127   1.134  16.103 -0.4463  0.2704 -0.2303
18672TIP3    H177431   5.092   1.163  16.019  1.2302  0.5479 -0.8586
18672TIP3    H277432   5.137   1.214  16.154 -1.0528  0.1454  0.1095
18673TIP3   OH277433   1.892   0.486  13.160  0.1476 -0.1716  0.7472
18673TIP3    H177434   1.926   0.572  13.183  3.1006 -1.0603  0.0722
18673TIP3    H277435   1.863   0.495  13.069 -0.9124  0.4438  1.1327
18674TIP3   OH277436   6.740   4.039   4.745  0.3559 -0.4536  0.6323
18674TIP3    H177437   6.770   4.030   4.836 -2.0896  2.7030  1.9451
18674TIP3    H277438   6.645   4.049   4.752  0.2174  1.0233 -2.1616
18675TIP3   OH277439   3.148   0.539  16.274 -0.0364  0.3868 -0.1888
18675TIP3    H177440   3.169   0.609  16.212 -0.9862 -0.8432 -1.9641
18675TIP3    H277441   3.208   0.468  16.253 -1.5052 -0.6864 -0.9061
18676TIP3   OH277442   2.310   4.955   1.656 -0.6870 -0.0718 -0.5629
18676TIP3    H177443   2.238   4.906   1.696 -1.7868  0.6617 -1.5513
18676TIP3    H277444   2.339   5.015   1.725 -1.9612  0.5720 -0.5537
18677TIP3   OH277445   5.034   1.830  11.926  0.5455 -0.4524 -0.3985
18677TIP3    H177446   4.950   1.837  11.881  0.4111  1.7788  0.0723
18677TIP3    H277447   5.092   1.790  11.861 -0.7192 -1.5731 -0.9067
18678TIP3   OH277448   4.520   5.446   4.919  0.1773 -0.0288  0.0801
18678TIP3    H177449   4.502   5.394   4.841  0.3740  0.1574 -0.0893
18678TIP3    H277450   4.545   5.532   4.886 -0.1446  0.1794  0.3581
18679TIP3   OH277451   0.615   2.012  15.800 -0.2427  0.5300  0.4084
18679TIP3    H177452   0.655   2.093  15.769  1.2429  0.2173  1.3862
18679TIP3    H277453   0.636   1.948  15.733  2.3298  0.0184  1.5983
18680TIP3   OH277454   1.651   2.189   3.867 -0.1986  0.1942  0.7737
18680TIP3    H177455   1.586   2.189   3.937 -0.5762 -0.3880  0.4251
18680TIP3    H277456   1.645   2.102   3.827  0.8523  0.0974  0.7900
18681TIP3   OH277457   5.939   3.844   0.280 -0.5703  0.0396  0.3731
18681TIP3    H177458   5.848   3.857   0.307 -1.2446  2.8408 -2.7287
18681TIP3    H277459   5.988   3.843   0.363 -3.2407 -0.5246  2.0789
18682TIP3   OH277460   6.065   0.860   2.416  0.3248  0.1682  0.2405
18682TIP3    H177461   6.053   0.955   2.426 -0.5455  0.0170  0.7049
18682TIP3    H277462   6.117   0.834   2.491  1.2106  0.3830 -0.2811
18683TIP3   OH277463   5.020   5.325  14.708  0.0119  0.1140 -0.0341
18683TIP3    H177464   4.950   5.386  14.684  0.3564  1.0001  1.0884
18683TIP3    H277465   5.035   5.342  14.801  2.1005  0.3643 -0.3620
18684TIP3   OH277466   1.113   5.475  14.665  0.4783 -0.1707 -0.1945
18684TIP3    H177467   1.043   5.436  14.717 -1.1982  2.3232 -0.3937
18684TIP3    H277468   1.171   5.515  14.729  0.3071 -0.0628 -0.1058
18685TIP3   OH277469   4.025   2.642   6.024  0.6710  0.1286  0.1313
18685TIP3    H177470   4.074   2.573   6.069  2.6034  0.2845 -1.6011
18685TIP3    H277471   4.089   2.712   6.010 -0.8156  1.6088  0.3336
18686TIP3   OH277472   4.356   0.016   4.520  0.4970  0.6404  0.2849
18686TIP3    H177473   4.375  -0.045   4.591 -0.5280  0.5101  0.4653
18686TIP3    H277474   4.408   0.094   4.541  0.7918  0.3240  0.7615
18687TIP3   OH277475   6.053   3.296   4.552  0.3414 -0.1307 -0.4820
18687TIP3    H177476   6.119   3.227   4.558  1.2170  0.7798  0.8672
18687TIP3    H277477   5.982   3.257   4.502  2.0892 -0.9965 -2.4329
18688TIP3   OH277478   2.424   0.852  16.589  0.4305 -0.3340 -0.8260
18688TIP3    H177479   2.446   0.927  16.535  0.8016 -0.5715 -1.0084
18688TIP3    H277480   2.412   0.888  16.677  2.4001 -0.2973 -0.5338
18689TIP3   OH277481   4.429   1.907   4.464  0.2482  0.3697  0.2570
18689TIP3    H177482   4.437   1.874   4.554 -0.0667  1.6584  0.7858
18689TIP3    H277483   4.390   1.835   4.415 -0.0623 -0.1726  1.2805
18690TIP3   OH277484   2.053   4.910   2.868  0.0577 -0.8272  0.2173
18690TIP3    H177485   2.024   4.853   2.939 -0.2056 -0.7533  0.1696
18690TIP3    H277486   1.973   4.949   2.834  0.3865  1.0691  1.4800
18691TIP3   OH277487   0.265   3.406   4.400  0.0599 -0.0335  0.0353
18691TIP3    H177488   0.304   3.319   4.409 -1.9260 -0.9572  0.3824
18691TIP3    H277489   0.254   3.418   4.306  0.0340 -0.3225 -0.0005
18692TIP3   OH277490   5.186   2.015  12.658  0.3995  0.5376  0.0472
18692TIP3    H177491   5.134   1.989  12.735  1.4561  1.2632  1.0399
18692TIP3    H277492   5.130   1.994  12.583 -0.9478  0.4572  1.0390
18693TIP3   OH277493   5.192   5.272   3.816 -0.1333 -0.1210 -0.2501
18693TIP3    H177494   5.114   5.299   3.768  0.1413  0.2083 -0.5150
18693TIP3    H277495   5.217   5.350   3.867  0.9411  0.3189 -1.3794
18694TIP3   OH277496   5.963   5.745  12.994  0.6564  0.4717  0.4036
18694TIP3    H177497   5.947   5.675  12.931 -0.2103  1.4937 -0.5358
18694TIP3    H277498   6.029   5.800  12.952 -1.1781  2.1318 -0.4626
18695TIP3   OH277499   5.846   1.671   4.681 -0.5897  0.0242  0.2717
18695TIP3    H177500   5.942   1.668   4.686 -0.6374 -0.3789  1.0428
18695TIP3    H277501   5.818   1.586   4.716 -1.3295  1.3515  3.1322
18696TIP3   OH277502   2.047   4.852   2.450  0.2007  0.1177 -0.0881
18696TIP3    H177503   2.053   4.833   2.357 -0.5789  0.4754 -0.2172
18696TIP3    H277504   2.138   4.855   2.480  0.4431 -0.3879 -0.7528
18697TIP3   OH277505   0.015   2.262   4.862 -0.3845 -0.7944  0.3203
18697TIP3    H177506   0.023   2.186   4.919 -0.9382 -2.5815 -1.8698
18697TIP3    H277507  -0.077   2.287   4.868 -0.8405 -2.0308 -0.9837
18698TIP3   OH277508   0.617   0.058   0.563 -0.4106  0.3919 -0.0569
18698TIP3    H177509   0.697   0.009   0.543 -1.2689 -0.2457 -2.1920
18698TIP3    H277510   0.622   0.136   0.508  0.3611  2.2202  2.4178
18699TIP3   OH277511   3.159   2.318  15.058 -0.8206 -0.0458 -0.2749
18699TIP3    H177512   3.176   2.292  15.148 -1.2127  0.0859 -0.1631
18699TIP3    H277513   3.210   2.399  15.047 -1.0376  0.1208 -0.0678
18700TIP3   OH277514   4.431   1.944   2.224 -0.5117  0.0157  0.2261
18700TIP3    H177515   4.380   1.967   2.146 -1.0190 -1.8824 -0.0697
18700TIP3    H277516   4.384   1.869   2.262  0.3900  0.1527  1.6913
18701TIP3   OH277517   2.307   5.812  14.780  0.5749  0.6915  0.5114
18701TIP3    H177518   2.293   5.905  14.800  1.7795  1.3131 -1.3265
18701TIP3    H277519   2.220   5.779  14.760  0.2672  1.7449  0.0022
18702TIP3   OH277520   1.727   6.599   1.671  0.6006 -0.1194 -0.1031
18702TIP3    H177521   1.811   6.635   1.641  1.2107 -0.6977  0.8356
18702TIP3    H277522   1.706   6.649   1.749 -0.7679  1.1022 -1.2092
18703TIP3   OH277523   1.326   4.515  13.420  0.5882  0.7086  0.2386
18703TIP3    H177524   1.383   4.498  13.345  2.1246  3.4578  0.6425
18703TIP3    H277525   1.363   4.460  13.490  0.1830 -0.5805 -0.5191
18704TIP3   OH277526   2.074   5.542  16.647  0.4452  0.4623 -0.0134
18704TIP3    H177527   2.009   5.546  16.577  0.1407 -1.6552  0.0736
18704TIP3    H277528   2.158   5.550  16.603  0.3134 -1.8039 -0.8375
18705TIP3   OH277529   1.653   4.994  14.416  0.3527 -0.2279  0.3186
18705TIP3    H177530   1.643   4.937  14.340  1.2489 -0.5773  0.4519
18705TIP3    H277531   1.623   4.940  14.490 -0.9352  0.2600  0.1793
18706TIP3   OH277532   1.818   0.956  17.238  0.2743 -0.3557 -0.4739
18706TIP3    H177533   1.868   1.025  17.282 -0.0583  0.3109 -1.1152
18706TIP3    H277534   1.803   0.891  17.306  0.7673  0.1104  0.0963
18707TIP3   OH277535   3.414   5.874   5.039  0.0603 -1.1695 -0.0139
18707TIP3    H177536   3.508   5.868   5.056  0.4698  2.3487 -0.2624
18707TIP3    H277537   3.374   5.879   5.126  0.3070 -0.8067  0.0801
18708TIP3   OH277538   2.805   2.283   1.525 -0.3063 -0.6019  0.2825
18708TIP3    H177539   2.851   2.344   1.468  0.8781  0.3471  2.1452
18708TIP3    H277540   2.835   2.196   1.496  0.8851 -0.1022 -0.0534
18709TIP3   OH277541   6.783   5.359  12.770  0.6244  0.1266 -0.0843
18709TIP3    H177542   6.804   5.452  12.779 -0.1980  0.1309  3.0938
18709TIP3    H277543   6.709   5.345  12.829  1.0968 -2.6455  0.0110
18710TIP3   OH277544   0.865   5.396   1.505  0.3601  0.8044  0.0678
18710TIP3    H177545   0.907   5.482   1.509  2.6688 -0.2670  0.2239
18710TIP3    H277546   0.893   5.359   1.422 -0.7573  0.2506 -0.0811
18711TIP3   OH277547   5.719   1.561   1.287  0.3537  0.3582 -0.2470
18711TIP3    H177548   5.714   1.635   1.347 -0.1033 -0.0146  0.1740
18711TIP3    H277549   5.628   1.540   1.266  0.4186 -0.8689  0.6068
18712TIP3   OH277550   1.874   1.773   3.445 -0.6705  0.2657 -0.0470
18712TIP3    H177551   1.820   1.722   3.505  0.2334 -0.4329  0.2088
18712TIP3    H277552   1.834   1.760   3.359  0.3851 -2.1782 -0.2552
18713TIP3   OH277553   5.455   1.059   2.252  0.2832  0.2383 -0.1961
18713TIP3    H177554   5.467   1.092   2.163  2.5531  2.8374  0.9187
18713TIP3    H277555   5.387   1.115   2.289 -0.7759 -0.9453 -0.2951
18714TIP3   OH277556   0.457   4.139   1.080  0.6970 -0.1537 -0.1274
18714TIP3    H177557   0.416   4.197   1.145 -0.4033 -2.6538  1.5420
18714TIP3    H277558   0.397   4.141   1.005  0.6612  0.8019 -0.0875
18715TIP3   OH277559   2.699   4.284   5.842 -0.1717 -0.0675  1.1015
18715TIP3    H177560   2.783   4.317   5.810 -0.1796 -2.1949 -1.5172
18715TIP3    H277561   2.634   4.343   5.804  0.0123 -0.3686  0.3025
18716TIP3   OH277562   0.310   2.434  15.491 -0.4405 -0.0770  0.7174
18716TIP3    H177563   0.312   2.449  15.586 -0.9016  1.6751  0.4969
18716TIP3    H277564   0.221   2.458  15.465 -0.3839 -0.7612 -0.1278
18717TIP3   OH277565   6.767   5.364   1.385  0.2543  0.5678 -0.2203
18717TIP3    H177566   6.728   5.291   1.338  0.2981  0.4314 -0.0462
18717TIP3    H277567   6.823   5.408   1.321  0.3580  0.3514 -0.2764
18718TIP3   OH277568   2.014   3.975  13.435 -0.2688  0.4038 -0.0457
18718TIP3    H177569   2.022   3.974  13.339  0.6903 -0.3796  0.0279
18718TIP3    H277570   2.081   4.037  13.464  0.8880 -0.9146  0.2082
18719TIP3   OH277571   1.630   6.104  12.765  0.1036 -0.1993  0.3621
18719TIP3    H177572   1.568   6.148  12.823  1.1026 -0.1672  1.4398
18719TIP3    H277573   1.586   6.022  12.742 -2.3290  1.7228 -2.6580
18720TIP3   OH277574   2.264   2.977  13.152 -0.3248 -0.0100  0.0589
18720TIP3    H177575   2.204   3.003  13.082  1.3365  1.5954 -0.8486
18720TIP3    H277576   2.228   3.018  13.231 -0.8680  0.2217 -0.3042
18721TIP3   OH277577   2.448   0.345   2.631 -0.1134  0.0313 -0.0837
18721TIP3    H177578   2.510   0.277   2.605 -0.7990 -0.5760 -0.1769
18721TIP3    H277579   2.500   0.425   2.636  0.6768 -0.4687 -0.1288
18722TIP3   OH277580   2.299   1.458   5.449  0.1399  0.4337  0.0186
18722TIP3    H177581   2.395   1.456   5.442  0.0317 -2.3042 -2.2563
18722TIP3    H277582   2.268   1.453   5.359 -2.1471 -0.0319  0.7669
18723TIP3   OH277583   6.681   6.492   5.277 -0.4178 -0.2824 -0.5486
18723TIP3    H177584   6.702   6.404   5.245 -0.2060 -0.3290 -0.2822
18723TIP3    H277585   6.595   6.482   5.318 -0.8497 -0.1501 -1.3916
18724TIP3   OH277586   6.124   4.813  15.373  0.1700  1.0031 -0.3055
18724TIP3    H177587   6.058   4.761  15.419  0.7893 -0.3292 -0.8702
18724TIP3    H277588   6.074   4.869  15.315 -0.4925 -1.7037 -2.5366
18725TIP3   OH277589   4.000   1.053   5.883 -0.1105  0.4244  1.0809
18725TIP3    H177590   4.044   0.973   5.911  0.3104  0.2831  0.0474
18725TIP3    H277591   3.955   1.029   5.802 -0.8998  0.9523  1.3470
18726TIP3   OH277592   2.835   2.773  16.691  0.1020  0.0056 -0.1809
18726TIP3    H177593   2.854   2.797  16.601  0.7468  0.8364  0.1704
18726TIP3    H277594   2.846   2.853  16.741 -1.2920 -0.1990  0.5043
18727TIP3   OH277595   5.136   0.021   2.289 -0.2813  0.1913 -0.3407
18727TIP3    H177596   5.148   0.079   2.364  0.8566  0.8245 -0.9907
18727TIP3    H277597   5.220   0.022   2.244 -0.6589 -0.9085 -1.1250
18728TIP3   OH277598   4.139   3.057   3.355 -0.2433  0.3145  0.4138
18728TIP3    H177599   4.081   3.121   3.313  0.5778 -0.0498 -1.3870
18728TIP3    H277600   4.106   3.050   3.445 -2.1351  1.0880 -0.1646
18729TIP3   OH277601   0.152   3.781   1.517 -0.1594  0.1964  0.0074
18729TIP3    H177602   0.133   3.708   1.576  0.9987 -1.0338 -1.0781
18729TIP3    H277603   0.193   3.740   1.441  0.6850  2.0091 -0.5576
18730TIP3   OH277604   1.387   5.079  11.448  0.4514 -0.1408  0.1227
18730TIP3    H177605   1.459   5.142  11.452 -1.2685  1.9208  0.3051
18730TIP3    H277606   1.369   5.070  11.355  0.0727  0.4323  0.1334
18731TIP3   OH277607   4.937   1.076   3.351  0.7059  0.0100  0.1851
18731TIP3    H177608   4.987   1.124   3.418  0.4104  0.4135  0.1237
18731TIP3    H277609   4.979   1.100   3.269  0.5426  0.1866  0.1522
18732TIP3   OH277610   3.081   2.482  13.819 -0.1709  0.8880  0.1783
18732TIP3    H177611   3.121   2.569  13.819  0.1982  0.7934  2.5896
18732TIP3    H277612   3.010   2.489  13.882  1.0271 -0.9902  1.8457
18733TIP3   OH277613   0.161   2.344  13.811  0.3224  0.3820 -0.5400
18733TIP3    H177614   0.182   2.435  13.791 -0.2535  0.5034 -0.5859
18733TIP3    H277615   0.244   2.307  13.841  0.3851  1.1105  0.2073
18734TIP3   OH277616   0.719   1.768  15.657 -0.3279  0.6542  0.3110
18734TIP3    H177617   0.745   1.743  15.745 -1.8602  0.1138  0.6486
18734TIP3    H277618   0.756   1.699  15.601 -2.9820 -1.5585  1.0467
18735TIP3   OH277619   2.306   0.069  15.047  0.3739 -0.0550 -0.2350
18735TIP3    H177620   2.241   0.102  15.108  1.3952 -0.0666  0.9006
18735TIP3    H277621   2.354   0.002  15.096  2.2478  1.0237 -0.4934
18736TIP3   OH277622   0.140   4.147   1.394  0.1177 -0.5834 -0.5087
18736TIP3    H177623   0.080   4.111   1.328 -0.3031 -1.3298  0.2628
18736TIP3    H277624   0.163   4.234   1.360 -1.6022 -0.1653 -0.7041
18737TIP3   OH277625   0.183   3.307  14.999 -0.4916  0.2872  0.1080
18737TIP3    H177626   0.278   3.309  15.006 -0.4218  0.4779 -0.7849
18737TIP3    H277627   0.162   3.380  14.941 -1.2534  0.7971  1.0002
18738TIP3   OH277628   0.832   5.183  13.132 -0.3393 -0.2531 -0.2706
18738TIP3    H177629   0.802   5.265  13.170 -0.2632 -0.8400  1.1261
18738TIP3    H277630   0.924   5.199  13.111 -0.4562  0.1695 -0.4762
18739TIP3   OH277631   5.960   6.220   5.336 -0.9491 -0.3034  0.2619
18739TIP3    H177632   5.961   6.126   5.351  3.7866 -0.4067  0.8684
18739TIP3    H277633   6.007   6.231   5.253  0.6643  1.4792  1.3214
18740TIP3   OH277634   2.616   6.407   5.331  0.0842 -0.0847 -0.0413
18740TIP3    H177635   2.698   6.420   5.284  1.0438  1.2933  1.8450
18740TIP3    H277636   2.643   6.387   5.421 -1.6444 -1.0253  0.3158
18741TIP3   OH277637   4.680   3.856  16.495 -0.3228  0.2805  0.1309
18741TIP3    H177638   4.746   3.787  16.498 -1.6610 -1.0432  0.1316
18741TIP3    H277639   4.617   3.832  16.564 -0.1564  2.2176  1.0321
18742TIP3   OH277640   4.803   0.318   1.663 -0.2032  0.2461  0.6195
18742TIP3    H177641   4.776   0.387   1.724 -0.0906  1.4813 -0.6609
18742TIP3    H277642   4.838   0.366   1.588  2.4783 -1.2660  0.8189
18743TIP3   OH277643   1.449   5.514  12.493 -0.1277 -0.8239 -0.1036
18743TIP3    H177644   1.402   5.551  12.568  0.7332  1.4417 -0.5862
18743TIP3    H277645   1.542   5.523  12.516  0.1493 -0.0355 -1.4374
18744TIP3   OH277646   0.512   6.583   1.079  0.3039 -0.2321 -0.2907
18744TIP3    H177647   0.418   6.601   1.079  0.5488  1.3803 -1.5408
18744TIP3    H277648   0.537   6.588   0.987  1.5965 -0.7942  0.0051
18745TIP3   OH277649   1.253   3.051   3.466  0.2807 -0.2460  0.2039
18745TIP3    H177650   1.336   3.015   3.498 -0.4077 -2.1150 -0.0081
18745TIP3    H277651   1.231   2.996   3.391 -1.1337  0.2469  0.2396
18746TIP3   OH277652   0.834   2.859   0.627  0.2584 -0.1566 -0.1749
18746TIP3    H177653   0.881   2.806   0.562  1.5873 -0.1602  0.7698
18746TIP3    H277654   0.891   2.934   0.643 -1.1201  1.0554 -0.7008
18747TIP3   OH277655   3.829   3.354  11.972 -0.2382 -0.1193  0.0808
18747TIP3    H177656   3.798   3.304  12.047 -1.2093  1.0075  0.4747
18747TIP3    H277657   3.780   3.319  11.898  0.2087 -0.7651  0.0847
18748TIP3   OH277658   3.022   3.935  13.219  0.0507  0.1833 -0.1830
18748TIP3    H177659   2.938   3.963  13.255  0.6736  0.2354  1.2944
18748TIP3    H277660   3.008   3.845  13.191 -0.4873  0.1841  0.0820
18749TIP3   OH277661   3.099   3.925  16.427 -0.3312 -0.3204  0.1917
18749TIP3    H177662   3.166   3.861  16.404  0.4815  0.8372 -0.7828
18749TIP3    H277663   3.138   3.978  16.497  0.2806  1.1126 -1.1897
18750TIP3   OH277664   0.093   0.559   2.296 -0.6624 -0.1620 -0.3528
18750TIP3    H177665   0.159   0.508   2.343  0.5441  0.2326 -1.5804
18750TIP3    H277666   0.109   0.540   2.204 -2.2750 -0.0534 -0.6863
18751TIP3   OH277667   2.579   6.368   1.619 -0.1281  0.5891 -0.0905
18751TIP3    H177668   2.544   6.282   1.639  1.3451 -0.3167 -1.1409
18751TIP3    H277669   2.673   6.353   1.606  0.0924  2.2757 -0.7284
18752TIP3   OH277670   1.447   4.385   0.716 -0.0755 -0.0265  0.5116
18752TIP3    H177671   1.409   4.445   0.780 -0.7429 -2.4674  2.5657
18752TIP3    H277672   1.537   4.373   0.745 -0.0569 -0.3140  0.3348
18753TIP3   OH277673   2.215   5.053   1.179  0.1183 -0.0895 -0.1988
18753TIP3    H177674   2.269   4.980   1.150  0.9398 -0.1855  1.4618
18753TIP3    H277675   2.222   5.117   1.109 -0.1385 -1.3474 -1.4071
18754TIP3   OH277676   6.729   1.604   1.139  0.2691  0.3569 -0.5041
18754TIP3    H177677   6.737   1.688   1.183 -2.1457 -1.1446  3.2813
18754TIP3    H277678   6.661   1.618   1.073 -2.0612  0.9527  1.8455
18755TIP3   OH277679   1.460   3.774  12.997  0.0755 -0.0894 -0.3557
18755TIP3    H177680   1.550   3.809  12.998 -0.3877  1.1571 -0.6946
18755TIP3    H277681   1.469   3.685  13.031  1.4173  0.0770 -0.2103
18756TIP3   OH277682   1.294   3.488   0.639 -0.0488 -0.3417  0.2981
18756TIP3    H177683   1.243   3.553   0.688 -0.0754 -0.0378 -0.1249
18756TIP3    H277684   1.375   3.534   0.618 -0.6438  0.0672 -1.2514
18757TIP3   OH277685   0.150   4.411   1.364  0.0667  0.4300 -0.1318
18757TIP3    H177686   0.130   4.391   1.272 -0.7632  0.0049  0.1344
18757TIP3    H277687   0.163   4.506   1.366 -1.1217  0.6088 -0.4712
18758TIP3   OH277688   4.136   5.529  11.876  0.0571  0.9829  0.6315
18758TIP3    H177689   4.094   5.614  11.865  1.5329  1.4829 -2.1275
18758TIP3    H277690   4.221   5.539  11.834  0.2079 -1.9306  0.0304
18759TIP3   OH277691   0.508   0.491   0.086 -0.0553  0.3529  0.4983
18759TIP3    H177692   0.574   0.423   0.099  1.0271  1.2605 -0.0216
18759TIP3    H277693   0.540   0.565   0.139  0.0662  1.2586 -0.7947
18760TIP3   OH277694   2.237   4.490   1.315  0.0716 -0.4466 -0.0840
18760TIP3    H177695   2.193   4.476   1.231 -1.9774  0.3753  0.8030
18760TIP3    H277696   2.198   4.570   1.350  3.3067  1.2272  0.1514
18761TIP3   OH277697   3.500   6.382  16.527 -0.3126 -0.2178 -0.2242
18761TIP3    H177698   3.410   6.414  16.525 -0.7167 -1.3696 -0.8004
18761TIP3    H277699   3.530   6.404  16.616 -0.7543  1.1932 -0.3905
18762TIP3   OH277700   0.119   5.163  14.724 -0.1829  0.0242  0.2199
18762TIP3    H177701   0.152   5.083  14.682 -1.1965 -0.7236  0.7725
18762TIP3    H277702   0.073   5.209  14.653  0.6621  0.2813 -0.1741
18763TIP3   OH277703   1.153   3.423   1.110 -0.1804 -0.0271  0.4650
18763TIP3    H177704   1.180   3.514   1.118 -1.0988  0.6890 -3.1733
18763TIP3    H277705   1.059   3.425   1.128 -0.1966 -0.2618  0.4072
18764TIP3   OH277706   2.379   0.787   1.233 -0.0832 -0.8256 -0.2837
18764TIP3    H177707   2.319   0.723   1.194  0.5179 -1.7870  0.3030
18764TIP3    H277708   2.323   0.857   1.265 -0.6611 -0.4771 -1.9826
18765TIP3   OH277709   2.260   4.413  16.066  0.3743 -0.0267  0.2952
18765TIP3    H177710   2.193   4.348  16.090  1.2090 -0.9054  0.3019
18765TIP3    H277711   2.210   4.493  16.048 -0.6550 -0.5889  0.5486
18766TIP3   OH277712   4.390   2.936   0.331  0.5018 -0.1054 -0.0854
18766TIP3    H177713   4.345   2.879   0.394  0.1395 -0.4448 -0.6418
18766TIP3    H277714   4.383   3.023   0.369  1.7891 -0.5234  1.1947
18767TIP3   OH277715   3.008   6.134  12.540 -0.7408  0.0917  0.2000
18767TIP3    H177716   3.081   6.073  12.552 -1.0616  0.1427  3.2977
18767TIP3    H277717   2.957   6.126  12.621 -3.1907  1.3676 -1.1160
18768TIP3   OH277718   4.689   2.224  15.825 -0.8063  0.0784 -0.2233
18768TIP3    H177719   4.641   2.153  15.782  0.8258 -1.6906  0.7072
18768TIP3    H277720   4.635   2.248  15.900 -0.5547 -1.5372  0.5242
18769TIP3   OH277721   5.267   3.679   5.171 -0.0974  0.2623 -0.2916
18769TIP3    H177722   5.279   3.585   5.182 -0.7610  0.0770 -1.1303
18769TIP3    H277723   5.298   3.697   5.082 -0.4121  0.7548 -0.3034
18770TIP3   OH277724   4.661   1.431   4.720  0.4210  0.6598 -0.2837
18770TIP3    H177725   4.654   1.347   4.676 -3.5886  1.0893 -0.8364
18770TIP3    H277726   4.638   1.412   4.811  0.0331  1.0791 -0.2941
18771TIP3   OH277727   1.077   6.101  16.884 -0.0111 -0.4260 -0.7625
18771TIP3    H177728   1.080   6.171  16.949 -0.1998 -0.1517 -1.0465
18771TIP3    H277729   0.985   6.096  16.857  0.4612  1.3381 -3.0184
18772TIP3   OH277730   5.913   0.870   3.823  0.3275 -0.4884  0.1872
18772TIP3    H177731   6.005   0.891   3.806  0.5065 -1.7391 -0.5458
18772TIP3    H277732   5.868   0.955   3.825  1.4711  0.1258  0.4163
18773TIP3   OH277733   1.219   1.477   1.806 -0.0565  0.2072  0.4267
18773TIP3    H177734   1.282   1.544   1.834 -0.6158  0.2183  1.7191
18773TIP3    H277735   1.243   1.399   1.854 -0.2937 -0.1265  0.0125
18774TIP3   OH277736   5.981   5.236  11.690 -0.0340  0.4812 -0.2168
18774TIP3    H177737   5.920   5.309  11.688  0.1695  0.6463 -0.5044
18774TIP3    H277738   6.024   5.243  11.775  0.7333  1.3238 -0.6574
18775TIP3   OH277739   4.309   6.122  11.894 -0.2568 -0.0744 -0.1912
18775TIP3    H177740   4.367   6.058  11.852  0.0141  0.3388 -0.4551
18775TIP3    H277741   4.223   6.103  11.858 -0.6357 -1.7869  1.4508
18776TIP3   OH277742   3.575   0.951   6.366 -0.4036 -0.0266 -0.4771
18776TIP3    H177743   3.490   0.930   6.327 -0.5957 -0.0509 -0.0468
18776TIP3    H277744   3.561   0.946   6.460 -0.3235  1.5576 -0.3663
18777TIP3   OH277745   0.022   3.124   6.525 -0.3073  0.1270 -0.0877
18777TIP3    H177746   0.111   3.102   6.500 -0.1456  0.4063  0.2303
18777TIP3    H277747  -0.033   3.087   6.455  0.1682  1.4937 -1.2219
18778TIP3   OH277748   2.248   1.375  11.126  0.7474 -0.1174 -0.0309
18778TIP3    H177749   2.178   1.363  11.063  1.9732 -1.0881 -1.2628
18778TIP3    H277750   2.276   1.466  11.114  0.6934 -0.1715 -0.5951
18779TIP3   OH277751   2.337   4.444   5.018  0.0962  0.1644  0.3772
18779TIP3    H177752   2.431   4.458   5.008  0.3201 -1.8765 -1.1433
18779TIP3    H277753   2.312   4.395   4.939 -2.1475  0.2352  0.9785
18780TIP3   OH277754   5.563   5.698   4.132  0.6511  0.1034  0.0896
18780TIP3    H177755   5.486   5.649   4.101 -0.1519  1.2583  0.1879
18780TIP3    H277756   5.526   5.775   4.176  1.8052 -0.4057  2.0910
18781TIP3   OH277757   5.740   5.128   5.661 -0.2994 -0.0956  0.2043
18781TIP3    H177758   5.755   5.046   5.708  0.9921 -0.7231 -1.2322
18781TIP3    H277759   5.714   5.101   5.573  0.0123  1.0306 -0.2560
18782TIP3   OH277760   3.707   2.114  10.698 -0.7398  0.1309 -0.0384
18782TIP3    H177761   3.678   2.175  10.630 -0.7101  0.8879  0.6209
18782TIP3    H277762   3.774   2.060  10.654  2.5055  3.3914  0.4051
18783TIP3   OH277763   5.182   3.930   4.078  0.0054 -0.1914  0.2781
18783TIP3    H177764   5.111   3.876   4.042  0.1788  0.7718 -1.6687
18783TIP3    H277765   5.239   3.947   4.003 -0.5601  3.4917  0.5051
18784TIP3   OH277766   4.346   4.275   2.523  0.5021  0.3245 -0.6996
18784TIP3    H177767   4.317   4.209   2.461  0.8246 -0.0339 -0.4713
18784TIP3    H277768   4.322   4.358   2.482 -1.6418  0.0449 -0.1586
18785TIP3   OH277769   0.143   1.449   0.630 -0.7443 -0.2028 -0.4057
18785TIP3    H177770   0.100   1.472   0.548 -1.2225 -0.2072 -0.1613
18785TIP3    H277771   0.094   1.497   0.697 -0.8943 -0.8569 -0.0379
18786TIP3   OH277772   4.785   6.379   5.613 -0.0754  0.8138  0.5170
18786TIP3    H177773   4.739   6.298   5.636  1.3939 -0.5396 -1.0496
18786TIP3    H277774   4.718   6.435   5.575 -1.2164  0.5540  2.0432
18787TIP3   OH277775   6.593   6.492   4.203 -0.3987  0.3305 -0.0379
18787TIP3    H177776   6.649   6.570   4.200 -0.5142  0.3817 -0.8645
18787TIP3    H277777   6.525   6.508   4.138 -0.8635 -0.1326  0.3254
18788TIP3   OH277778   1.720   0.717  13.875  0.4142 -0.4695 -0.2644
18788TIP3    H177779   1.773   0.790  13.906  2.8416 -1.8788 -0.8292
18788TIP3    H277780   1.759   0.693  13.791 -0.6384 -2.0790 -0.3365
18789TIP3   OH277781   6.132   5.029  13.335  0.3578  0.4307 -0.2150
18789TIP3    H177782   6.048   5.034  13.382  0.1344  0.9529 -0.6588
18789TIP3    H277783   6.134   4.940  13.300 -0.7703  0.8966 -1.5655
18790TIP3   OH277784   3.338   6.171  16.966 -0.8678  0.3740 -0.1921
18790TIP3    H177785   3.308   6.258  16.991  0.0836  0.6478  0.0516
18790TIP3    H277786   3.290   6.112  17.025 -0.9400  0.7917  0.1747
18791TIP3   OH277787   5.837   0.587   0.028 -0.6202  0.5980  0.3023
18791TIP3    H177788   5.751   0.617   0.056 -0.1780  0.8046  1.5349
18791TIP3    H277789   5.869   0.534   0.101  1.1820  2.3513  0.9005
18792TIP3   OH277790   6.556   0.352  12.299 -0.2126 -0.3918 -0.1001
18792TIP3    H177791   6.603   0.268  12.293 -0.6653 -0.5427 -2.3229
18792TIP3    H277792   6.470   0.329  12.334  0.6336 -0.3641  2.2203
18793TIP3   OH277793   1.908   1.079  12.573  0.1081  0.3547 -0.2315
18793TIP3    H177794   1.936   1.029  12.496 -0.1731 -1.4747  0.7956
18793TIP3    H277795   1.989   1.114  12.610  0.8219 -2.3780  1.0183
18794TIP3   OH277796   1.871   4.490   1.599  0.2947 -0.3346  0.1188
18794TIP3    H177797   1.903   4.503   1.510 -1.8923  1.7113 -0.4546
18794TIP3    H277798   1.792   4.436   1.588 -0.9568  1.3157  0.5413
18795TIP3   OH277799   0.249   4.019  11.549  0.2297 -0.3777 -0.3708
18795TIP3    H177800   0.170   4.004  11.601  0.5590 -1.7575 -0.2274
18795TIP3    H277801   0.266   4.113  11.558  0.6245 -0.6161  2.5509
18796TIP3   OH277802   3.804   2.972  12.165 -0.0537  0.0518 -0.1042
18796TIP3    H177803   3.796   3.043  12.228 -2.0069  0.0460 -0.2709
18796TIP3    H277804   3.827   2.895  12.217 -0.3436  0.3208  0.4289
18797TIP3   OH277805   4.201   0.456   1.864 -0.2384  0.0428 -0.0355
18797TIP3    H177806   4.296   0.449   1.856 -0.1796 -0.4516  0.9401
18797TIP3    H277807   4.169   0.455   1.773  0.5065 -2.6807 -0.3611
18798TIP3   OH277808   2.110   0.175   4.966  0.2826  0.8025 -0.0866
18798TIP3    H177809   2.120   0.080   4.953 -0.6255  0.3969  1.8989
18798TIP3    H277810   2.045   0.200   4.900  0.4257  0.0294 -0.5469
18799TIP3   OH277811   2.433   4.075  13.380  0.0575  0.0236  0.7540
18799TIP3    H177812   2.479   4.135  13.321 -1.3280 -0.0841 -0.4899
18799TIP3    H277813   2.500   4.046  13.442  1.7494 -0.3726 -1.1587
18800TIP3   OH277814   0.154   5.841   0.944 -0.1230  0.5398 -0.0815
18800TIP3    H177815   0.214   5.773   0.973 -2.6577 -1.6199  0.5236
18800TIP3    H277816   0.084   5.840   1.010 -1.5545  1.8875 -1.4963
18801TIP3   OH277817   4.960   2.910   4.818  0.1231  0.0424  0.1515
18801TIP3    H177818   4.947   2.952   4.903 -1.6466  0.8056 -0.4260
18801TIP3    H277819   4.872   2.907   4.779  0.7388 -1.1039 -1.2810
18802TIP3   OH277820   2.224   3.902  10.846 -0.2334  0.4817  0.3571
18802TIP3    H177821   2.238   3.850  10.767 -1.6527  0.0971  0.3357
18802TIP3    H277822   2.312   3.929  10.873  0.2767  0.5052 -1.2595
18803TIP3   OH277823   6.688   5.922  17.038 -0.3888  0.1831 -0.3646
18803TIP3    H177824   6.711   5.934  17.130 -1.2233  1.5835 -0.3198
18803TIP3    H277825   6.744   5.984  16.990  0.3000 -0.7881 -0.8605
18804TIP3   OH277826   1.741   3.355  15.286 -0.1496  0.2432 -0.0117
18804TIP3    H177827   1.651   3.369  15.315 -0.8878 -0.9536 -1.5474
18804TIP3    H277828   1.760   3.429  15.228 -0.2784  0.2959  0.0142
18805TIP3   OH277829   1.896   6.409  14.162 -0.0997 -0.5390 -0.0883
18805TIP3    H177830   1.895   6.342  14.231 -1.3419 -1.1678 -0.6968
18805TIP3    H277831   1.924   6.363  14.083 -0.5833 -0.2516 -0.4311
18806TIP3   OH277832   3.699   2.613   1.485  0.1432 -0.0218  0.5894
18806TIP3    H177833   3.786   2.627   1.448  0.0828  0.9461  0.7923
18806TIP3    H277834   3.659   2.699   1.486 -1.4333 -0.6711 -0.9747
18807TIP3   OH277835   2.812   4.184   3.640  0.7574  0.6952  0.3005
18807TIP3    H177836   2.837   4.121   3.707  1.5144 -1.1843 -1.6416
18807TIP3    H277837   2.795   4.265   3.689 -1.8488 -1.2950  3.1571
18808TIP3   OH277838   4.672   0.924   4.679 -0.7182 -0.7279  0.4460
18808TIP3    H177839   4.599   0.883   4.633 -1.2900  0.0261  0.6496
18808TIP3    H277840   4.750   0.892   4.634 -1.2673  0.2601 -1.3132
18809TIP3   OH277841   5.759   5.351   4.186  0.1581  0.2208  0.6172
18809TIP3    H177842   5.771   5.257   4.176 -0.9577  0.0034  1.1038
18809TIP3    H277843   5.702   5.375   4.113 -0.5817  0.2756  1.1971
18810TIP3   OH277844   3.215   3.663   1.757 -0.1262  0.1159 -0.3858
18810TIP3    H177845   3.181   3.719   1.688  0.4810 -0.3645 -1.0862
18810TIP3    H277846   3.253   3.589   1.711  0.8384  0.0902  0.4303
18811TIP3   OH277847   5.697   6.364   3.959  0.2519  0.2808  0.0460
18811TIP3    H177848   5.640   6.434   3.927 -0.7182 -1.3120 -1.8797
18811TIP3    H277849   5.786   6.397   3.945 -0.1834  1.0389 -1.0917
18812TIP3   OH277850   3.898   5.352  13.964  0.3256 -0.1984 -0.2182
18812TIP3    H177851   3.908   5.264  13.929 -2.2097 -0.0185 -1.6450
18812TIP3    H277852   3.945   5.408  13.901  0.1706 -0.3478 -0.4690
18813TIP3   OH277853   5.732   1.880   4.492 -0.2685  0.1103 -0.7460
18813TIP3    H177854   5.703   1.818   4.558 -0.1448  0.1113 -0.6913
18813TIP3    H277855   5.793   1.831   4.438  0.2265  0.3296 -0.3919
18814TIP3   OH277856   5.103   5.620   4.812 -0.3429  0.8205  0.9501
18814TIP3    H177857   5.198   5.630   4.818  0.4596 -2.2377 -2.4349
18814TIP3    H277858   5.082   5.551   4.875  0.7796 -2.1188 -1.5967
18815TIP3   OH277859   2.472   2.682   5.739 -0.2309  0.3786  0.0531
18815TIP3    H177860   2.431   2.670   5.824  0.6859 -1.6547  0.2701
18815TIP3    H277861   2.433   2.762   5.704 -1.7960  0.3780  1.6809
18816TIP3   OH277862   4.472   2.606  16.832 -0.7829  0.0583  0.5015
18816TIP3    H177863   4.482   2.534  16.769  0.7674  1.0862 -0.4791
18816TIP3    H277864   4.384   2.640  16.815 -0.1622  0.7512 -1.6395
18817TIP3   OH277865   5.451   0.309   5.300  0.4367  0.0244  0.6318
18817TIP3    H177866   5.517   0.254   5.258  0.7480  0.2300  0.8538
18817TIP3    H277867   5.368   0.279   5.262  0.9033  2.4938 -2.8726
18818TIP3   OH277868   1.573   4.241  15.840 -0.0320 -0.6354 -0.1838
18818TIP3    H177869   1.576   4.203  15.752  0.4915  0.6158 -0.7415
18818TIP3    H277870   1.524   4.323  15.828 -0.7267 -0.8764  0.8730
18819TIP3   OH277871   5.956   0.521   0.252  0.5040  0.4970  0.2137
18819TIP3    H177872   5.965   0.448   0.313  1.0204 -0.6402 -1.1649
18819TIP3    H277873   5.981   0.598   0.303  0.6911 -0.3809  1.4951
18820TIP3   OH277874   0.103   2.886  12.480 -0.1786 -0.1848 -0.4449
18820TIP3    H177875   0.020   2.932  12.481  0.4231  0.9812 -1.1361
18820TIP3    H277876   0.167   2.952  12.508  0.7914 -0.3624 -2.0842
18821TIP3   OH277877   2.691   2.417  14.419  0.6344  0.1124  0.1225
18821TIP3    H177878   2.757   2.421  14.488  0.4594 -1.1784  0.3801
18821TIP3    H277879   2.648   2.332  14.431  0.0979  0.1877 -1.1106
18822TIP3   OH277880   2.711   1.061  10.925 -0.1158 -0.0171 -0.2933
18822TIP3    H177881   2.651   1.011  10.871 -0.6383  0.7065 -0.3963
18822TIP3    H277882   2.661   1.138  10.952  0.1221 -0.3864  1.2708
18823TIP3   OH277883   2.599   6.619   6.659 -0.5222  0.0306  0.2669
18823TIP3    H177884   2.553   6.699   6.684  1.1088  0.9201  0.5030
18823TIP3    H277885   2.657   6.645   6.588 -0.5602 -1.1321 -0.2182
18824TIP3   OH277886   6.396   1.530   5.760  0.3449 -0.3410 -0.7028
18824TIP3    H177887   6.461   1.592   5.728 -0.9524  0.6298 -1.5726
18824TIP3    H277888   6.315   1.553   5.713 -1.0615 -0.4105  1.5490
18825TIP3   OH277889   0.459   2.251   1.509 -0.7448  0.1029  0.0929
18825TIP3    H177890   0.421   2.168   1.480  1.0281 -0.4218 -0.8821
18825TIP3    H277891   0.443   2.311   1.437 -0.2768  0.0450 -0.0624
18826TIP3   OH277892   4.978   3.848  15.524  0.8383  0.2238  0.9722
18826TIP3    H177893   4.928   3.899  15.460 -3.5189 -1.0064  3.0466
18826TIP3    H277894   5.003   3.911  15.591  0.6616  0.5882  0.6992
18827TIP3   OH277895   1.159   1.090  13.347  0.5841 -0.2242  0.1508
18827TIP3    H177896   1.140   1.157  13.281 -0.4481 -1.1052 -0.4666
18827TIP3    H277897   1.163   1.139  13.429  1.8459  0.8869 -0.5149
18828TIP3   OH277898   0.213   4.855  12.238 -0.6671 -0.4632  0.4078
18828TIP3    H177899   0.255   4.833  12.321 -0.4101 -0.7616  0.1975
18828TIP3    H277900   0.285   4.870  12.177 -0.8609 -1.5133 -0.0967
18829TIP3   OH277901   6.135   0.817  16.663  0.2317  0.3722  0.0262
18829TIP3    H177902   6.176   0.902  16.651  3.0551 -0.9966 -0.9943
18829TIP3    H277903   6.206   0.761  16.697 -0.8661 -2.0812 -1.4365
18830TIP3   OH277904   2.298   2.831  17.097  0.5264 -0.1210  0.5188
18830TIP3    H177905   2.254   2.869  17.173 -1.0033 -0.5178 -0.1324
18830TIP3    H277906   2.349   2.903  17.060 -0.8490  0.8202  0.3794
18831TIP3   OH277907   1.262   3.163  11.563 -0.0190  0.0544 -0.6891
18831TIP3    H177908   1.254   3.205  11.649 -0.6765 -0.4209 -0.5126
18831TIP3    H277909   1.335   3.208  11.521  0.6211 -0.0479  0.3098
18832TIP3   OH277910   2.177   5.959   6.261  0.7600 -0.2859 -0.1957
18832TIP3    H177911   2.271   5.945   6.270  0.6190 -1.0496  0.2558
18832TIP3    H277912   2.143   5.872   6.240 -0.0413 -0.3888  1.4021
18833TIP3   OH277913   1.504   6.629  15.104 -0.1197 -1.1236  0.4312
18833TIP3    H177914   1.500   6.667  15.192 -1.0294 -1.3638  0.5028
18833TIP3    H277915   1.511   6.534  15.119 -2.9135 -1.4351  0.2974
18834TIP3   OH277916   4.734   6.690  14.076 -0.0910 -0.2237 -0.0236
18834TIP3    H177917   4.808   6.735  14.116 -0.3240 -1.2504  1.6933
18834TIP3    H277918   4.658   6.744  14.099 -0.0601 -0.0268 -0.3805
18835TIP3   OH277919   4.221   0.467   3.321  0.0383 -0.2084 -0.1184
18835TIP3    H177920   4.155   0.398   3.322 -0.0423 -0.1509 -0.7031
18835TIP3    H277921   4.178   0.541   3.366 -0.5695  0.0542 -1.0840
18836TIP3   OH277922   2.174   5.465  14.420 -0.4018 -0.8565 -0.4899
18836TIP3    H177923   2.164   5.370  14.411 -1.9681 -1.1820  2.9569
18836TIP3    H277924   2.267   5.478  14.439 -0.0036 -1.5622 -1.8390
18837TIP3   OH277925   0.906   0.458  12.240 -0.2584 -0.1211  0.2602
18837TIP3    H177926   0.829   0.402  12.252 -0.3565 -0.3090 -1.0969
18837TIP3    H277927   0.870   0.544  12.222 -0.1199  0.1298  1.1497
18838TIP3   OH277928   5.266   0.016   4.242 -0.5178  0.2966  0.4606
18838TIP3    H177929   5.314   0.033   4.323 -0.2178 -0.6659  0.4892
18838TIP3    H277930   5.205   0.090   4.235  0.4293  1.1464  0.8177
18839TIP3   OH277931   6.510   6.123   0.314 -0.2570  0.0881 -0.3226
18839TIP3    H177932   6.589   6.079   0.345  0.4280  2.0494  0.8448
18839TIP3    H277933   6.516   6.118   0.219  0.5834 -0.9405 -0.2370
18840TIP3   OH277934   1.533   4.303   3.740 -0.2073 -0.5018 -0.4255
18840TIP3    H177935   1.580   4.271   3.663  2.3645 -0.4041  0.9608
18840TIP3    H277936   1.524   4.226   3.796  0.7040 -0.0226  0.4234
18841TIP3   OH277937   3.248   3.810   0.220  0.0604  0.2639 -0.0892
18841TIP3    H177938   3.239   3.893   0.265  0.4715  1.7354 -2.5123
18841TIP3    H277939   3.178   3.809   0.155 -1.1765 -2.2362  1.1557
18842TIP3   OH277940   0.354   4.891   3.504 -0.1434  0.3238 -0.4000
18842TIP3    H177941   0.312   4.872   3.587  0.9917  0.2416  0.1754
18842TIP3    H277942   0.301   4.961   3.465 -1.3690 -0.4535 -0.1669
18843TIP3   OH277943   3.794   5.009   0.073  0.4090  0.0564  0.2737
18843TIP3    H177944   3.808   4.994   0.167 -0.1697  1.2855  0.5811
18843TIP3    H277945   3.795   4.922   0.034  0.6677 -0.4721  1.4213
18844TIP3   OH277946   5.572   5.325  16.539 -0.1048 -0.4465  0.1951
18844TIP3    H177947   5.531   5.298  16.620 -0.1702  0.5703  0.5169
18844TIP3    H277948   5.551   5.418  16.531 -0.9141 -0.7346 -1.4831
18845TIP3   OH277949   2.892   0.857   6.700  0.2159 -0.4057  0.3418
18845TIP3    H177950   2.840   0.778   6.691 -1.5301  0.7891 -0.6463
18845TIP3    H277951   2.876   0.906   6.620 -0.1879  1.7586  1.6543
18846TIP3   OH277952   5.042   4.015  15.740  0.4804  0.0273  0.4790
18846TIP3    H177953   5.018   3.978  15.825 -0.8666 -1.2225 -0.3913
18846TIP3    H277954   5.011   4.105  15.742 -0.1900 -0.2131  1.0607
18847TIP3   OH277955   6.451   3.416  12.751  0.0355  0.2406  0.5119
18847TIP3    H177956   6.391   3.341  12.757  0.0697  0.3226  2.1936
18847TIP3    H277957   6.408   3.476  12.690 -0.0241 -1.0929 -0.8114
18848TIP3   OH277958   4.902   6.098   5.391  0.3117 -0.6231 -0.3978
18848TIP3    H177959   4.931   6.037   5.459 -1.8612 -0.3049  0.9299
18848TIP3    H277960   4.838   6.048   5.341  0.1367 -0.1142 -0.6883
18849TIP3   OH277961   5.790   5.384   3.181  0.3405  0.0336 -0.2516
18849TIP3    H177962   5.779   5.291   3.201  1.6298 -0.0255  0.2283
18849TIP3    H277963   5.859   5.387   3.115  1.8944  0.7737  1.3488
18850TIP3   OH277964   5.647   3.093   2.567 -0.5660  0.1025  0.0293
18850TIP3    H177965   5.717   3.158   2.565  0.8994 -1.2796  2.0592
18850TIP3    H277966   5.646   3.061   2.657 -0.7085 -3.1252 -0.9687
18851TIP3   OH277967   2.468   3.740   1.841 -0.1736 -0.7336  0.1186
18851TIP3    H177968   2.492   3.649   1.859 -2.4591 -1.4625 -0.1795
18851TIP3    H277969   2.413   3.736   1.763  0.6952  1.0860 -0.6511
18852TIP3   OH277970   4.402   1.546   3.590 -0.3813 -0.4647 -0.4708
18852TIP3    H177971   4.463   1.545   3.665  0.1166 -0.7235 -0.8691
18852TIP3    H277972   4.459   1.550   3.514 -0.9088  0.7663 -0.8189
18853TIP3   OH277973   6.210   5.815  12.128  0.0376 -0.1938 -0.1248
18853TIP3    H177974   6.125   5.831  12.087  0.5455 -0.5013 -1.3560
18853TIP3    H277975   6.266   5.887  12.097  0.3330 -0.2287  0.3187
18854TIP3   OH277976   3.753   5.668  14.099 -0.1875  0.1585  0.1175
18854TIP3    H177977   3.766   5.684  14.192  1.5511  2.3106 -0.4013
18854TIP3    H277978   3.670   5.710  14.078  0.2730  1.2314  0.3953
18855TIP3   OH277979   6.326   5.495   1.234 -0.0538 -0.0504  0.7800
18855TIP3    H177980   6.364   5.519   1.318  0.3076  1.0788  0.3166
18855TIP3    H277981   6.389   5.526   1.169 -0.8774  0.1632  0.0595
18856TIP3   OH277982   1.808   2.402  12.352 -0.9773 -0.2863 -0.0424
18856TIP3    H177983   1.838   2.491  12.367 -2.6434 -0.1297  3.3844
18856TIP3    H277984   1.737   2.412  12.288 -0.9967  0.8348  0.1231
18857TIP3   OH277985   0.554   4.080  15.494  0.0535 -0.3293  0.1755
18857TIP3    H177986   0.567   3.986  15.507  1.7581 -0.1082  0.1769
18857TIP3    H277987   0.627   4.107  15.438 -0.6844  0.9139 -0.2259
18858TIP3   OH277988   2.605   4.947  15.723 -0.5527 -0.3076 -0.1116
18858TIP3    H177989   2.529   4.929  15.667 -1.4702  1.3238  0.5305
18858TIP3    H277990   2.656   4.866  15.722 -1.1898 -0.7468 -2.2809
18859TIP3   OH277991   6.224   5.077  15.465 -0.2031  0.1177 -0.0469
18859TIP3    H177992   6.211   4.983  15.474  0.3120  0.1140  0.8300
18859TIP3    H277993   6.304   5.095  15.515  0.1191  0.9086 -0.8317
18860TIP3   OH277994   1.935   2.650  15.128 -0.0836  0.6028  0.6079
18860TIP3    H177995   1.934   2.555  15.127  1.7033  0.5427  1.1333
18860TIP3    H277996   2.027   2.673  15.143 -0.0548  2.4303 -1.7483
18861TIP3   OH277997   6.129   4.031  15.027  0.8060 -0.2227  0.5857
18861TIP3    H177998   6.180   4.043  14.946  0.2528 -0.5257  0.1832
18861TIP3    H277999   6.186   4.064  15.096  1.1923  0.2633  0.0448
18862TIP3   OH278000   2.579   5.867   2.215 -0.4316 -0.8645  0.3677
18862TIP3    H178001   2.586   5.940   2.277  0.6315 -1.3009  0.7992
18862TIP3    H278002   2.636   5.892   2.142 -0.8958 -0.7952  0.0279
18863TIP3   OH278003   0.336   4.198  15.647 -0.2608 -0.2957 -0.0106
18863TIP3    H178004   0.408   4.166  15.593  0.2488  2.1715 -0.9370
18863TIP3    H278005   0.379   4.231  15.726 -0.1251  2.1782 -1.0203
18864TIP3   OH278006   4.338   5.912  14.058 -0.4004 -0.8573  0.2473
18864TIP3    H178007   4.394   5.989  14.051 -0.2088 -0.9821  0.3909
18864TIP3    H278008   4.360   5.874  14.143 -0.1705 -1.3216 -0.0149
18865TIP3   OH278009   2.780   3.892   6.314 -0.3658 -0.5146  0.0904
18865TIP3    H178010   2.831   3.818   6.346  1.2670  1.1106  1.4004
18865TIP3    H278011   2.695   3.882   6.357 -0.3715 -1.9020 -0.1851
18866TIP3   OH278012   2.899   3.988  12.502  0.2101 -0.4403 -0.2807
18866TIP3    H178013   2.823   3.932  12.489 -0.2184 -0.3446  1.5178
18866TIP3    H278014   2.962   3.933  12.548 -0.6005  0.7388  2.4308
18867TIP3   OH278015   4.537   5.874   5.912  0.3837  0.0819  0.5891
18867TIP3    H178016   4.627   5.895   5.937  0.7520 -0.6855 -0.0299
18867TIP3    H278017   4.483   5.924   5.972  1.2320 -0.2447  1.6538
18868TIP3   OH278018   6.182   6.466   0.426 -0.4423 -0.1079  0.2377
18868TIP3    H178019   6.166   6.491   0.517 -2.2438  0.6256 -0.2299
18868TIP3    H278020   6.274   6.487   0.410 -0.2490  0.2400  1.7362
18869TIP3   OH278021   6.529   5.767  14.980  0.1615 -0.0398  0.2437
18869TIP3    H178022   6.522   5.736  15.071  0.5298  0.7613  0.5593
18869TIP3    H278023   6.550   5.860  14.989  1.1251 -0.1541 -0.6582
18870TIP3   OH278024   4.556   3.375   1.174 -0.6532 -0.6318 -0.9220
18870TIP3    H178025   4.501   3.344   1.103 -0.8616  1.1768 -1.6041
18870TIP3    H278026   4.583   3.463   1.147  0.2164 -0.3531  0.7118
18871TIP3   OH278027   1.313   2.263  12.411  0.3753  0.1287  0.2503
18871TIP3    H178028   1.366   2.334  12.449  1.3857 -0.3870 -0.1476
18871TIP3    H278029   1.370   2.186  12.415 -0.6891 -0.6574  0.6094
18872TIP3   OH278030   3.666   4.436   4.357 -0.4997  0.0600  0.3805
18872TIP3    H178031   3.622   4.355   4.382 -2.2432  0.6091 -0.7478
18872TIP3    H278032   3.725   4.455   4.430 -1.8224 -0.9411  1.7599
18873TIP3   OH278033   0.184   1.134   6.515 -0.0418  0.5848  0.1910
18873TIP3    H178034   0.188   1.222   6.477 -0.3379  0.0757 -1.0906
18873TIP3    H278035   0.093   1.106   6.502  0.0525  0.0884  0.5682
18874TIP3   OH278036   0.010   2.700   4.849 -0.6467  0.3419 -0.3081
18874TIP3    H178037  -0.009   2.794   4.858 -0.4407  0.3447  0.1376
18874TIP3    H278038   0.012   2.668   4.939 -0.8423 -0.1179 -0.4680
18875TIP3   OH278039   4.646   6.427   2.354 -0.0655  0.4803  0.1373
18875TIP3    H178040   4.716   6.448   2.415 -2.8199 -0.0409  3.8949
18875TIP3    H278041   4.589   6.504   2.355 -1.9048 -0.8105  1.0561
18876TIP3   OH278042   0.432   5.836   2.938 -0.7331 -0.7157 -0.4387
18876TIP3    H178043   0.387   5.822   3.021  1.4348 -1.0747  0.7549
18876TIP3    H278044   0.402   5.764   2.883 -1.2840 -1.1953  0.4587
18877TIP3   OH278045   0.070   6.531  12.125 -0.1388 -0.2453  0.1583
18877TIP3    H178046   0.006   6.478  12.173 -0.9128  2.2597  2.1468
18877TIP3    H278047   0.021   6.565  12.050 -0.0177 -1.2816 -0.4000
18878TIP3   OH278048   5.044   0.143  16.059 -0.1851  0.4464 -0.3656
18878TIP3    H178049   5.020   0.108  16.145 -0.2833  0.5499 -0.3504
18878TIP3    H278050   5.072   0.066  16.010 -1.7836  0.0943 -0.8018
18879TIP3   OH278051   2.796   1.129   3.070  0.0978 -0.3868 -0.3898
18879TIP3    H178052   2.779   1.156   3.160  2.7581  0.0185  0.0589
18879TIP3    H278053   2.730   1.062   3.053 -1.7888  0.9532  1.1003
18880TIP3   OH278054   1.361   2.622   2.670  0.5701 -0.2045 -0.1639
18880TIP3    H178055   1.415   2.686   2.624  0.8945 -0.1907  0.2246
18880TIP3    H278056   1.331   2.667   2.749  1.2360 -0.6826  0.3823
18881TIP3   OH278057   4.626   2.627  11.404 -0.0770 -0.2307 -0.0808
18881TIP3    H178058   4.603   2.719  11.391  0.5109 -0.2373 -1.3084
18881TIP3    H278059   4.706   2.630  11.456 -0.2117 -0.0644  0.1206
18882TIP3   OH278060   0.124   4.470   2.130 -0.2750  0.2433  0.5236
18882TIP3    H178061   0.124   4.397   2.067 -1.2317  1.4492 -0.9526
18882TIP3    H278062   0.203   4.457   2.182  0.3683 -1.0161 -0.7084
18883TIP3   OH278063   6.261   6.231  14.856 -0.0683 -0.1374 -0.4035
18883TIP3    H178064   6.176   6.256  14.891 -0.1835 -0.9187 -0.1019
18883TIP3    H278065   6.291   6.308  14.809 -0.4523  0.5128  0.3977
18884TIP3   OH278066   6.472   6.688   1.162  0.1654  0.0213 -0.0203
18884TIP3    H178067   6.480   6.772   1.208 -0.1250  0.3937 -0.6413
18884TIP3    H278068   6.553   6.641   1.183 -0.8224 -0.7202  2.6421
18885TIP3   OH278069   5.021   2.136  11.530  0.6174 -0.5701 -0.2140
18885TIP3    H178070   5.026   2.090  11.613 -0.2045 -0.1306  0.1011
18885TIP3    H278071   4.928   2.134  11.508  0.6096  0.6162 -0.3581
18886TIP3   OH278072   4.199   0.545   0.591  0.3953 -0.0805 -0.2871
18886TIP3    H178073   4.292   0.554   0.570  0.5207  0.6720  0.5349
18886TIP3    H278074   4.162   0.632   0.577 -0.7401 -0.8644 -2.9640
18887TIP3   OH278075   0.160   0.553  15.866  0.6524  0.2282 -0.4940
18887TIP3    H178076   0.175   0.520  15.778  1.3057 -0.7771 -0.0330
18887TIP3    H278077   0.247   0.558  15.905  0.3779  0.7118  0.0750
18888TIP3   OH278078   3.698   5.568   2.416 -0.5825  0.1767 -0.5281
18888TIP3    H178079   3.785   5.568   2.375 -0.4232 -3.1449 -0.4242
18888TIP3    H278080   3.709   5.515   2.495 -2.2728  1.4489  0.6363
18889TIP3   OH278081   4.947   0.665  11.720 -0.4060 -0.0748  1.0393
18889TIP3    H178082   4.956   0.754  11.686  0.7435  0.1646  1.8867
18889TIP3    H278083   4.926   0.611  11.643  0.4289  0.6965  0.2406
18890TIP3   OH278084   3.939   1.390   4.894  0.0898 -0.2553  1.0424
18890TIP3    H178085   3.933   1.436   4.978 -2.4343 -0.5203  1.0853
18890TIP3    H278086   3.998   1.317   4.910  0.7298  0.4877  2.1920
18891TIP3   OH278087   1.024   2.622  13.709 -0.0348 -0.1753  0.0071
18891TIP3    H178088   0.957   2.678  13.671 -1.5763 -2.3541 -0.7106
18891TIP3    H278089   1.003   2.618  13.802  1.3319  1.9641  0.4806
18892TIP3   OH278090   1.441   5.239  12.451 -0.0152  0.0366 -0.1729
18892TIP3    H178091   1.377   5.240  12.380 -0.1563  0.8032 -0.0447
18892TIP3    H278092   1.439   5.328  12.486  0.5736 -0.1409  0.3261
18893TIP3   OH278093   3.664   4.794   0.522  0.5354 -0.5062  0.2193
18893TIP3    H178094   3.634   4.837   0.602 -1.4491 -0.1065 -0.6691
18893TIP3    H278095   3.588   4.798   0.463  1.2713 -2.5830 -0.9683
18894TIP3   OH278096   1.377   2.298   4.901  0.1063 -0.3874 -0.1879
18894TIP3    H178097   1.388   2.389   4.874  0.7422 -0.9284 -1.8428
18894TIP3    H278098   1.315   2.302   4.974 -2.1108  1.1121 -2.0248
18895TIP3   OH278099   0.194   1.217  11.669 -0.4742  0.7381  0.3029
18895TIP3    H178100   0.166   1.289  11.612  2.3483  0.0753 -2.1705
18895TIP3    H278101   0.265   1.254  11.722 -0.6807  0.4039  0.8232
18896TIP3   OH278102   5.657   2.195  11.944 -0.0428  0.2645 -0.2732
18896TIP3    H178103   5.598   2.255  11.989  0.2346  1.4996 -1.4993
18896TIP3    H278104   5.694   2.246  11.871  1.3202 -0.9479 -0.4944
18897TIP3   OH278105   4.913   4.705  13.022 -0.1379 -0.3449  0.2058
18897TIP3    H178106   4.970   4.640  12.982 -0.2226 -0.1024 -0.3202
18897TIP3    H278107   4.844   4.654  13.065  1.1137 -0.6907  1.8851
18898TIP3   OH278108   2.274   4.399   5.667 -0.0960  0.1762  0.3619
18898TIP3    H178109   2.251   4.445   5.747 -0.3584 -0.7036  0.8140
18898TIP3    H278110   2.369   4.401   5.664 -0.0734 -0.0015  0.8406
18899TIP3   OH278111   3.718   3.411  15.735 -0.2473  0.5062 -0.4152
18899TIP3    H178112   3.708   3.475  15.665 -0.2003  0.7454 -0.2051
18899TIP3    H278113   3.767   3.339  15.695 -2.0665 -0.3432 -1.2307
18900TIP3   OH278114   6.580   2.967   5.070 -0.3178 -0.4761 -1.0060
18900TIP3    H178115   6.663   3.003   5.037  1.0432 -3.1882 -0.7970
18900TIP3    H278116   6.529   2.949   4.991  0.6518 -1.7676 -1.3698
18901TIP3   OH278117   2.729   2.572   1.180  0.4630 -0.7535 -0.2689
18901TIP3    H178118   2.717   2.646   1.121  2.5431  0.4275  0.6842
18901TIP3    H278119   2.652   2.574   1.237 -0.4767 -0.5882 -1.4883
18902TIP3   OH278120   2.885   2.516   0.821  0.3431  0.8976 -0.1936
18902TIP3    H178121   2.856   2.457   0.752 -2.2006  0.8914  0.7943
18902TIP3    H278122   2.834   2.596   0.808  1.6618  1.8445  0.2133
18903TIP3   OH278123   0.994   5.293   1.288  0.3095  0.1658 -0.3596
18903TIP3    H178124   1.014   5.199   1.291 -0.0881  0.0893 -0.0931
18903TIP3    H278125   1.026   5.321   1.202  0.3816 -0.2228 -0.4627
18904TIP3   OH278126   5.069   4.416   1.994  0.0634 -0.1032 -0.2981
18904TIP3    H178127   5.141   4.354   1.998 -0.6761 -0.9939 -0.4497
18904TIP3    H278128   4.997   4.368   1.952 -0.4820  0.8976 -0.5608
18905TIP3   OH278129   2.466   5.711   2.384 -0.1407 -0.1887  0.5551
18905TIP3    H178130   2.402   5.757   2.438  0.3956 -0.2428  1.2368
18905TIP3    H278131   2.506   5.780   2.331 -1.0010 -0.2017 -0.1305
18906TIP3   OH278132   4.559   6.088  12.675  0.2064 -0.2125 -0.4226
18906TIP3    H178133   4.526   6.035  12.749 -0.1496 -0.4649 -0.7551
18906TIP3    H278134   4.543   6.033  12.598  1.3996 -0.3301 -0.5971
18907TIP3   OH278135   6.761   3.411   3.901 -0.1787  0.2846  0.2933
18907TIP3    H178136   6.766   3.506   3.897 -0.4892  0.3095  0.4553
18907TIP3    H278137   6.775   3.383   3.810 -1.7249  0.5748 -0.0667
18908TIP3   OH278138   2.709   5.031   2.935 -0.2882  0.3124  0.0225
18908TIP3    H178139   2.745   5.108   2.978 -0.4399  0.2019  0.3465
18908TIP3    H278140   2.784   4.994   2.887  0.7108 -1.2534  2.5608
18909TIP3   OH278141   0.592   4.765  13.638  0.3078 -0.2052  0.0522
18909TIP3    H178142   0.640   4.839  13.675  1.7146 -1.1323  0.1894
18909TIP3    H278143   0.630   4.688  13.682 -1.5678 -0.9799  0.4178
18910TIP3   OH278144   0.423   3.898   3.574  0.2146  0.3729 -0.3550
18910TIP3    H178145   0.472   3.929   3.498 -1.9430  2.0182 -1.1960
18910TIP3    H278146   0.425   3.971   3.636  2.7258 -1.2778  1.6868
18911TIP3   OH278147   5.548   2.534   1.011  0.4167  0.5866 -0.1536
18911TIP3    H178148   5.575   2.599   0.947  0.8614  1.7052  1.1320
18911TIP3    H278149   5.588   2.453   0.981  0.0262  0.9227 -1.6672
18912TIP3   OH278150   4.726   5.460  12.259  0.0911  0.7250  0.7893
18912TIP3    H178151   4.761   5.524  12.322  0.6711  0.5242  0.6797
18912TIP3    H278152   4.644   5.430  12.298 -1.9742  3.9352 -0.6729
18913TIP3   OH278153   3.510   2.045   2.057  0.3778  0.6763 -0.5504
18913TIP3    H178154   3.452   2.082   1.990 -0.4372  0.9508  0.2866
18913TIP3    H278155   3.555   2.120   2.095  2.7270  0.3346 -2.4349
18914TIP3   OH278156   2.078   2.465  15.787  1.1832  0.0291 -0.3368
18914TIP3    H178157   2.141   2.517  15.736  0.3226  1.8930  0.3895
18914TIP3    H278158   1.997   2.517  15.785 -0.3279 -2.1790 -1.0617
18915TIP3   OH278159   6.601   2.295  13.365  0.5938  0.5376  0.6252
18915TIP3    H178160   6.590   2.209  13.325  0.8189  1.0218 -0.5058
18915TIP3    H278161   6.677   2.285  13.422  1.7898  0.4405 -0.9039
18916TIP3   OH278162   3.677   2.658  11.231 -0.5550  0.1587  0.6647
18916TIP3    H178163   3.713   2.612  11.155 -2.8465  2.0150 -1.7705
18916TIP3    H278164   3.752   2.671  11.289  1.2581 -1.6332 -1.1106
18917TIP3   OH278165   4.162   2.335  14.366 -0.1949 -0.2030  0.4336
18917TIP3    H178166   4.105   2.259  14.370  1.5446 -1.5488  0.8869
18917TIP3    H278167   4.218   2.328  14.444  0.0641  1.5164  0.4585
18918TIP3   OH278168   4.435   6.570   1.789  0.1488 -0.0277 -0.2226
18918TIP3    H178169   4.360   6.566   1.849  0.2399  1.9925  0.0860
18918TIP3    H278170   4.405   6.624   1.716  1.1914  0.5669 -0.2294
18919TIP3   OH278171   2.712   4.068  12.861  0.0109  0.1035  0.8144
18919TIP3    H178172   2.670   4.092  12.944  0.8622  1.8481  0.7938
18919TIP3    H278173   2.650   4.097  12.794 -0.1251 -0.1619  0.8260
18920TIP3   OH278174   3.748   0.752   0.223 -0.4735  0.0569  0.3201
18920TIP3    H178175   3.774   0.838   0.256 -1.4123  0.0630  1.0955
18920TIP3    H278176   3.814   0.692   0.258 -1.5394  0.0343  2.4852
18921TIP3   OH278177   1.726   4.733   1.015 -0.0104  0.1272 -0.1891
18921TIP3    H178178   1.812   4.759   1.050  0.0761  3.3012 -2.3212
18921TIP3    H278179   1.701   4.657   1.067  3.8014 -0.5836  0.9289
18922TIP3   OH278180   5.575   5.273  10.755  0.2364 -0.3583 -0.1963
18922TIP3    H178181   5.505   5.266  10.690  0.5609 -0.6835 -0.5164
18922TIP3    H278182   5.579   5.185  10.794  0.5175 -0.3608 -0.2313
18923TIP3   OH278183   4.341   0.224   2.080  0.3192 -0.5025  0.1558
18923TIP3    H178184   4.356   0.173   2.160 -1.6284  0.2115  1.0297
18923TIP3    H278185   4.247   0.224   2.068  0.5986 -1.1079 -2.5580
18924TIP3   OH278186   4.719   4.064   6.321  0.4983  0.2987 -0.1750
18924TIP3    H178187   4.765   3.994   6.275  1.1337  0.0108  0.8547
18924TIP3    H278188   4.651   4.092   6.260  0.4851 -0.9450 -0.7624
18925TIP3   OH278189   0.225   1.484   6.613 -0.0532 -0.2887  0.4006
18925TIP3    H178190   0.159   1.511   6.677  0.2546 -1.1455  1.0980
18925TIP3    H278191   0.174   1.463   6.535 -0.1917  5.0289 -1.3456
18926TIP3   OH278192   1.112   4.985   3.943  0.5519 -0.2042 -0.0077
18926TIP3    H178193   1.183   5.024   3.993  1.5097  1.5528 -2.5076
18926TIP3    H278194   1.148   4.904   3.908  0.9675  0.1515 -0.4055
18927TIP3   OH278195   1.743   4.599   5.588 -0.0773 -0.1069 -0.2679
18927TIP3    H178196   1.698   4.636   5.512 -0.9955  0.8246  0.6903
18927TIP3    H278197   1.805   4.667   5.614 -0.2050 -0.1657  0.1857
18928TIP3   OH278198   3.853   5.809  13.487 -0.1364  0.0002  0.8177
18928TIP3    H178199   3.793   5.785  13.557  1.3352 -1.4056  1.6541
18928TIP3    H278200   3.940   5.798  13.525  0.7086 -0.5332 -1.1432
18929TIP3   OH278201   3.010   4.651  11.509 -0.3016  0.1634 -0.2945
18929TIP3    H178202   2.923   4.685  11.489 -0.6671 -1.8527 -2.5775
18929TIP3    H278203   3.047   4.627  11.424  2.1902  0.1936  0.6846
18930TIP3   OH278204   0.580   1.299  15.895  0.6209  0.2580 -0.6967
18930TIP3    H178205   0.572   1.221  15.840 -0.9830 -0.8106  0.9291
18930TIP3    H278206   0.671   1.299  15.924  0.7416 -0.7799 -1.0518
18931TIP3   OH278207   4.053   5.109  15.822 -0.4500  0.0017  0.4123
18931TIP3    H178208   4.128   5.135  15.769  0.3081 -1.8499  0.5302
18931TIP3    H278209   4.077   5.135  15.911 -0.2817  0.1075  0.3367
18932TIP3   OH278210   4.888   2.932   5.732  0.0546  0.0457  0.2048
18932TIP3    H178211   4.874   2.965   5.821  0.0588 -0.6819  0.4812
18932TIP3    H278212   4.815   2.873   5.716  2.1640 -3.1697  1.3770
18933TIP3   OH278213   0.488   1.001   0.203  0.4620 -0.0628  0.2089
18933TIP3    H178214   0.489   1.000   0.299  1.9630 -2.7222  0.2656
18933TIP3    H278215   0.498   0.909   0.178 -0.2106  0.5142 -2.5283
18934TIP3   OH278216   2.083   4.812  16.337  0.5608  0.2721 -0.0600
18934TIP3    H178217   2.128   4.776  16.413  0.8728 -0.7703 -0.7141
18934TIP3    H278218   2.048   4.736  16.291  1.4012  0.7534 -1.5912
18935TIP3   OH278219   1.017   4.960  15.273 -0.0126  0.0101 -0.5709
18935TIP3    H178220   0.977   4.995  15.193 -0.2223 -0.0624 -0.4959
18935TIP3    H278221   1.075   4.891  15.241 -0.7090 -0.5745 -0.5967
18936TIP3   OH278222   1.739   3.331   0.421  0.2133 -0.1038 -0.4164
18936TIP3    H178223   1.722   3.389   0.495  0.8648 -2.3171  1.5807
18936TIP3    H278224   1.784   3.387   0.357  0.4667  1.6764  1.2295
18937TIP3   OH278225   3.727   3.205   0.269 -0.6581 -0.4802 -0.1333
18937TIP3    H178226   3.756   3.124   0.311 -1.4496 -1.0660 -0.6748
18937TIP3    H278227   3.634   3.191   0.253 -1.4014  1.5345  1.9996
18938TIP3   OH278228   1.896   4.856   0.328  0.1118  0.6479  0.6785
18938TIP3    H178229   1.807   4.858   0.294  0.3743  0.8304 -0.0164
18938TIP3    H278230   1.918   4.948   0.343  0.7419  0.7470 -0.6777
18939TIP3   OH278231   0.334   2.309   3.589  0.3427  0.8292  0.9214
18939TIP3    H178232   0.312   2.217   3.583 -1.1680  1.2269 -0.2657
18939TIP3    H278233   0.428   2.311   3.605  0.6974 -0.8935 -0.7103
18940TIP3   OH278234   1.524   3.298  12.396 -0.3604  0.0259 -0.2713
18940TIP3    H178235   1.586   3.279  12.326 -0.8268  0.8518 -0.9380
18940TIP3    H278236   1.570   3.276  12.476  0.0222 -1.3713 -0.8499
18941TIP3   OH278237   0.794   5.212  12.391  0.1663 -0.4102  0.2767
18941TIP3    H178238   0.813   5.303  12.415 -1.4334  1.0114 -3.1851
18941TIP3    H278239   0.715   5.190  12.441 -0.0485  0.5028  0.3567
18942TIP3   OH278240   3.280   1.755  16.177 -0.1380 -0.2183  0.4962
18942TIP3    H178241   3.189   1.725  16.172 -1.2072  2.1082  3.2452
18942TIP3    H278242   3.286   1.827  16.115 -0.7859  0.8821  1.6800
18943TIP3   OH278243   5.242   5.908  14.233 -0.5395 -0.3670 -0.0170
18943TIP3    H178244   5.287   5.977  14.185  1.1732 -0.0166  1.9936
18943TIP3    H278245   5.150   5.934  14.231 -0.5485 -0.2837 -2.8611
18944TIP3   OH278246   4.871   3.774  13.113 -0.1202 -0.2691  0.5407
18944TIP3    H178247   4.892   3.712  13.043  0.4664 -0.8093  1.1850
18944TIP3    H278248   4.852   3.720  13.189 -2.9443  0.2254  0.2690
18945TIP3   OH278249   6.092   2.492  15.265 -0.3010  0.1844 -0.3125
18945TIP3    H178250   6.111   2.426  15.198  1.3072  0.2155  0.0695
18945TIP3    H278251   6.084   2.574  15.216 -0.0358  0.0582 -0.5724
18946TIP3   OH278252   2.094   1.772   4.991  0.3224 -0.0564  0.0136
18946TIP3    H178253   2.041   1.774   4.911 -1.3148  2.7371  1.0422
18946TIP3    H278254   2.171   1.825   4.971  0.5519 -0.4257 -0.0925
18947TIP3   OH278255   1.311   2.481  14.053  0.2359  0.0872  0.5636
18947TIP3    H178256   1.287   2.436  13.972 -0.3499  0.6900  0.3941
18947TIP3    H278257   1.353   2.562  14.025  2.4288 -0.8910  0.8598
18948TIP3   OH278258   0.247   6.333   5.293 -0.0933 -0.7898  0.0482
18948TIP3    H178259   0.151   6.325   5.297 -0.0728 -0.8692  0.3635
18948TIP3    H278260   0.278   6.244   5.276 -0.0327 -0.8966  0.7009
18949TIP3   OH278261   4.239   3.626   6.167  0.2601 -0.7284  0.0786
18949TIP3    H178262   4.302   3.607   6.098  0.5461  0.0480  0.1140
18949TIP3    H278263   4.256   3.559   6.233 -1.0746 -2.4535 -1.2511
18950TIP3   OH278264   3.422   1.795  13.034  0.2012  0.2198  0.1937
18950TIP3    H178265   3.394   1.827  12.948  1.8603 -2.7431 -1.6077
18950TIP3    H278266   3.343   1.800  13.088 -0.8526  2.3042 -1.4121
18951TIP3   OH278267   1.425   4.404  15.084  0.9425 -0.7476 -0.2104
18951TIP3    H178268   1.412   4.497  15.063  0.8146 -1.1056 -1.8927
18951TIP3    H278269   1.341   4.362  15.063  1.4285 -1.4403 -0.8324
18952TIP3   OH278270   5.037   3.027  16.772 -0.1124 -0.1096  0.1597
18952TIP3    H178271   4.964   3.088  16.764 -0.0689 -0.0318  0.3501
18952TIP3    H278272   4.997   2.940  16.768 -0.2302 -0.0670  0.4065
18953TIP3   OH278273   2.021   3.455  14.927 -0.1069  0.3794 -0.6998
18953TIP3    H178274   2.070   3.405  14.992 -0.3347  1.3426  0.2258
18953TIP3    H278275   1.946   3.399  14.905  1.0495 -0.8615 -1.7103
18954TIP3   OH278276   1.634   4.106  17.116 -0.0468  0.1746 -0.4181
18954TIP3    H178277   1.633   4.180  17.176 -0.8926 -0.7804  0.8020
18954TIP3    H278278   1.577   4.041  17.157  2.2944 -1.9998 -0.3228
18955TIP3   OH278279   0.726   4.991  11.420 -0.0035 -0.3649 -0.3916
18955TIP3    H178280   0.635   5.012  11.399  0.0263  1.4851  1.0600
18955TIP3    H278281   0.776   5.025  11.346 -0.4900 -2.0008 -1.5277
18956TIP3   OH278282   2.704   5.919  12.319 -0.2762 -0.2569 -0.8065
18956TIP3    H178283   2.732   5.993  12.373  0.0379  0.1075 -1.4737
18956TIP3    H278284   2.608   5.917  12.330 -0.1500 -0.7275  0.4535
18957TIP3   OH278285   5.875   1.330   1.335 -0.3467  0.0128  0.1795
18957TIP3    H178286   5.808   1.397   1.329 -0.0507  0.2121 -1.2574
18957TIP3    H278287   5.926   1.339   1.255  0.2111 -1.3837  0.3375
18958TIP3   OH278288   5.741   1.521   5.157  0.6861  0.2386  0.4483
18958TIP3    H178289   5.698   1.568   5.085 -3.8359 -1.5625  1.6747
18958TIP3    H278290   5.800   1.586   5.195 -1.2605  3.2144 -1.1964
18959TIP3   OH278291   0.558   5.181   4.534 -0.0767 -0.4152  0.3381
18959TIP3    H178292   0.646   5.147   4.522 -0.6468 -2.0662  0.5600
18959TIP3    H278293   0.501   5.106   4.518 -1.5101  0.8624 -0.8077
18960TIP3   OH278294   1.751   0.951  16.728 -0.1745 -0.4354  0.2240
18960TIP3    H178295   1.839   0.969  16.697 -0.9480  0.8386 -1.4133
18960TIP3    H278296   1.757   0.866  16.772  1.6755 -0.7751 -0.6072
18961TIP3   OH278297   5.952   6.116  15.785 -0.0478 -0.1792  0.5592
18961TIP3    H178298   6.015   6.102  15.714 -0.0904 -0.5528  0.5896
18961TIP3    H278299   5.983   6.194  15.830 -0.6663  0.7671 -0.5773
18962TIP3   OH278300   4.514   0.993  14.108 -0.5562 -0.4451 -0.0892
18962TIP3    H178301   4.467   0.992  14.024  0.8604 -0.5334 -0.9221
18962TIP3    H278302   4.527   0.900  14.129  0.8622 -0.4532 -0.8532
18963TIP3   OH278303   2.971   6.488  11.805 -0.2779  0.1164 -0.1082
18963TIP3    H178304   2.985   6.466  11.897 -3.6318 -0.0713  0.4761
18963TIP3    H278305   2.923   6.413  11.770  1.4599 -0.1069 -2.2564
18964TIP3   OH278306   2.516   0.535  11.798 -0.5152 -0.0790 -0.6855
18964TIP3    H178307   2.526   0.466  11.732  0.5005  1.1054 -1.8264
18964TIP3    H278308   2.449   0.593  11.762 -0.4436  0.2136 -0.3534
18965TIP3   OH278309   4.683   3.517  15.273  0.4179  0.7190 -0.4453
18965TIP3    H178310   4.723   3.451  15.217  0.3050  0.9957 -0.8538
18965TIP3    H278311   4.747   3.588  15.275 -0.3704  1.4858 -1.7156
18966TIP3   OH278312   5.920   0.576   2.443  0.0285 -0.2864  0.6870
18966TIP3    H178313   5.951   0.666   2.448 -2.4413  0.6487  0.4957
18966TIP3    H278314   5.900   0.552   2.534 -1.7937  0.3665  0.5077
18967TIP3   OH278315   4.996   1.174   6.539  0.0949  0.0202 -0.5543
18967TIP3    H178316   5.054   1.103   6.568  0.0262 -0.6342 -1.9404
18967TIP3    H278317   4.934   1.132   6.480 -0.8630  0.9920 -0.2632
18968TIP3   OH278318   0.799   4.420   4.866  0.3925 -0.1744 -0.4057
18968TIP3    H178319   0.885   4.377   4.871  0.0912 -0.8601 -0.9627
18968TIP3    H278320   0.739   4.359   4.909  0.2386  0.4857  0.3425
18969TIP3   OH278321   4.279   2.649   2.117  0.0898  0.2814  0.5226
18969TIP3    H178322   4.219   2.647   2.043  0.4577 -1.3632  0.2237
18969TIP3    H278323   4.344   2.715   2.094  0.8553 -0.9947 -1.2162
18970TIP3   OH278324   6.673   5.446  13.511 -0.2344 -0.0823 -0.6328
18970TIP3    H178325   6.629   5.383  13.569 -2.1007 -1.5007 -3.3335
18970TIP3    H278326   6.653   5.531  13.548 -2.1462 -0.8860  0.3451
18971TIP3   OH278327   5.676   0.197   5.175  0.1209  0.3044 -1.0980
18971TIP3    H178328   5.622   0.128   5.213 -0.0611  0.2736 -1.4107
18971TIP3    H278329   5.765   0.177   5.204 -0.0179  0.2978 -0.6654
18972TIP3   OH278330   2.003   2.553  11.315 -0.3940  0.3701 -0.3322
18972TIP3    H178331   2.050   2.634  11.335 -1.6961  1.5470 -1.8048
18972TIP3    H278332   2.041   2.524  11.232 -0.2027 -0.3596 -0.0015
18973TIP3   OH278333   2.931   2.937   1.622 -0.1699  0.1121 -0.1426
18973TIP3    H178334   3.005   2.996   1.611 -1.0736  1.0604 -1.4472
18973TIP3    H278335   2.860   2.977   1.571 -1.2400 -1.3603  0.1140
18974TIP3   OH278336   0.384   2.439   2.373 -0.3502 -0.2079  0.6657
18974TIP3    H178337   0.296   2.408   2.353 -0.1096  0.8819 -2.7481
18974TIP3    H278338   0.371   2.526   2.411 -0.7503 -0.5546  1.3406
18975TIP3   OH278339   0.779   3.793  12.897  0.1551 -0.2336  0.0297
18975TIP3    H178340   0.794   3.699  12.907  0.5875 -0.0473  1.3815
18975TIP3    H278341   0.690   3.800  12.864  0.6135 -1.1566 -1.4809
18976TIP3   OH278342   2.817   0.015  13.708  0.8458  0.0352  0.0062
18976TIP3    H178343   2.872   0.014  13.630 -0.1056 -1.2108 -0.6675
18976TIP3    H278344   2.820  -0.074  13.741 -2.7936 -0.8375 -1.5538
18977TIP3   OH278345   0.184   5.917   0.684 -0.1987 -0.2748  0.5859
18977TIP3    H178346   0.104   5.968   0.668  0.1214 -0.2080 -0.9781
18977TIP3    H278347   0.192   5.913   0.779 -0.6003  2.0312  0.7568
18978TIP3   OH278348   5.092   2.486   2.746  0.2108 -0.4340  0.0425
18978TIP3    H178349   5.024   2.421   2.727 -0.5865  0.2760  0.4064
18978TIP3    H278350   5.059   2.568   2.708  2.2441 -0.6446 -2.5131
18979TIP3   OH278351   4.052   1.208  12.367  0.2938  0.4489 -0.0502
18979TIP3    H178352   4.066   1.302  12.372  0.7264  0.4189 -0.5804
18979TIP3    H278353   4.095   1.181  12.285  1.2824 -0.4003  0.7107
18980TIP3   OH278354   3.041   0.431   1.887  0.0946  0.3685  0.4345
18980TIP3    H178355   3.027   0.405   1.978  3.0720 -0.5278  0.7331
18980TIP3    H278356   3.040   0.527   1.890 -0.0448  0.3512  1.3837
18981TIP3   OH278357   4.243   3.471   5.237 -0.1413 -0.6624  0.1915
18981TIP3    H178358   4.182   3.431   5.176  0.3183 -0.6788 -0.2634
18981TIP3    H278359   4.233   3.420   5.317  0.0812 -1.3800 -0.2263
18982TIP3   OH278360   3.731   6.128   2.507  0.0007  0.1205 -0.4104
18982TIP3    H178361   3.716   6.050   2.452 -0.8606 -0.9876  1.3028
18982TIP3    H278362   3.643   6.159   2.529  0.2817  2.7917 -2.5792
18983TIP3   OH278363   3.054   6.422   3.843 -0.1776 -0.1784 -0.1907
18983TIP3    H178364   3.127   6.426   3.905  0.4204  1.0732 -0.9373
18983TIP3    H278365   3.095   6.400   3.759 -0.3940  2.0152 -0.9422
18984TIP3   OH278366   4.336   1.712   4.262 -0.1213  0.2220 -0.3788
18984TIP3    H178367   4.337   1.653   4.337  0.1861  0.4466 -0.2058
18984TIP3    H278368   4.244   1.722   4.240 -0.1292 -1.5952 -1.3983
18985TIP3   OH278369   6.220   3.280  16.799 -0.1401  0.7412  0.6153
18985TIP3    H178370   6.309   3.246  16.806 -0.5052 -0.3520  0.1636
18985TIP3    H278371   6.231   3.373  16.779  0.9525  0.1724 -1.8143
18986TIP3   OH278372   0.071   4.984   5.587 -0.1342  0.6410  0.2478
18986TIP3    H178373  -0.017   5.017   5.569 -0.9205 -2.1529 -1.6131
18986TIP3    H278374   0.058   4.919   5.656  0.3660 -0.2081 -0.4453
18987TIP3   OH278375   6.418   1.237  11.262 -0.3238 -0.0075  0.0886
18987TIP3    H178376   6.493   1.266  11.313 -1.1110  1.6149  0.3970
18987TIP3    H278377   6.455   1.188  11.189  0.8819 -1.3178  1.5208
18988TIP3   OH278378   6.690   5.299  12.158  0.5091  0.2202  0.4849
18988TIP3    H178379   6.731   5.242  12.094 -0.5537  1.7445 -1.6849
18988TIP3    H278380   6.598   5.276  12.156  0.2989  1.0097  0.6659
18989TIP3   OH278381   0.891   1.379   1.073 -0.0289 -0.0545  0.2932
18989TIP3    H178382   0.898   1.384   0.977  0.3940 -0.6962  0.2877
18989TIP3    H278383   0.981   1.384   1.104 -0.1263 -0.3754  0.6314
18990TIP3   OH278384   4.347   6.717  13.998 -0.0740 -0.1515  0.2993
18990TIP3    H178385   4.392   6.642  13.959  0.8229  0.2536  0.5364
18990TIP3    H278386   4.344   6.782  13.928  1.6517  0.6246  0.8904
18991TIP3   OH278387   0.022   4.191  12.785 -0.3239  0.5542 -0.0484
18991TIP3    H178388   0.025   4.241  12.704 -1.4367  0.4471 -0.1794
18991TIP3    H278389  -0.057   4.223  12.829 -0.2482 -0.0637  0.5448
18992TIP3   OH278390   4.846   4.091  12.246 -0.0020  0.0966 -0.2516
18992TIP3    H178391   4.803   4.035  12.311 -0.0185 -0.3710 -0.6575
18992TIP3    H278392   4.774   4.136  12.202 -0.0475 -0.2356 -0.5247
18993TIP3   OH278393   6.227   3.122  17.151  0.9338 -0.1971 -0.3805
18993TIP3    H178394   6.235   3.077  17.067  0.0442  0.8108 -1.0461
18993TIP3    H278395   6.314   3.158  17.169  0.6316  1.4787 -2.0195
18994TIP3   OH278396   4.554   2.858  14.074 -0.6569 -0.3307 -0.3837
18994TIP3    H178397   4.526   2.769  14.049  0.6401 -0.3231 -2.0544
18994TIP3    H278398   4.482   2.891  14.127 -0.7108 -2.7652  1.2392
18995TIP3   OH278399   1.578   2.922   5.983 -0.3918 -0.2387  0.2632
18995TIP3    H178400   1.559   3.015   5.969 -2.9490 -0.6512  0.4716
18995TIP3    H278401   1.500   2.889   6.028 -0.3738 -2.8901 -1.4678
18996TIP3   OH278402   6.134   1.773   4.927  0.6729 -0.5341  0.4909
18996TIP3    H178403   6.086   1.763   5.010 -1.2138 -0.4421 -0.5323
18996TIP3    H278404   6.076   1.825   4.872  2.1613 -0.0676 -0.7072
18997TIP3   OH278405   5.640   3.024   4.459  0.2110 -0.3745 -0.1614
18997TIP3    H178406   5.670   3.097   4.512  1.8634 -0.1583 -1.3021
18997TIP3    H278407   5.656   3.052   4.368 -0.8910 -1.4053 -0.7032
18998TIP3   OH278408   0.707   2.384   2.965  0.0780 -0.0695  0.0296
18998TIP3    H178409   0.719   2.448   3.035 -2.0023 -0.8714  1.1943
18998TIP3    H278410   0.787   2.332   2.966  0.3157  0.2910  1.4134
18999TIP3   OH278411   1.955   1.966  15.646  0.3330 -0.0240 -0.1340
18999TIP3    H178412   1.925   2.048  15.606 -1.7492 -1.4884 -1.8342
18999TIP3    H278413   1.947   1.981  15.740 -2.4906  0.9453 -0.4325
19000TIP3   OH278414   3.001   3.616   3.935 -0.2659 -0.1415 -0.3294
19000TIP3    H178415   3.004   3.696   3.987 -0.1200 -0.7561  0.6356
19000TIP3    H278416   3.093   3.589   3.927 -0.4070 -0.9598  0.5756
19001TIP3   OH278417   6.370   1.895  16.259  0.0938 -0.5481  0.3921
19001TIP3    H178418   6.291   1.948  16.267 -0.8314 -1.8156  0.0872
19001TIP3    H278419   6.343   1.807  16.285  1.2113 -1.1721 -0.4463
19002TIP3   OH278420   0.017   3.319   0.204 -0.1719  0.5188  0.2537
19002TIP3    H178421   0.057   3.341   0.288  0.1705  2.7815 -0.4367
19002TIP3    H278422   0.050   3.231   0.184  1.8848  1.0107  1.2386
19003TIP3   OH278423   2.043   0.638  13.774 -0.3339 -0.0208 -0.2263
19003TIP3    H178424   2.065   0.731  13.770  0.7229 -0.2298  0.4056
19003TIP3    H278425   2.007   0.618  13.688  1.2184  0.5376 -1.0389
19004TIP3   OH278426   5.143   6.509  17.190 -0.4890  0.3395  0.4894
19004TIP3    H178427   5.235   6.525  17.213 -0.1381 -0.5087 -0.2486
19004TIP3    H278428   5.131   6.557  17.108 -0.0709 -1.2173 -0.5374
19005TIP3   OH278429   4.204   6.235  16.349  0.3654  0.3887 -0.3766
19005TIP3    H178430   4.249   6.304  16.398 -0.4157  0.7081 -0.1025
19005TIP3    H278431   4.111   6.251  16.364  0.1773 -1.1868  0.3119
19006TIP3   OH278432   5.899   0.711   4.033 -0.2249  0.5958 -0.0225
19006TIP3    H178433   5.898   0.778   3.964  0.9867  0.7825  0.1141
19006TIP3    H278434   5.992   0.701   4.054 -0.4987 -0.2734  0.7984
19007TIP3   OH278435   2.206   0.751   0.587 -0.3951  0.2250 -0.5287
19007TIP3    H178436   2.268   0.793   0.528 -1.0923  0.2165 -1.2853
19007TIP3    H278437   2.260   0.715   0.657  0.2162  3.0959  0.6451
19008TIP3   OH278438   4.435   5.544  16.579  0.0980  0.5851 -0.0364
19008TIP3    H178439   4.397   5.457  16.595 -1.4983  0.7724 -2.4045
19008TIP3    H278440   4.371   5.605  16.615  0.4014  0.8430  0.0748
19009TIP3   OH278441   4.949   2.517   5.389 -0.0490  0.3161  0.7061
19009TIP3    H178442   4.970   2.572   5.465  1.2033  2.1477 -0.8556
19009TIP3    H278443   5.031   2.472   5.370  0.1362  1.1348 -0.5090
19010TIP3   OH278444   2.540   3.545   3.749  0.1314 -0.1008 -0.2711
19010TIP3    H178445   2.563   3.552   3.657  1.3802  0.5237  0.0697
19010TIP3    H278446   2.445   3.529   3.749  0.2797 -1.1427 -1.6771
19011TIP3   OH278447   0.138   5.770   5.577 -0.3283 -0.0784  0.1319
19011TIP3    H178448   0.208   5.832   5.560 -0.6601  0.1624 -0.3772
19011TIP3    H278449   0.183   5.686   5.592  0.3851  0.8280  4.1140
19012TIP3   OH278450   2.595   5.813   3.737 -0.5007  0.0000 -0.1923
19012TIP3    H178451   2.659   5.742   3.741  0.3548  0.7026 -0.9518
19012TIP3    H278452   2.544   5.794   3.658  0.0584  0.4842 -0.6804
19013TIP3   OH278453   3.494   3.233  12.607  0.1568 -0.1833 -0.0026
19013TIP3    H178454   3.479   3.268  12.519 -0.1133  0.6980  0.3822
19013TIP3    H278455   3.456   3.145  12.605 -1.9317  0.6620 -0.1060
19014TIP3   OH278456   3.414   4.076   1.140 -0.0030  0.0151  0.3948
19014TIP3    H178457   3.329   4.085   1.184 -0.2123  2.4066 -0.3164
19014TIP3    H278458   3.478   4.079   1.211 -0.4500 -0.0366  0.8113
19015TIP3   OH278459   3.500   4.011   1.743  0.3561 -0.1121 -0.6250
19015TIP3    H178460   3.444   4.084   1.716 -0.5438 -0.2901  0.6237
19015TIP3    H278461   3.502   3.952   1.668  2.3184  1.8567 -2.2192
19016TIP3   OH278462   3.966   4.454  15.904  0.0296 -1.0620 -0.0325
19016TIP3    H178463   3.923   4.539  15.903 -0.4591 -1.2953  0.5116
19016TIP3    H278464   4.055   4.473  15.935 -0.6677 -0.9746  2.1237
19017TIP3   OH278465   1.972   1.908   0.057 -0.0696  0.4429 -0.1799
19017TIP3    H178466   1.980   1.838  -0.007  1.0277  1.4953 -1.2523
19017TIP3    H278467   1.891   1.953   0.034  1.1731  1.8819 -2.0140
19018TIP3   OH278468   2.187   0.275  11.503 -0.4221  0.7681 -0.0008
19018TIP3    H178469   2.254   0.309  11.445 -1.0038 -0.7373 -1.6476
19018TIP3    H278470   2.106   0.282  11.453 -0.8486 -1.1315  0.3162
19019TIP3   OH278471   5.996   5.126   2.140 -0.3789 -0.2394  0.4230
19019TIP3    H178472   5.970   5.202   2.193 -1.0204 -0.4429  0.4055
19019TIP3    H278473   6.040   5.068   2.202 -0.0838  0.0481  0.4852
19020TIP3   OH278474   4.945   5.594  11.584 -0.5621  0.0807 -0.2229
19020TIP3    H178475   4.882   5.530  11.616 -1.2347  0.5534 -0.5913
19020TIP3    H278476   5.016   5.541  11.547  0.2995 -0.5009  2.0869
19021TIP3   OH278477   2.035   2.588   0.996 -0.2023  0.2968  0.0250
19021TIP3    H178478   1.996   2.621   0.915  1.4781  1.1819 -0.4900
19021TIP3    H278479   2.126   2.618   0.992  0.2399 -0.6914  1.6752
19022TIP3   OH278480   6.076   1.305  13.194 -0.2412 -0.2599  0.0610
19022TIP3    H178481   6.040   1.341  13.275  1.5666  0.2088  0.7011
19022TIP3    H278482   6.045   1.214  13.192 -0.5206 -0.2025  1.1533
19023TIP3   OH278483   1.300   3.029  14.480 -0.1256 -0.2229 -0.1078
19023TIP3    H178484   1.313   2.952  14.425 -1.6331  0.0188 -0.8714
19023TIP3    H278485   1.206   3.047  14.473  0.0233  1.0701  0.8790
19024TIP3   OH278486   5.530   6.129   5.913  0.3021  0.0197  0.4409
19024TIP3    H178487   5.515   6.035   5.919  1.0485 -0.1756 -0.4905
19024TIP3    H278488   5.616   6.137   5.873 -0.6844  1.0863 -1.6364
19025TIP3   OH278489   4.987   6.150   0.284 -0.0793  0.4350  0.3161
19025TIP3    H178490   4.939   6.229   0.258 -0.9641  1.2833  3.9793
19025TIP3    H278491   4.924   6.079   0.273 -0.2133  0.6425 -0.3355
19026TIP3   OH278492   3.932   6.568   3.260 -0.3400  0.1609 -0.3583
19026TIP3    H178493   3.944   6.481   3.224 -0.7691  0.1454 -0.4675
19026TIP3    H278494   4.010   6.582   3.314 -1.4633 -1.3210  1.7597
19027TIP3   OH278495   5.007   4.164   2.225  0.1288  0.0784 -0.2297
19027TIP3    H178496   5.003   4.248   2.271  0.3412  0.3281 -0.6578
19027TIP3    H278497   4.928   4.118   2.253 -0.8943  1.1115 -1.2972
19028TIP3   OH278498   5.767   6.600  11.873  0.3799  0.4208 -0.3824
19028TIP3    H178499   5.764   6.556  11.789  1.4788  0.5063 -0.4776
19028TIP3    H278500   5.836   6.666  11.864 -0.8297  1.7845 -0.0594
19029TIP3   OH278501   1.152   3.540   3.616 -0.1926 -0.2497  0.1055
19029TIP3    H178502   1.095   3.566   3.543  0.0022 -0.9341 -0.2956
19029TIP3    H278503   1.137   3.447   3.627  0.5767 -0.3661  0.2336
19030TIP3   OH278504   2.237   6.092   4.001 -0.4313 -0.1860 -0.3553
19030TIP3    H178505   2.225   6.058   3.912 -1.1166 -2.6557  0.6045
19030TIP3    H278506   2.290   6.026   4.046 -1.7670 -0.0055  1.6182
19031TIP3   OH278507   1.275   0.359  17.241  0.5760 -0.4377  0.2492
19031TIP3    H178508   1.348   0.353  17.178  0.2140 -1.2755 -0.1076
19031TIP3    H278509   1.211   0.416  17.198  0.0148 -1.5862 -0.4888
19032TIP3   OH278510   0.231   4.354   3.976 -0.1207  0.7031  0.0340
19032TIP3    H178511   0.299   4.420   3.965  1.2628  0.1178  3.5770
19032TIP3    H278512   0.260   4.280   3.923  0.4195  1.5032 -0.8146
19033TIP3   OH278513   6.533   3.946  16.119  0.1344 -0.8521 -0.0557
19033TIP3    H178514   6.555   3.903  16.036  0.2501 -0.7101 -0.1004
19033TIP3    H278515   6.599   3.914  16.180 -0.3845 -1.5177  0.1637
19034TIP3   OH278516   5.836   4.350  16.329  0.5112 -0.1497  0.0855
19034TIP3    H178517   5.809   4.433  16.290 -1.0422 -0.5411  0.2829
19034TIP3    H278518   5.761   4.322  16.381  1.7352 -0.6990  1.6588
19035TIP3   OH278519   5.474   5.749  16.967 -0.5381  0.4248 -0.3513
19035TIP3    H178520   5.432   5.689  16.905 -0.3438  0.7530 -0.8081
19035TIP3    H278521   5.520   5.812  16.912  0.8583 -0.1282  0.1360
19036TIP3   OH278522   0.850   0.528  15.478  0.0576  0.2649 -0.3853
19036TIP3    H178523   0.913   0.497  15.412 -0.2500  2.0067 -1.5921
19036TIP3    H278524   0.879   0.617  15.499 -1.2395  0.6218  0.0173
19037TIP3   OH278525   5.203   6.535  13.594  0.8363 -0.7898  0.3807
19037TIP3    H178526   5.199   6.612  13.537  1.3885  0.4121  1.9019
19037TIP3    H278527   5.245   6.468  13.540  1.0146  0.1897 -0.7445
19038TIP3   OH278528   0.284   1.725  15.104 -1.1069  0.8016 -0.0819
19038TIP3    H178529   0.239   1.681  15.177 -1.2704  1.9317  0.5149
19038TIP3    H278530   0.283   1.818  15.127 -0.0236  1.0442 -0.9204
19039TIP3   OH278531   5.404   5.545   6.189  0.0045  0.5080 -0.0868
19039TIP3    H178532   5.418   5.545   6.284 -1.6923  0.7440  0.1977
19039TIP3    H278533   5.419   5.635   6.163  2.4084  0.0808 -0.4107
19040TIP3   OH278534   4.565   3.163   3.424 -0.0319  0.3867  0.3040
19040TIP3    H178535   4.563   3.149   3.518 -1.1296  0.9958  0.3931
19040TIP3    H278536   4.610   3.247   3.413  0.5019  0.0987  0.2429
19041TIP3   OH278537   5.786   5.575  16.061 -0.4051 -0.2963 -0.6446
19041TIP3    H178538   5.702   5.536  16.086  1.0204 -3.3401 -0.1075
19041TIP3    H278539   5.807   5.635  16.133 -1.2985 -0.8304  0.0902
19042TIP3   OH278540   5.989   3.074  16.237  0.0967 -0.5451 -0.1414
19042TIP3    H178541   5.897   3.082  16.214  0.1402 -1.7374 -0.8125
19042TIP3    H278542   6.032   3.147  16.193 -0.6206  0.5107  0.8466
19043TIP3   OH278543   1.258   1.113   0.408 -0.5576  0.7502  0.3165
19043TIP3    H178544   1.292   1.125   0.496  0.1415 -1.9636  0.4885
19043TIP3    H278545   1.307   1.176   0.355  0.7053  0.7888  1.4789
19044TIP3   OH278546   6.644   0.139   3.475  0.0360  0.2571  0.9448
19044TIP3    H178547   6.596   0.091   3.543  0.7331 -1.6186  0.1816
19044TIP3    H278548   6.735   0.112   3.486 -0.0065 -1.3183 -1.5885
19045TIP3   OH278549   2.114   0.225   5.230  0.1767  0.0764  0.3238
19045TIP3    H178550   2.185   0.286   5.247  0.6428 -0.0838 -0.9061
19045TIP3    H278551   2.117   0.211   5.135 -0.0874 -1.6496  0.5394
19046TIP3   OH278552   3.325   0.569   6.650  0.2148  0.1466  0.3638
19046TIP3    H178553   3.269   0.646   6.640  1.4060  0.9772 -0.1110
19046TIP3    H278554   3.373   0.585   6.730 -0.5098 -0.7748  1.0065
19047TIP3   OH278555   2.361   4.420   2.266 -0.1977  0.2660 -0.4015
19047TIP3    H178556   2.304   4.469   2.326 -1.5507 -2.7825  1.0163
19047TIP3    H278557   2.449   4.437   2.299 -0.6706  1.1364  0.4890
19048TIP3   OH278558   4.106   5.116   4.811 -0.0316  0.8170 -0.2065
19048TIP3    H178559   4.163   5.063   4.866  2.0906  0.6644 -2.3844
19048TIP3    H278560   4.100   5.068   4.728 -1.9335  1.7042 -0.6516
19049TIP3   OH278561   0.473   1.862   1.658  0.5466 -0.1143  0.1997
19049TIP3    H178562   0.382   1.878   1.681  0.7682  0.6371  0.6031
19049TIP3    H278563   0.512   1.824   1.737  1.0080  1.2996  0.6909
19050TIP3   OH278564   1.448   2.781   0.151  0.0754  0.2606  0.1070
19050TIP3    H178565   1.440   2.688   0.172 -0.2105  0.5370  1.2790
19050TIP3    H278566   1.387   2.825   0.209 -1.1671  1.0587 -1.7097
19051TIP3   OH278567   4.525   1.210   2.757 -0.2758  0.1378  0.4593
19051TIP3    H178568   4.566   1.295   2.739 -2.0036  0.8520 -0.3419
19051TIP3    H278569   4.583   1.169   2.821  0.9473  1.6458  0.3920
19052TIP3   OH278570   3.678   5.711  11.983  0.0562 -0.3698 -0.0462
19052TIP3    H178571   3.593   5.691  12.021  0.3724 -0.5268  0.5927
19052TIP3    H278572   3.659   5.736  11.893 -0.4588 -2.5051 -0.5846
19053TIP3   OH278573   0.870   2.097  15.461  0.3597 -0.4281 -0.7048
19053TIP3    H178574   0.779   2.123  15.477  0.3628 -0.8170 -0.0194
19053TIP3    H278575   0.864   2.014  15.414  0.3557  0.4777 -2.3689
19054TIP3   OH278576   4.663   5.985  17.154 -0.6548  0.0683  0.1681
19054TIP3    H178577   4.689   6.019  17.068  1.6541 -0.0691  0.7403
19054TIP3    H278578   4.718   5.907  17.166 -2.5184 -1.1939  0.8512
19055TIP3   OH278579   4.020   0.023   3.578  0.1768  0.0020  0.2092
19055TIP3    H178580   3.977   0.029   3.492 -1.4202  0.5944  1.0065
19055TIP3    H278581   4.057   0.110   3.592  0.6051 -0.1519  0.0474
19056TIP3   OH278582   0.113   2.389  12.793 -0.3076  0.2523  0.4450
19056TIP3    H178583   0.207   2.390  12.813 -0.1189 -0.8550 -0.3560
19056TIP3    H278584   0.098   2.471  12.746 -0.0929  1.2443  2.0066
19057TIP3   OH278585   0.970   2.923   4.815  0.0425  0.0680 -0.0356
19057TIP3    H178586   0.916   2.914   4.894 -0.5170 -2.2940 -0.6078
19057TIP3    H278587   0.976   3.017   4.801 -0.6254  0.5226  2.2871
19058TIP3   OH278588   4.804   4.250   5.104  0.2800  0.1240 -0.2501
19058TIP3    H178589   4.825   4.311   5.033 -0.7736  1.0536  0.2033
19058TIP3    H278590   4.819   4.164   5.066  3.4344  0.6135 -0.4062
19059TIP3   OH278591   3.500   6.177   4.569  0.2354  0.9076  0.4437
19059TIP3    H178592   3.469   6.114   4.634  2.3115  0.7265  1.3623
19059TIP3    H278593   3.584   6.142   4.541  0.1589  1.8806 -1.0912
19060TIP3   OH278594   2.083   2.258  11.917 -0.1732 -0.0021  0.1530
19060TIP3    H178595   2.160   2.209  11.887  0.6299  1.6350 -0.5312
19060TIP3    H278596   2.087   2.341  11.870 -2.4447  0.0817  0.0158
19061TIP3   OH278597   0.480   5.934  16.710  0.2176 -0.1393 -0.0084
19061TIP3    H178598   0.413   5.871  16.685 -0.0633  1.2520 -3.3105
19061TIP3    H278599   0.560   5.902  16.667  0.1744  1.3780 -1.3421
19062TIP3   OH278600   2.189   3.330   2.072  0.0819  0.5434 -0.2625
19062TIP3    H178601   2.218   3.346   2.161 -1.2426 -1.0583  0.5015
19062TIP3    H278602   2.115   3.389   2.059  0.8979  1.4913 -0.6696
19063TIP3   OH278603   5.345   5.468  11.658 -0.1077 -0.4178 -0.1202
19063TIP3    H178604   5.275   5.449  11.596 -1.0271 -0.2357  0.8253
19063TIP3    H278605   5.368   5.559  11.640  1.3170 -1.0756 -1.7815
19064TIP3   OH278606   6.115   2.974   5.332  0.6508  0.2513 -0.5351
19064TIP3    H178607   6.177   3.046   5.332  1.3570 -0.2294  2.1521
19064TIP3    H278608   6.160   2.903   5.286  0.4480  1.0933 -2.0889
19065TIP3   OH278609   1.719   0.864  11.787  0.0817  0.6158  0.7391
19065TIP3    H178610   1.654   0.932  11.769  1.4080  2.2801  1.9667
19065TIP3    H278611   1.681   0.813  11.859 -0.5077  0.6236  0.4395
19066TIP3   OH278612   4.623   1.632   6.723 -0.5651  0.2102  0.0874
19066TIP3    H178613   4.688   1.579   6.769  0.1728  1.9927  1.2317
19066TIP3    H278614   4.662   1.648   6.637 -0.6831 -0.8526 -0.1768
19067TIP3   OH278615   6.086   6.059  13.733 -0.4427 -0.2528  0.4322
19067TIP3    H178616   6.111   5.981  13.683 -3.0642 -1.0530  0.2139
19067TIP3    H278617   6.168   6.103  13.753  0.8736 -1.1135 -2.6255
19068TIP3   OH278618   3.740   5.543   1.698  0.2240  0.2544  0.4448
19068TIP3    H178619   3.799   5.533   1.772  0.5707 -0.5589  0.0712
19068TIP3    H278620   3.791   5.514   1.622 -0.2132  0.8215 -0.0711
19069TIP3   OH278621   2.044   6.714  13.071  0.1120  0.0408  0.4342
19069TIP3    H178622   2.102   6.644  13.040 -0.1693  0.3291 -0.7988
19069TIP3    H278623   2.079   6.737  13.157  0.6859 -1.0755  0.5283
19070TIP3   OH278624   3.352   2.969   0.687  0.0969 -0.1059  0.2467
19070TIP3    H178625   3.374   2.876   0.697  0.1657 -0.4331 -2.1897
19070TIP3    H278626   3.437   3.012   0.681  0.0724 -0.0981 -0.0638
19071TIP3   OH278627   5.100   6.369  11.493  0.0412  0.3397  0.0480
19071TIP3    H178628   5.156   6.298  11.522  0.1676  0.4425  0.0532
19071TIP3    H278629   5.130   6.446  11.541  0.6202  0.6354 -0.7600
19072TIP3   OH278630   1.037   4.312   0.229 -0.0852  0.0680  0.2425
19072TIP3    H178631   1.071   4.294   0.142 -2.7863 -0.8650 -0.7324
19072TIP3    H278632   1.085   4.253   0.287 -1.0794 -2.3896 -1.2769
19073TIP3   OH278633   0.474   5.438   1.872  0.0932 -0.2491 -0.1767
19073TIP3    H178634   0.509   5.349   1.874 -0.2114 -0.3811 -0.5280
19073TIP3    H278635   0.535   5.486   1.816  1.1395  0.1603  1.2729
19074TIP3   OH278636   0.965   1.646   2.430 -0.2181  0.8877 -0.0525
19074TIP3    H178637   0.907   1.679   2.499 -0.6447  1.7671 -0.8105
19074TIP3    H278638   1.033   1.713   2.421 -0.2781  0.8774 -0.6247
19075TIP3   OH278639   5.295   3.056   5.832  0.1079 -0.1089 -0.2278
19075TIP3    H178640   5.254   3.106   5.761 -0.3747 -0.2270 -0.0392
19075TIP3    H278641   5.314   2.971   5.792  0.6861  0.1341 -0.4738
19076TIP3   OH278642   1.921   4.797   5.669  0.5098 -0.0825  0.5369
19076TIP3    H178643   1.977   4.769   5.596  0.1837 -0.4961  0.4433
19076TIP3    H278644   1.978   4.853   5.722  0.1443  2.0376 -1.1707
19077TIP3   OH278645   3.440   4.802   1.540  0.2828  0.0100 -0.9932
19077TIP3    H178646   3.480   4.740   1.479 -0.5369 -2.1655  0.5290
19077TIP3    H278647   3.456   4.764   1.626  0.2495  2.2817  0.0923
19078TIP3   OH278648   4.505   2.644   5.175 -0.4401 -0.1835 -0.0218
19078TIP3    H178649   4.486   2.733   5.204  0.2736 -0.6661  2.1795
19078TIP3    H278650   4.600   2.635   5.184 -0.6448 -1.5801  1.2887
19079TIP3   OH278651   6.780   3.134   0.678 -0.4534  1.0251  0.0319
19079TIP3    H178652   6.828   3.132   0.761 -0.1531  1.7019 -0.1235
19079TIP3    H278653   6.696   3.173   0.700 -0.7246  0.3698  0.1897
19080TIP3   OH278654   4.379   4.527  17.201  0.4692  0.5158  0.0495
19080TIP3    H178655   4.331   4.609  17.216 -0.0930  0.2806 -0.4271
19080TIP3    H278656   4.431   4.543  17.122  0.0880  0.2979 -0.2471
19081TIP3   OH278657   1.062   1.198  14.510  0.2969 -1.3343 -0.3746
19081TIP3    H178658   1.116   1.134  14.556  0.8206 -0.4410  0.3069
19081TIP3    H278659   1.115   1.224  14.435  0.5336 -0.9526 -0.0798
19082TIP3   OH278660   1.503   4.328   6.033  0.1601  0.2457 -0.0142
19082TIP3    H178661   1.563   4.344   5.960 -0.3728 -1.5086 -0.8728
19082TIP3    H278662   1.507   4.234   6.048 -1.5705  0.2399  0.6285
19083TIP3   OH278663   6.489   4.874   0.012  0.5037 -0.2848  0.0887
19083TIP3    H178664   6.438   4.847  -0.065  1.0376  1.3667 -0.9060
19083TIP3    H278665   6.567   4.916  -0.025 -0.9103  3.9754  1.3144
19084TIP3   OH278666   6.585   1.892  15.426  0.5491  0.1274  0.2573
19084TIP3    H178667   6.667   1.874  15.473 -0.3079  1.1719  2.2778
19084TIP3    H278668   6.603   1.972  15.377  1.5066 -1.0612 -1.4155
19085TIP3   OH278669   3.325   0.878   4.899  0.6154  0.2388  0.7060
19085TIP3    H178670   3.243   0.927   4.898 -0.0558 -0.7986  2.0972
19085TIP3    H278671   3.392   0.945   4.918 -0.0540  0.8977  0.8016
19086TIP3   OH278672   4.044   3.106   2.115 -0.1401 -0.5624 -0.5362
19086TIP3    H178673   3.953   3.135   2.111 -0.7778 -2.2265  0.6625
19086TIP3    H278674   4.054   3.071   2.204  1.9855  0.5195 -0.2970
19087TIP3   OH278675   1.412   2.682   3.252 -0.0015 -0.4262 -0.2356
19087TIP3    H178676   1.454   2.631   3.321 -0.7620 -0.3903  0.2669
19087TIP3    H278677   1.432   2.634   3.172 -1.3562 -1.9823  0.3010
19088TIP3   OH278678   3.299   3.947  15.148  0.5156 -0.2741 -0.1247
19088TIP3    H178679   3.222   3.966  15.095  1.4869  0.9248 -1.1856
19088TIP3    H278680   3.372   3.947  15.085  1.3956 -1.2699  0.8549
19089TIP3   OH278681   1.564   0.674  16.433 -0.5734  0.2047  0.2063
19089TIP3    H178682   1.561   0.669  16.529 -0.3019 -0.4517  0.1892
19089TIP3    H278683   1.578   0.584  16.405  0.4585  0.5481 -0.4139
19090TIP3   OH278684   3.133   3.191   2.889 -0.5024 -0.4069 -0.1893
19090TIP3    H178685   3.161   3.101   2.906  0.9936  0.1547  0.4937
19090TIP3    H278686   3.076   3.213   2.963  0.2281 -0.3610  0.3764
19091TIP3   OH278687   2.931   4.833   2.386  0.4067 -0.2071 -0.1364
19091TIP3    H178688   2.962   4.838   2.476 -0.1594 -1.0765  0.1233
19091TIP3    H278689   2.950   4.919   2.349  1.0895 -0.0034  0.6630
19092TIP3   OH278690   0.927   6.325   4.234  0.1545 -0.3783 -0.1382
19092TIP3    H178691   1.014   6.287   4.219  1.8022  2.2364  1.9086
19092TIP3    H278692   0.886   6.267   4.298  0.0064 -2.0450 -1.6619
19093TIP3   OH278693   3.216   0.193   3.253  0.1457  0.0185  0.1959
19093TIP3    H178694   3.295   0.141   3.266  1.1568  1.9884  3.0076
19093TIP3    H278695   3.238   0.280   3.288 -3.2394  0.6261  1.2094
19094TIP3   OH278696   6.273   6.329   3.840  0.0224  0.2725  0.0726
19094TIP3    H178697   6.188   6.335   3.883  0.3841  0.6632  0.7725
19094TIP3    H278698   6.279   6.408   3.786  0.5214  1.0237  1.1710
19095TIP3   OH278699   6.545   1.448  15.190  0.5611  0.1299  0.4111
19095TIP3    H178700   6.473   1.390  15.214  0.9315 -0.6136 -0.2155
19095TIP3    H278701   6.624   1.396  15.208  0.9198  0.6143  0.2736
19096TIP3   OH278702   3.826   6.473  14.128  0.4019  0.1160  0.1956
19096TIP3    H178703   3.855   6.436  14.045 -0.4131  0.0154 -0.0566
19096TIP3    H278704   3.800   6.398  14.181  2.6088  0.0223  1.2547
19097TIP3   OH278705   1.410   4.541   3.669  0.6764  0.0112 -0.4147
19097TIP3    H178706   1.437   4.470   3.727 -0.0245 -0.0885 -0.2004
19097TIP3    H278707   1.338   4.584   3.716  1.5391  1.3016 -0.2196
19098TIP3   OH278708   6.429   4.590   0.732 -0.1631  0.5127  0.1052
19098TIP3    H178709   6.425   4.548   0.817  0.0158  1.1080  0.4130
19098TIP3    H278710   6.341   4.624   0.717 -0.3323 -0.0291 -0.1844
19099TIP3   OH278711   3.816   3.206  13.338  0.6213 -0.7330 -0.6703
19099TIP3    H178712   3.743   3.214  13.277  0.9480  0.1830 -0.9468
19099TIP3    H278713   3.774   3.191  13.423  0.0650  0.5631 -0.6914
19100TIP3   OH278714   1.058   5.621  12.726  0.6968  0.2848 -0.0338
19100TIP3    H178715   1.055   5.529  12.752  0.6036  0.2483 -0.1729
19100TIP3    H278716   0.970   5.654  12.744  0.2025 -0.0939 -1.5745
19101TIP3   OH278717   2.960   6.607  13.528  0.1588 -0.0362  0.0941
19101TIP3    H178718   2.986   6.517  13.551 -0.9082 -0.4312 -0.1862
19101TIP3    H278719   3.034   6.641  13.478 -0.1050 -1.3694 -1.2797
19102TIP3   OH278720   2.676   1.102   4.124  0.7736  0.7860 -0.4599
19102TIP3    H178721   2.631   1.024   4.089  0.5492  1.0336 -0.7262
19102TIP3    H278722   2.696   1.079   4.214  1.4189  0.1095 -0.7661
19103TIP3   OH278723   4.763   3.348   4.411  0.2194  0.5716 -0.1529
19103TIP3    H178724   4.723   3.363   4.326 -0.8507 -1.1636  0.0062
19103TIP3    H278725   4.703   3.389   4.474  1.7051  3.0839 -0.2601
19104TIP3   OH278726   6.073   0.187  14.396  0.5409  0.2126  0.6726
19104TIP3    H178727   6.009   0.116  14.394 -1.1577  1.5507  2.4905
19104TIP3    H278728   6.032   0.257  14.345  0.9110  0.8078  1.1789
19105TIP3   OH278729   2.012   2.972  16.119  0.3350 -0.3113  0.1372
19105TIP3    H178730   1.959   2.895  16.101 -0.2733  0.1743 -0.2143
19105TIP3    H278731   1.951   3.046  16.107  0.3969  0.1523  2.2530
19106TIP3   OH278732   3.910   1.873  11.093  0.4745  0.1604 -0.3306
19106TIP3    H178733   3.861   1.894  11.172  0.4495 -0.6905 -0.1057
19106TIP3    H278734   3.845   1.876  11.023 -0.0228 -1.3334  0.0188
19107TIP3   OH278735   5.394   2.630   4.853  0.7928  0.0121  0.0898
19107TIP3    H178736   5.370   2.538   4.857  0.2946  0.1362  0.0874
19107TIP3    H278737   5.323   2.671   4.803  1.2273  0.3241 -0.2840
19108TIP3   OH278738   6.183   0.292  11.007 -0.4324 -0.4601  0.1530
19108TIP3    H178739   6.151   0.331  10.925  1.1518 -0.2567 -0.4010
19108TIP3    H278740   6.112   0.235  11.036 -1.0243 -0.5492 -1.3865
19109TIP3   OH278741   2.716   5.172  15.585 -0.2807 -0.0843 -0.4241
19109TIP3    H178742   2.676   5.089  15.612  1.0265 -1.3215 -2.0784
19109TIP3    H278743   2.808   5.163  15.609 -0.4560  1.7835  1.2479
19110TIP3   OH278744   3.521   0.536   3.595 -0.1326  0.0400 -0.5216
19110TIP3    H178745   3.454   0.602   3.581 -1.3324 -0.5479  1.9363
19110TIP3    H278746   3.485   0.479   3.663  1.5715 -2.1449 -1.3325
19111TIP3   OH278747   3.548   5.559  12.239  0.0347 -0.5568 -0.0180
19111TIP3    H178748   3.500   5.640  12.220  1.6833  0.3670 -0.4652
19111TIP3    H278749   3.608   5.583  12.310  0.4953 -1.3984 -0.1079
19112TIP3   OH278750   0.939   1.728  13.413 -0.2267 -0.1009  0.9562
19112TIP3    H178751   0.861   1.765  13.374 -0.7939 -0.6973  1.5043
19112TIP3    H278752   0.917   1.717  13.505  0.4397 -0.4440  1.0819
19113TIP3   OH278753   0.406   3.617   4.741 -0.9325 -0.4867 -0.0264
19113TIP3    H178754   0.366   3.633   4.826  1.0674  1.6784  0.6382
19113TIP3    H278755   0.490   3.576   4.761 -0.4867 -0.0572 -0.9497
19114TIP3   OH278756   4.080   1.600   0.485 -0.0311 -0.0215 -0.0028
19114TIP3    H178757   4.099   1.528   0.425 -1.7235 -2.6065  2.2797
19114TIP3    H278758   3.989   1.624   0.465  0.3767  1.2078 -0.4451
19115TIP3   OH278759   6.262   0.777  12.093 -0.5414  0.4358 -0.1246
19115TIP3    H178760   6.331   0.837  12.068  1.8954 -0.9577  2.6829
19115TIP3    H278761   6.217   0.820  12.166  1.4804 -1.1035  2.1798
19116TIP3   OH278762   1.197   5.565   0.188  0.0221 -0.1597  0.1031
19116TIP3    H178763   1.119   5.593   0.140  0.3505 -1.0302 -0.9902
19116TIP3    H278764   1.269   5.608   0.142  0.1663  1.4199  1.6914
19117TIP3   OH278765   5.369   2.702   2.507  0.0828 -0.9246 -0.2382
19117TIP3    H178766   5.425   2.711   2.430 -0.2350 -1.9048 -0.6012
19117TIP3    H278767   5.430   2.692   2.580  0.4081  1.2660 -0.1516
19118TIP3   OH278768   1.514   6.109  15.820 -0.0727 -0.3911 -0.4150
19118TIP3    H178769   1.522   6.022  15.780 -1.8624 -0.8528  0.1015
19118TIP3    H278770   1.436   6.102  15.875  1.3729  0.6770  1.9459
19119TIP3   OH278771   1.514   6.161   4.881  0.5062  0.1552 -0.5510
19119TIP3    H178772   1.481   6.092   4.823 -0.3378  1.2844 -1.4782
19119TIP3    H278773   1.595   6.191   4.840 -0.2849  1.2099 -1.3927
19120TIP3   OH278774   4.303   2.451  15.553  0.1539  0.2598  0.1747
19120TIP3    H178775   4.352   2.415  15.627 -1.0608 -1.6311  0.1434
19120TIP3    H278776   4.343   2.411  15.476 -0.1620  0.2653  0.0075
19121TIP3   OH278777   0.834   0.411   1.486  0.7672  0.0159 -0.0020
19121TIP3    H178778   0.781   0.358   1.546 -0.1178 -0.2389 -0.9735
19121TIP3    H278779   0.822   0.501   1.516  0.8600 -0.1627  0.5861
19122TIP3   OH278780   4.120   5.886   0.514  0.4386 -0.0864 -0.1028
19122TIP3    H178781   4.108   5.918   0.425  1.1395  0.1773 -0.1114
19122TIP3    H278782   4.215   5.874   0.523  0.2661 -1.5475  0.1133
19123TIP3   OH278783   1.052   3.574   5.844  0.3663 -0.1828 -0.5536
19123TIP3    H178784   0.998   3.559   5.922 -0.0890 -0.0073 -0.8293
19123TIP3    H278785   0.990   3.570   5.771  0.4909  1.3011 -0.7783
19124TIP3   OH278786   4.885   5.121  12.731 -0.7104 -0.3837  0.0341
19124TIP3    H178787   4.975   5.148  12.748 -1.1074  0.8905  0.2118
19124TIP3    H278788   4.868   5.053  12.796  0.1770 -0.7712 -0.1265
19125TIP3   OH278789   5.984   4.203   0.054 -0.2563 -0.4272 -0.4054
19125TIP3    H178790   6.074   4.180   0.073 -0.7618 -1.6071  0.7008
19125TIP3    H278791   5.957   4.143  -0.015 -1.2030 -2.5617  1.6549
19126TIP3   OH278792   5.824   3.207   1.343  0.0475  0.0282 -0.3048
19126TIP3    H178793   5.914   3.224   1.369  0.0282 -0.1815 -0.0995
19126TIP3    H278794   5.820   3.112   1.330  0.0315  0.1094 -0.9688
19127TIP3   OH278795   3.656   1.359  13.043 -0.2650 -1.1896  0.4118
19127TIP3    H178796   3.727   1.392  12.989  0.0123 -1.6371  0.4936
19127TIP3    H278797   3.696   1.346  13.129 -0.4899 -1.2767  0.5047
19128TIP3   OH278798   2.918   3.113  15.440 -0.2053  0.1634  0.0080
19128TIP3    H178799   3.014   3.109  15.443 -0.2391 -3.2173 -0.0738
19128TIP3    H278800   2.890   3.094  15.529 -0.8686  1.9274  0.2161
19129TIP3   OH278801   3.813   6.614   2.652 -0.0814  0.2226 -0.0673
19129TIP3    H178802   3.773   6.607   2.565  1.5504 -0.9180 -0.7670
19129TIP3    H278803   3.772   6.692   2.691 -1.3923  0.3273 -1.5385
19130TIP3   OH278804   5.712   1.524  11.601  0.0648 -0.2842  0.5211
19130TIP3    H178805   5.752   1.556  11.521  1.9880  0.7270  1.8275
19130TIP3    H278806   5.720   1.429  11.596  1.8167 -0.1479  0.2973
19131TIP3   OH278807   3.136   6.690  15.740  0.3305 -0.1942  0.2595
19131TIP3    H178808   3.087   6.642  15.806  0.3405 -1.4646 -0.6297
19131TIP3    H278809   3.093   6.776  15.737 -2.6166 -1.5677 -1.2334
19132TIP3   OH278810   3.523   2.077  12.305  0.1340 -0.6411  0.4745
19132TIP3    H178811   3.533   2.168  12.277  1.6865 -1.2087 -1.0368
19132TIP3    H278812   3.431   2.056  12.285  0.4131 -0.1237 -1.5748
19133TIP3   OH278813   6.294   2.968   3.471  0.1804 -0.4164 -0.0136
19133TIP3    H178814   6.387   2.986   3.487  0.2018 -1.5299  1.2483
19133TIP3    H278815   6.293   2.898   3.406  0.1919  0.0886 -0.5707
19134TIP3   OH278816   2.453   0.788   1.575 -0.3694 -0.1408 -0.1411
19134TIP3    H178817   2.510   0.801   1.651  0.4195 -0.7767 -0.6005
19134TIP3    H278818   2.424   0.876   1.552  1.7033  0.4300 -0.8317
19135TIP3   OH278819   0.656   6.683  15.178  0.2869 -0.5311  0.0769
19135TIP3    H178820   0.742   6.694  15.136  1.0607 -1.7108  1.2773
19135TIP3    H278821   0.621   6.772  15.181  1.0164 -0.1465 -1.3129
19136TIP3   OH278822   4.976   0.833   5.915 -0.7082  0.8911  0.4279
19136TIP3    H178823   5.016   0.848   5.830  2.7850  0.3129  1.8020
19136TIP3    H278824   4.938   0.918   5.939  0.3505  1.7256 -0.7275
19137TIP3   OH278825   5.760   2.815   4.847 -0.6081 -0.3061 -0.0396
19137TIP3    H178826   5.747   2.812   4.752  0.2320 -2.3475 -0.1348
19137TIP3    H278827   5.842   2.865   4.858  0.4314 -1.8126 -0.5741
19138TIP3   OH278828   1.597   6.415   3.921  0.0183 -0.4139 -0.1270
19138TIP3    H178829   1.564   6.452   3.839 -1.7308 -3.2837 -0.8833
19138TIP3    H278830   1.647   6.338   3.893  1.7666  0.0982  1.4175
19139TIP3   OH278831   2.841   1.381   0.548  0.2950  0.2527  0.1140
19139TIP3    H178832   2.805   1.404   0.633 -2.9189  0.0825 -1.0602
19139TIP3    H278833   2.866   1.465   0.509 -0.3049  0.5486  0.3636
19140TIP3   OH278834   5.222   3.038   0.579 -0.4568 -0.3271 -0.3036
19140TIP3    H178835   5.232   3.132   0.597 -0.2454 -0.6779  1.5257
19140TIP3    H278836   5.137   3.016   0.616 -0.5236 -0.8690 -0.7661
19141TIP3   OH278837   6.177   4.120   5.653 -0.3241 -0.8357 -0.1174
19141TIP3    H178838   6.238   4.140   5.725 -1.4987  2.1759  0.1868
19141TIP3    H278839   6.147   4.031   5.673  1.8375 -1.3722  1.2371
19142TIP3   OH278840   2.011   0.015   0.052 -0.2555  0.5260 -0.2450
19142TIP3    H178841   2.099  -0.003   0.019 -0.9774 -0.6097 -1.7019
19142TIP3    H278842   2.025   0.051   0.139  1.6363  0.1189 -0.3282
19143TIP3   OH278843   1.292   6.295   3.330 -0.5583  0.2007  0.1338
19143TIP3    H178844   1.249   6.345   3.261 -0.6523  1.6518  1.1943
19143TIP3    H278845   1.331   6.220   3.285 -0.5716  1.1314 -1.5027
19144TIP3   OH278846   4.928   4.887  11.687 -0.9937  0.2999 -0.0401
19144TIP3    H178847   4.933   4.892  11.591  3.1253 -1.0197 -0.1084
19144TIP3    H278848   4.927   4.978  11.716 -0.7516  0.7360 -1.3392
19145TIP3   OH278849   3.343   4.808  11.580  0.0022  0.5394  0.3520
19145TIP3    H178850   3.344   4.875  11.512  0.4622  0.8309  0.6411
19145TIP3    H278851   3.418   4.829  11.635  0.1269 -0.1953  0.4670
19146TIP3   OH278852   3.733   0.503  14.417  0.2358  0.1251 -0.2997
19146TIP3    H178853   3.802   0.446  14.451 -0.4314 -1.4881 -1.5595
19146TIP3    H278854   3.652   0.467  14.453 -0.0936  1.1062 -0.0295
19147TIP3   OH278855   2.503   2.671  13.795 -0.0620 -0.1544 -0.2726
19147TIP3    H178856   2.412   2.700  13.789 -0.4433 -1.2129  0.2090
19147TIP3    H278857   2.512   2.604  13.728  1.1870  1.8968 -2.3027
19148TIP3   OH278858   0.020   1.997  13.678  0.3048  0.0755  0.3569
19148TIP3    H178859  -0.049   1.932  13.695 -0.3704 -0.0494 -2.4453
19148TIP3    H278860  -0.021   2.081  13.698 -0.6089 -0.0179 -1.0482
19149TIP3   OH278861   6.075   5.718   4.519  0.5088 -0.6328 -0.1500
19149TIP3    H178862   6.130   5.704   4.442  1.8972 -1.6400  0.9660
19149TIP3    H278863   5.996   5.667   4.502  0.1984  0.2393 -1.4579
19150TIP3   OH278864   6.597   4.455   5.457 -0.3496  0.0848  0.3458
19150TIP3    H178865   6.655   4.531   5.472  0.6075 -0.4729 -0.3936
19150TIP3    H278866   6.654   4.390   5.416 -1.1090 -1.1250  1.1544
19151TIP3   OH278867   1.472   1.128   5.998 -0.6375  0.0004 -0.2295
19151TIP3    H178868   1.425   1.120   5.915 -0.8055 -0.4183 -0.0965
19151TIP3    H278869   1.423   1.194   6.047 -1.2862 -0.6623  0.0380
19152TIP3   OH278870   4.679   3.904  17.085  0.8995 -0.3470  0.0916
19152TIP3    H178871   4.592   3.926  17.053  0.7249 -0.0261  0.7516
19152TIP3    H278872   4.712   3.986  17.121  0.6825 -0.8790  1.6007
19153TIP3   OH278873   3.697   4.955   1.833  0.4597  0.0454  0.2704
19153TIP3    H178874   3.670   4.954   1.925 -0.4375 -0.4616  0.0144
19153TIP3    H278875   3.792   4.940   1.836  0.4289 -0.0338  1.1109
19154TIP3   OH278876   0.557   4.940   0.655  0.0295  0.1664 -0.4733
19154TIP3    H178877   0.503   4.862   0.662  1.0803 -0.4673  1.2578
19154TIP3    H278878   0.500   5.006   0.617 -1.4012 -0.9667 -0.3653
19155TIP3   OH278879   4.818   4.570   1.316  0.3982  0.0661 -0.2966
19155TIP3    H178880   4.823   4.537   1.226 -1.2998 -1.6942  0.1798
19155TIP3    H278881   4.910   4.575   1.344  0.8830 -1.0272 -1.5478
19156TIP3   OH278882   0.323   1.417   6.015  0.0081 -0.4576  0.0638
19156TIP3    H178883   0.277   1.333   6.023  1.3877 -1.5310 -2.2694
19156TIP3    H278884   0.414   1.396   6.034 -0.1443  1.5796  4.3023
19157TIP3   OH278885   2.927   3.038  15.696  0.1180  0.2670  0.0472
19157TIP3    H178886   2.915   3.116  15.751 -0.5356  0.4135 -0.2982
19157TIP3    H278887   2.896   2.966  15.749 -0.7445  0.4390 -0.2156
19158TIP3   OH278888   5.491   5.225   5.288 -0.4380 -0.0100  0.1520
19158TIP3    H178889   5.410   5.192   5.326  0.8855  0.5433  3.9550
19158TIP3    H278890   5.508   5.307   5.335  0.4533  1.9523 -3.2584
19159TIP3   OH278891   0.018   4.997  11.497  0.1228 -0.1179 -0.0651
19159TIP3    H178892   0.066   4.945  11.433  1.0615  0.1436  0.4091
19159TIP3    H278893  -0.034   4.933  11.547 -1.2337 -0.2508 -1.5600
19160TIP3   OH278894   0.141   5.572   6.577  0.4962 -0.5699  0.8580
19160TIP3    H178895   0.202   5.522   6.631  1.7251 -0.6413 -0.5159
19160TIP3    H278896   0.149   5.533   6.490  0.5790  1.2026  0.0254
19161TIP3   OH278897   3.279   6.594   3.610 -0.5043 -0.0560 -0.2054
19161TIP3    H178898   3.360   6.639   3.589 -1.4874  2.4274  0.9670
19161TIP3    H278899   3.247   6.637   3.690 -3.4709 -0.2159 -1.1834
19162TIP3   OH278900   3.756   2.866   3.831  0.1984 -0.0574  0.2845
19162TIP3    H178901   3.684   2.929   3.830  0.7541  0.6260  1.2645
19162TIP3    H278902   3.713   2.781   3.823 -0.8138  0.2787  1.7578
19163TIP3   OH278903   3.451   3.101  17.249  0.1285  0.0939  0.1355
19163TIP3    H178904   3.364   3.140  17.245  0.4437  0.9498  1.1508
19163TIP3    H278905   3.478   3.110  17.341  1.0811 -0.6089 -0.0516
19164TIP3   OH278906   1.949   6.466   1.927  0.4084  0.7617  0.2981
19164TIP3    H178907   2.012   6.395   1.925 -0.3026  0.1296 -0.9600
19164TIP3    H278908   1.873   6.430   1.973  0.8238  1.4220  1.5456
19165TIP3   OH278909   1.121   6.015  13.680 -0.1833  0.2177 -0.3003
19165TIP3    H178910   1.143   6.097  13.722  0.4633 -0.4813  0.7578
19165TIP3    H278911   1.168   6.017  13.596  0.9452  0.3306  0.3279
19166TIP3   OH278912   2.228   6.688   5.513 -0.3942  0.2483 -0.2649
19166TIP3    H178913   2.285   6.693   5.590  1.6829 -0.1687 -1.6764
19166TIP3    H278914   2.272   6.625   5.455 -1.9270  0.4792 -1.7587
19167TIP3   OH278915   1.524   2.183  15.922  0.0897 -0.0240 -0.1728
19167TIP3    H178916   1.452   2.166  15.982  1.8980  0.2798  2.2472
19167TIP3    H278917   1.564   2.096  15.908  0.8430  0.1611  0.7156
19168TIP3   OH278918   3.320   0.744   6.935 -0.2185  0.4068  0.1943
19168TIP3    H178919   3.239   0.789   6.956 -0.3918 -0.8698  2.7088
19168TIP3    H278920   3.357   0.720   7.020  0.3321 -3.2503 -0.8656
19169TIP3   OH278921   2.055   1.347  15.157 -0.1845 -0.0895 -0.4018
19169TIP3    H178922   2.066   1.440  15.174 -0.8570 -0.2009  0.6920
19169TIP3    H278923   2.006   1.314  15.232 -0.0479 -1.3070 -0.8260
19170TIP3   OH278924   6.020   0.668   5.539 -0.4335  0.0819 -0.1853
19170TIP3    H178925   5.926   0.651   5.532 -0.1655 -1.2807 -0.7912
19170TIP3    H278926   6.027   0.732   5.609 -1.9676  1.7291 -1.4252
19171TIP3   OH278927   1.984   0.139   2.864  0.1046 -0.5489  0.3189
19171TIP3    H178928   1.996   0.118   2.956 -1.1259  2.1441  1.1693
19171TIP3    H278929   2.060   0.192   2.841  0.2828 -1.0052 -0.1840
19172TIP3   OH278930   4.438   1.510  13.265 -0.0985 -0.5240 -0.0697
19172TIP3    H178931   4.454   1.585  13.322  0.5768  0.0559 -1.0021
19172TIP3    H278932   4.522   1.464  13.262  0.0722 -0.1575 -1.1445
19173TIP3   OH278933   5.799   4.403  12.451  0.7348 -0.3798  0.7880
19173TIP3    H178934   5.853   4.469  12.408  1.1744 -0.1450  1.6602
19173TIP3    H278935   5.726   4.452  12.489  0.6304 -0.5049  0.7494
19174TIP3   OH278936   3.645   4.819  11.424  0.0243 -0.5768 -0.2010
19174TIP3    H178937   3.642   4.791  11.516  2.5829  0.8368  0.4061
19174TIP3    H278938   3.638   4.914  11.427 -1.1766 -0.5818 -1.6238
19175TIP3   OH278939   1.102   1.366  13.258  0.4483 -0.2741  0.0906
19175TIP3    H178940   1.036   1.397  13.321 -0.4786 -0.2987 -0.8422
19175TIP3    H278941   1.051   1.334  13.184  1.4842 -1.6346 -0.0629
19176TIP3   OH278942   6.549   5.812   4.980  0.0085  0.0821 -0.4361
19176TIP3    H178943   6.616   5.845   5.040 -0.5532  0.1240  0.1765
19176TIP3    H278944   6.502   5.890   4.951 -0.5343 -0.0517  0.0617
19177TIP3   OH278945   3.562   3.931  14.985 -0.2723 -0.0907  0.1308
19177TIP3    H178946   3.602   4.000  15.038 -1.1651 -0.2168  0.9906
19177TIP3    H278947   3.609   3.851  15.011 -0.8736 -0.1930  0.9332
19178TIP3   OH278948   0.204   1.906  13.249  0.7886  0.1059 -0.1141
19178TIP3    H178949   0.141   1.886  13.318  0.3004 -0.7984 -0.8045
19178TIP3    H278950   0.185   1.996  13.224 -0.6110 -0.3290 -0.6860
19179TIP3   OH278951   4.351   4.393   6.696  0.1653 -0.4617 -0.0358
19179TIP3    H178952   4.297   4.314   6.692  0.3320 -0.5524 -3.6714
19179TIP3    H278953   4.397   4.395   6.613  3.3947  1.3459  1.5961
19180TIP3   OH278954   5.014   2.202  12.169  0.3371 -0.0048 -0.2436
19180TIP3    H178955   4.931   2.241  12.143  1.3695  2.1754 -0.4515
19180TIP3    H278956   4.998   2.168  12.257 -0.2448  2.2765  0.5897
19181TIP3   OH278957   6.073   3.880   0.034 -0.0621 -0.5814  0.4733
19181TIP3    H178958   6.023   3.925  -0.034  1.8688 -1.1408 -1.4464
19181TIP3    H278959   6.018   3.885   0.112 -2.3911  0.1016 -1.1107
19182TIP3   OH278960   1.881   4.044  13.912 -0.2294 -0.0770 -0.5414
19182TIP3    H178961   1.891   3.996  13.994 -1.0395 -1.4686 -1.2322
19182TIP3    H278962   1.953   4.014  13.857 -1.0950 -1.0068 -1.1990
19183TIP3   OH278963   5.481   3.443  15.090 -0.3429 -0.1510 -0.4460
19183TIP3    H178964   5.537   3.520  15.081  0.8923 -0.6732  1.9954
19183TIP3    H278965   5.536   3.370  15.060 -0.6853 -0.3637 -0.5635
19184TIP3   OH278966   0.936   3.109  15.246  0.6702 -0.2087  0.2999
19184TIP3    H178967   0.857   3.058  15.228 -2.4261  3.1695  2.8164
19184TIP3    H278968   0.926   3.188  15.194  3.5368 -0.4689 -0.8288
19185TIP3   OH278969   2.183   4.447   0.059 -0.0613 -0.2347  0.1541
19185TIP3    H178970   2.228   4.427   0.141 -0.5919  0.5544  0.6439
19185TIP3    H278971   2.173   4.542   0.059 -0.7358 -0.2962 -0.4692
19186TIP3   OH278972   3.860   5.844   3.137 -0.2321  0.0518  0.3374
19186TIP3    H178973   3.857   5.939   3.149 -1.1683  0.1632 -0.5934
19186TIP3    H278974   3.847   5.832   3.043  0.7860 -0.9707  0.2966
19187TIP3   OH278975   5.231   4.171   2.847  0.0827  0.4551  0.7877
19187TIP3    H178976   5.213   4.223   2.769  0.8567 -0.1300  0.2141
19187TIP3    H278977   5.145   4.137   2.873 -0.5768  2.5162  1.5738
19188TIP3   OH278978   6.496   4.624  13.435  0.3745 -0.3069  0.2256
19188TIP3    H178979   6.447   4.696  13.395  0.1466 -0.5092  0.1396
19188TIP3    H278980   6.429   4.559  13.458  0.5853 -0.5215  0.2381
19189TIP3   OH278981   0.834   4.529   1.893 -0.1993  0.4637  0.7253
19189TIP3    H178982   0.769   4.505   1.827  0.8418  0.9890 -0.5328
19189TIP3    H278983   0.886   4.450   1.906 -0.5764  0.2772  1.1519
19190TIP3   OH278984   2.235   6.761   3.284 -0.1804  0.7320  0.2513
19190TIP3    H178985   2.235   6.670   3.257 -0.9349  0.5780  0.7375
19190TIP3    H278986   2.174   6.765   3.358  2.0768  1.0461  2.2388
19191TIP3   OH278987   4.739   5.560  11.267  0.2431 -0.1574  0.1697
19191TIP3    H178988   4.832   5.578  11.257  0.0844  0.8060  0.2495
19191TIP3    H278989   4.705   5.562  11.177  0.2286 -0.0250  0.1771
19192TIP3   OH278990   2.530   6.120  16.912 -0.1187  0.2238  0.1701
19192TIP3    H178991   2.561   6.205  16.943  1.1075 -0.3824  0.6540
19192TIP3    H278992   2.509   6.071  16.992  2.9836 -1.3218  0.1830
19193TIP3   OH278993   0.804   4.974  14.067  0.2314  0.1660  0.1692
19193TIP3    H178994   0.855   4.948  14.144  1.5215  0.4311 -0.5619
19193TIP3    H278995   0.740   5.036  14.101  0.1794 -0.4112  1.1685
19194TIP3   OH278996   1.156   0.596   1.641  0.0794  0.2452  0.3230
19194TIP3    H178997   1.179   0.602   1.548 -2.7426 -2.8331 -0.7471
19194TIP3    H278998   1.116   0.681   1.661  2.3894  1.6624 -0.6379
19195TIP3   OH278999   1.074   2.058  10.840  0.3192  0.6705  0.1176
19195TIP3    H179000   1.121   2.092  10.764  2.5315  0.0437  1.1350
19195TIP3    H279001   1.135   1.997  10.881 -1.5913 -0.5738  1.2640
19196TIP3   OH279002   4.352   4.732   2.594  0.4252 -0.0537  0.1670
19196TIP3    H179003   4.337   4.741   2.500 -1.1442  0.9296  0.4931
19196TIP3    H279004   4.444   4.755   2.605  0.9297 -1.2064 -1.2418
19197TIP3   OH279005   1.146   2.864  15.119  0.7143  0.0905 -0.0792
19197TIP3    H179006   1.184   2.950  15.132 -0.2733  0.5170  0.0795
19197TIP3    H279007   1.055   2.881  15.096 -0.5013 -0.9600  3.3662
19198TIP3   OH279008   2.279   1.111  13.492 -0.5023 -0.0755  0.3313
19198TIP3    H179009   2.208   1.092  13.430 -0.0267 -0.5907 -0.0674
19198TIP3    H279010   2.282   1.207  13.496  0.1347  0.0060 -1.2598
19199TIP3   OH279011   5.519   4.589   4.230 -0.3361  0.3509  0.1645
19199TIP3    H179012   5.551   4.633   4.151  0.0662  0.8054  0.5731
19199TIP3    H279013   5.425   4.581   4.216 -0.1046 -0.7675 -0.9399
19200TIP3   OH279014   6.572   2.952  16.281  0.0047  0.2248 -0.5110
19200TIP3    H179015   6.556   2.925  16.190  1.2872  1.0379 -1.0167
19200TIP3    H279016   6.553   3.045  16.282  0.7721  0.3858 -0.1553
19201TIP3   OH279017   3.082   4.483  16.902 -0.3807  0.2638  0.0062
19201TIP3    H179018   3.031   4.417  16.948  0.1687 -0.9460 -1.0624
19201TIP3    H279019   3.060   4.470  16.810  1.8461 -0.3217 -0.5010
19202TIP3   OH279020   0.454   1.370  12.041 -0.0545  0.8958  0.2221
19202TIP3    H179021   0.519   1.440  12.040  2.6529 -1.3934  0.6956
19202TIP3    H279022   0.500   1.295  12.001 -1.4000 -1.6482  3.0544
19203TIP3   OH279023   1.059   4.437  11.059  0.2959  0.0762  0.4547
19203TIP3    H179024   1.082   4.528  11.078 -0.5320  0.3495  0.1994
19203TIP3    H279025   1.027   4.440  10.969  3.9714 -1.1368 -1.0776
19204TIP3   OH279026   5.934   0.762   2.785 -0.2946  0.2626 -0.4697
19204TIP3    H179027   5.959   0.715   2.865  0.6710  0.4219 -0.6629
19204TIP3    H279028   5.889   0.697   2.732  2.6491 -1.0734 -1.5513
19205TIP3   OH279029   4.555   3.665  12.630 -0.5646 -0.2989  0.2990
19205TIP3    H179030   4.544   3.759  12.618 -2.0501 -0.7027 -2.2391
19205TIP3    H279031   4.501   3.644  12.706 -0.4252  0.8261  0.7299
19206TIP3   OH279032   6.623   6.726   1.887 -0.0161  0.0126  0.7335
19206TIP3    H179033   6.566   6.698   1.959  0.8902  0.6911  1.7289
19206TIP3    H279034   6.644   6.817   1.907  1.2226 -0.1577  0.2512
19207TIP3   OH279035   2.833   3.436  15.188 -0.0146 -0.5474  0.2375
19207TIP3    H179036   2.757   3.495  15.188  1.5098  1.6872 -2.6660
19207TIP3    H279037   2.809   3.366  15.128  0.1846  0.1786 -0.7101
19208TIP3   OH279038   3.407   1.467  11.896 -0.5080  0.5325  0.5971
19208TIP3    H179039   3.363   1.405  11.954  0.7985  0.0900  1.1459
19208TIP3    H279040   3.398   1.429  11.809 -0.2223 -0.1419  0.8544
19209TIP3   OH279041   6.550   2.347  13.091  0.3647  0.2266  0.6202
19209TIP3    H179042   6.513   2.299  13.165  0.5970 -2.0872 -0.6629
19209TIP3    H279043   6.634   2.305  13.074 -0.3272 -0.3342 -1.8346
19210TIP3   OH279044   4.562   1.254   5.371 -0.0741 -0.3972 -0.4835
19210TIP3    H179045   4.607   1.207   5.441 -2.6696 -0.7867  1.0910
19210TIP3    H279046   4.567   1.195   5.296  0.3487 -1.2866  0.2192
19211TIP3   OH279047   0.700   5.359  15.736 -0.5623 -0.3010 -0.7548
19211TIP3    H179048   0.796   5.358  15.740 -0.5457 -0.5805 -1.1335
19211TIP3    H279049   0.673   5.412  15.810 -0.0606  1.2330 -1.6205
19212TIP3   OH279050   6.179   2.552  13.665  0.4219 -0.1882 -0.1598
19212TIP3    H179051   6.164   2.622  13.602  2.0721  1.7528  1.4487
19212TIP3    H279052   6.247   2.498  13.625 -1.1700 -1.2551 -1.6080
19213TIP3   OH279053   1.647   2.364  12.587 -0.9947  0.4691 -0.0964
19213TIP3    H179054   1.709   2.330  12.522 -1.8062  1.8165 -1.6598
19213TIP3    H279055   1.624   2.288  12.640  2.0807 -0.0549  0.6868
19214TIP3   OH279056   3.055   5.366   3.361 -0.4591  0.0947 -0.5075
19214TIP3    H179057   3.129   5.406   3.316 -0.6668 -0.4664 -1.3734
19214TIP3    H279058   3.024   5.434   3.422  0.3601  0.5527 -0.5975
19215TIP3   OH279059   3.806   3.982  14.440  0.1574  0.0473 -0.2787
19215TIP3    H179060   3.776   3.931  14.515  1.5982 -0.4271  0.0038
19215TIP3    H279061   3.857   3.921  14.388  0.3006  0.7176 -0.9411
19216TIP3   OH279062   3.929   4.044  11.127 -0.1130 -0.2363 -0.3864
19216TIP3    H179063   3.909   3.990  11.204 -1.8251  0.6032 -0.1971
19216TIP3    H279064   3.850   4.096  11.113  0.8259  0.9175 -1.6601
19217TIP3   OH279065   1.897   1.470  15.924 -0.2911 -0.2628  0.6367
19217TIP3    H179066   1.888   1.376  15.937  0.6068 -0.3660  0.5826
19217TIP3    H279067   1.901   1.481  15.829  1.6680 -0.4005  0.6715
19218TIP3   OH279068   6.072   6.667   4.516 -0.0587  0.0158  0.1184
19218TIP3    H179069   6.026   6.660   4.432  1.5523 -0.8538 -0.7398
19218TIP3    H279070   6.162   6.643   4.496  0.7619  1.4872  1.7688
19219TIP3   OH279071   4.229   3.422  12.597 -0.2445 -0.2504 -0.2097
19219TIP3    H179072   4.236   3.334  12.558 -1.1466 -0.3799 -0.1029
19219TIP3    H279073   4.247   3.408  12.690 -2.1511 -0.6638  0.1523
19220TIP3   OH279074   0.191   0.332  10.454 -0.6256  0.1309  0.0537
19220TIP3    H179075   0.273   0.382  10.454 -0.2155 -0.5258 -0.1741
19220TIP3    H279076   0.208   0.258  10.395 -0.3336 -1.6964  2.3035
19221TIP3   OH279077   4.864   0.575  16.319 -0.2414  0.9382 -0.0778
19221TIP3    H179078   4.800   0.506  16.333  0.5292  0.1595 -0.3077
19221TIP3    H279079   4.943   0.529  16.288 -0.3213  2.0862 -2.1296
19222TIP3   OH279080   6.255   6.515   2.286 -0.2991  0.0384 -0.3556
19222TIP3    H179081   6.204   6.471   2.354 -0.3149 -0.0885 -0.4503
19222TIP3    H279082   6.274   6.447   2.222  0.4576 -0.0481 -0.0558
19223TIP3   OH279083   4.215   2.514  11.660  0.1999  0.3434  0.1273
19223TIP3    H179084   4.262   2.567  11.724  0.2364 -2.2478  2.4507
19223TIP3    H279085   4.124   2.518  11.686 -0.1170  0.8851 -0.9771
19224TIP3   OH279086   2.906   4.334  14.306 -0.0587  0.7172  0.1263
19224TIP3    H179087   2.834   4.273  14.289  0.4210  0.0754  0.3436
19224TIP3    H279088   2.939   4.356  14.218 -0.1657  0.5759  0.0496
19225TIP3   OH279089   4.774   4.455   1.017  0.2930  0.3655  0.3320
19225TIP3    H179090   4.701   4.512   1.042  1.0987  0.7447  1.9773
19225TIP3    H279091   4.773   4.455   0.921 -1.0127  1.4681  0.3135
19226TIP3   OH279092   1.438   4.500   4.638  0.3557  0.3147  0.8748
19226TIP3    H179093   1.397   4.414   4.643  0.6312  0.2411  3.1594
19226TIP3    H279094   1.385   4.556   4.695  1.7500  0.9090  1.6724
19227TIP3   OH279095   4.422   2.900  15.699 -0.3811  0.4099 -0.1220
19227TIP3    H179096   4.449   2.846  15.625 -1.0881  1.6262 -1.3304
19227TIP3    H279097   4.496   2.897  15.760 -0.0935 -1.2307 -0.5200
19228TIP3   OH279098   4.136   0.814  15.654  0.0167 -0.1474 -0.2446
19228TIP3    H179099   4.178   0.729  15.638  1.8223  0.0747  2.5800
19228TIP3    H279100   4.140   0.859  15.570  1.8094 -1.7326 -1.0967
19229TIP3   OH279101   0.221   5.774  14.720 -0.0356  0.1592  0.4938
19229TIP3    H179102   0.137   5.728  14.724 -0.2389  0.3795 -0.8414
19229TIP3    H279103   0.226   5.806  14.630  1.3513  0.4028  0.6467
19230TIP3   OH279104   4.803   1.157   1.497  0.6119 -0.0917 -0.2210
19230TIP3    H179105   4.820   1.108   1.577 -2.1428 -0.7208  0.0921
19230TIP3    H279106   4.787   1.090   1.431 -1.9544  0.2752 -0.0830
19231TIP3   OH279107   4.573   4.535  10.752 -0.2917 -0.1350  0.3982
19231TIP3    H179108   4.571   4.511  10.845 -0.6559 -1.1356  0.1471
19231TIP3    H279109   4.487   4.574  10.736 -0.2761 -0.0804  0.4424
19232TIP3   OH279110   4.755   5.026   3.221  0.1350 -0.2863  0.5126
19232TIP3    H179111   4.798   5.074   3.151 -0.3111  0.0463  0.4589
19232TIP3    H279112   4.673   5.074   3.235  0.8132  0.4802  2.1820
19233TIP3   OH279113   1.743   5.471  13.233 -0.0645  0.0104 -0.1555
19233TIP3    H179114   1.671   5.450  13.173  0.2897 -0.7455 -0.3322
19233TIP3    H279115   1.795   5.535  13.186 -0.3380  0.1715 -0.2431
19234TIP3   OH279116   3.738   1.748  11.706  0.2120 -0.3654 -0.0639
19234TIP3    H179117   3.718   1.659  11.680  0.8000 -0.3422 -0.6055
19234TIP3    H279118   3.680   1.803  11.654  1.9432 -0.2675 -2.0156
19235TIP3   OH279119   6.623   5.271   0.312 -0.2328 -0.3643 -0.7541
19235TIP3    H179120   6.538   5.297   0.348  0.2611  0.6507 -0.2792
19235TIP3    H279121   6.672   5.353   0.304  1.4332 -1.1172  0.8695
19236TIP3   OH279122   3.131   6.102   3.916  0.2583  0.3484  0.2000
19236TIP3    H179123   3.044   6.119   3.882 -0.1780 -0.3971  0.9149
19236TIP3    H279124   3.143   6.168   3.985 -0.7609 -1.0805  1.8169
19237TIP3   OH279125   1.502   1.724   4.219 -0.3255 -0.1320 -0.9582
19237TIP3    H179126   1.422   1.739   4.269  0.3022 -2.7672  1.0199
19237TIP3    H279127   1.477   1.658   4.155 -0.3195  0.9794 -2.1657
19238TIP3   OH279128   5.735   4.132  11.290 -0.0379  0.6471 -0.2527
19238TIP3    H179129   5.737   4.194  11.217  0.7816 -0.0504 -0.8571
19238TIP3    H279130   5.827   4.110  11.304 -0.3343 -0.7190 -0.3189
19239TIP3   OH279131   2.095   2.795   2.608  0.2560 -0.2552  0.5537
19239TIP3    H179132   2.024   2.736   2.581 -1.3457 -0.1787  4.0093
19239TIP3    H279133   2.154   2.740   2.660  0.7438  0.4251  0.7370
19240TIP3   OH279134   1.042   5.919   4.770 -0.0443  0.3750  1.1043
19240TIP3    H179135   1.055   5.897   4.677  2.7565  0.1253  1.4431
19240TIP3    H279136   0.950   5.941   4.777  0.2392  3.8850 -2.4926
19241TIP3   OH279137   0.404   6.431  13.432  0.1570  0.1019 -0.4191
19241TIP3    H179138   0.370   6.421  13.343  2.8401 -1.0483 -1.4094
19241TIP3    H279139   0.450   6.350  13.450  1.4733  1.1434  1.2015
19242TIP3   OH279140   0.496   2.056  16.551  0.4479 -0.2532 -0.4427
19242TIP3    H179141   0.505   2.134  16.606  0.5345 -0.7353  0.2439
19242TIP3    H279142   0.541   1.987  16.600  0.4362 -0.7201 -1.0766
19243TIP3   OH279143   2.264   5.096  16.632  0.2079  0.7606  0.1616
19243TIP3    H179144   2.279   5.086  16.538 -1.4812 -0.6735 -0.0006
19243TIP3    H279145   2.351   5.088  16.671  0.8263  0.5113 -1.2181
19244TIP3   OH279146   3.284   4.106   4.545  0.6236 -0.1417  0.2251
19244TIP3    H179147   3.371   4.066   4.540  0.3733 -0.6290 -0.4573
19244TIP3    H279148   3.227   4.034   4.572  0.4107  0.1355  0.5101
19245TIP3   OH279149   1.901   5.017  13.717  0.3855  0.2714 -0.0925
19245TIP3    H179150   1.875   5.010  13.625  1.7456 -0.8771 -0.4200
19245TIP3    H279151   1.986   4.973  13.722 -0.2695 -0.8920  1.9737
19246TIP3   OH279152   0.452   4.561  11.635  0.0282  0.0417  0.3859
19246TIP3    H179153   0.513   4.587  11.703 -0.2125 -0.1826  0.6913
19246TIP3    H279154   0.386   4.630  11.634 -0.7894 -0.6840  1.4191
19247TIP3   OH279155   4.090   2.275  12.572 -0.4469  0.0825  0.6360
19247TIP3    H179156   4.026   2.342  12.598 -0.1218  0.3532  0.7459
19247TIP3    H279157   4.038   2.195  12.562 -0.9232  0.4702 -0.0224
19248TIP3   OH279158   4.011   2.421  15.736 -0.0791  0.4293 -0.0767
19248TIP3    H179159   4.076   2.393  15.800  0.3201 -0.7000 -0.9494
19248TIP3    H279160   3.939   2.358  15.746 -1.5714  2.2523  1.5928
19249TIP3   OH279161   2.589   3.545   1.248 -0.2119 -0.5116 -0.1588
19249TIP3    H179162   2.631   3.587   1.173  1.1132 -0.7831  0.4058
19249TIP3    H279163   2.599   3.607   1.320 -1.8832 -0.0469 -0.2653
19250TIP3   OH279164   4.785   1.443   5.681  0.3128  0.1076 -1.3750
19250TIP3    H179165   4.817   1.363   5.639 -0.0581 -0.6552 -0.2555
19250TIP3    H279166   4.751   1.414   5.765 -3.1359  0.8450 -2.3529
19251TIP3   OH279167   3.179   2.024  14.919 -0.0843  0.1131 -0.0181
19251TIP3    H179168   3.149   2.104  14.964 -2.6231 -1.0354  0.5239
19251TIP3    H279169   3.188   1.960  14.990  1.8795 -0.1708 -0.4588
19252TIP3   OH279170   6.754   4.034   2.398 -0.2226 -0.3530 -0.3248
19252TIP3    H179171   6.671   4.059   2.440 -0.6092 -0.8037 -0.8114
19252TIP3    H279172   6.799   4.117   2.382 -0.2363 -0.1515  0.6345
19253TIP3   OH279173   2.782   4.375   0.030 -0.2950 -0.1144  0.2701
19253TIP3    H179174   2.807   4.466   0.018 -0.4046 -0.3951 -3.8677
19253TIP3    H279175   2.686   4.377   0.035 -0.3248  0.0366 -0.2320
19254TIP3   OH279176   2.901   6.623   6.134 -0.5663 -0.1642  0.7739
19254TIP3    H179177   2.984   6.597   6.174  0.6007  0.8817 -0.8369
19254TIP3    H279178   2.873   6.700   6.183  0.3448  0.5307  0.2200
19255TIP3   OH279179   2.100   4.719  13.965 -0.2723  0.1728  0.7511
19255TIP3    H179180   2.048   4.693  13.889  0.5379 -0.1849  0.2981
19255TIP3    H279181   2.045   4.781  14.012  0.1579  2.4854 -1.5320
19256TIP3   OH279182   3.933   0.613  16.408 -0.4978  0.0962 -0.1517
19256TIP3    H179183   4.028   0.610  16.416 -0.5031 -0.1006 -0.1651
19256TIP3    H279184   3.916   0.612  16.314 -0.5417 -0.7375 -0.1381
19257TIP3   OH279185   0.153   0.501   4.903  0.1041  0.4988  0.2125
19257TIP3    H179186   0.122   0.447   4.831 -0.0022 -0.0281  0.6480
19257TIP3    H279187   0.137   0.591   4.874  1.8210  0.3937 -1.2484
19258TIP3   OH279188   1.159   0.900  11.239  0.2281  0.4419  0.2886
19258TIP3    H179189   1.196   0.926  11.155 -2.5802 -2.2901 -2.0458
19258TIP3    H279190   1.221   0.836  11.275  0.5786  0.2329 -0.6746
19259TIP3   OH279191   0.147   6.307  14.675  0.2297  0.6890  0.1711
19259TIP3    H179192   0.066   6.326  14.628 -1.1441 -1.1034  1.6625
19259TIP3    H279193   0.154   6.376  14.741 -0.0452  0.9018 -0.0218
19260TIP3   OH279194   6.590   6.236   4.678 -0.0215  0.5346  0.2160
19260TIP3    H179195   6.593   6.311   4.738 -2.6909  1.1545 -0.3176
19260TIP3    H279196   6.568   6.273   4.593  1.2751 -0.6110 -0.6647
19261TIP3   OH279197   5.072   6.663  15.936 -0.4749  0.3070  0.3409
19261TIP3    H179198   5.052   6.590  15.877 -1.6061 -0.0588  1.1504
19261TIP3    H279199   5.168   6.664  15.940 -0.4263 -0.7779 -0.1390
19262TIP3   OH279200   4.640   6.281  11.934 -0.0645  0.2549 -0.0950
19262TIP3    H179201   4.594   6.237  12.005 -1.0194 -1.1880 -1.5445
19262TIP3    H279202   4.631   6.374  11.955  0.4643 -0.1261  2.1165
19263TIP3   OH279203   2.086   5.731  16.941 -0.4167 -0.0414  0.0255
19263TIP3    H179204   2.031   5.682  16.881  0.1564 -0.1942 -0.3877
19263TIP3    H279205   2.174   5.695  16.928 -0.3237 -0.2731  1.1544
19264TIP3   OH279206   3.001   0.216  16.395 -0.1145 -0.0856 -0.1564
19264TIP3    H179207   2.992   0.148  16.328 -0.2592 -0.4554  0.2360
19264TIP3    H279208   2.915   0.257  16.400 -0.7185 -1.4235  1.2473
19265TIP3   OH279209   2.680   0.398  13.443  0.4248 -0.6119  0.1205
19265TIP3    H179210   2.688   0.446  13.525  0.1533 -1.2357  0.5098
19265TIP3    H279211   2.680   0.467  13.376 -0.1901 -0.0447  0.6885
19266TIP3   OH279212   4.398   5.798   0.189 -0.1859  0.0462 -0.0789
19266TIP3    H179213   4.327   5.862   0.187  0.4463  0.7574 -0.1403
19266TIP3    H279214   4.466   5.839   0.241 -0.4830 -1.3686  1.5171
19267TIP3   OH279215   2.217   2.878   5.929  0.3065  0.5305 -0.1256
19267TIP3    H179216   2.143   2.937   5.945 -1.0805 -1.2803  0.4691
19267TIP3    H279217   2.292   2.921   5.971 -0.7765  1.5635  0.8108
19268TIP3   OH279218   0.051   5.044   1.327 -0.2915 -0.0040 -0.8664
19268TIP3    H179219   0.144   5.055   1.344 -0.6539  0.4832  1.0706
19268TIP3    H279220   0.021   4.983   1.395 -1.4115 -0.0148 -1.3441
19269TIP3   OH279221   6.333   0.796  12.799 -0.2446  0.1670 -0.0702
19269TIP3    H179222   6.270   0.739  12.753 -0.1524 -1.5881  1.8304
19269TIP3    H279223   6.381   0.736  12.857  0.7002  2.0381  1.1632
19270TIP3   OH279224   2.302   1.941  12.282  0.3542 -0.4395 -0.1944
19270TIP3    H179225   2.352   2.002  12.336  0.1967  0.3322 -0.8969
19270TIP3    H279226   2.368   1.884  12.242  0.4869 -0.8863  0.6294
19271TIP3   OH279227   5.539   4.272  16.369 -0.1200  0.7810 -0.5472
19271TIP3    H179228   5.443   4.281  16.373 -0.2369 -0.8271  1.3468
19271TIP3    H279229   5.569   4.290  16.458  1.4481  1.9253 -1.2618
19272TIP3   OH279230   4.767   4.089   3.046 -0.1726  0.1340 -0.2213
19272TIP3    H179231   4.751   4.170   2.997 -0.7333 -0.4187 -0.9791
19272TIP3    H279232   4.693   4.084   3.108 -0.5520 -0.1834 -0.6976
19273TIP3   OH279233   1.745   2.086   4.943 -1.0595  0.2163 -0.6557
19273TIP3    H179234   1.773   2.113   4.855 -1.1220  0.4939 -0.5902
19273TIP3    H279235   1.653   2.062   4.932 -0.8789 -0.4362 -0.8140
19274TIP3   OH279236   0.431   1.376  13.975  0.9445 -0.1301 -0.1391
19274TIP3    H179237   0.522   1.356  13.950  0.4898 -2.6642 -0.0906
19274TIP3    H279238   0.379   1.313  13.925 -0.6043 -0.2401  1.5150
19275TIP3   OH279239   2.089   0.071  14.556  0.2634 -0.1810 -0.0532
19275TIP3    H179240   2.102   0.076  14.651 -2.6070  0.8958  0.3953
19275TIP3    H279241   2.070   0.161  14.530  0.3180 -0.5782 -1.5455
19276TIP3   OH279242   1.319   5.348  15.877 -0.3999  0.2994  0.6124
19276TIP3    H179243   1.276   5.263  15.887  1.4488 -0.4824  2.7850
19276TIP3    H279244   1.396   5.330  15.824  1.8180 -0.2514  3.7157
19277TIP3   OH279245   0.365   3.476  14.491 -0.1787 -0.3898  0.3943
19277TIP3    H179246   0.348   3.507  14.402  2.1664  1.1691  0.4109
19277TIP3    H279247   0.367   3.556  14.544 -0.5597 -1.2150  1.7000
19278TIP3   OH279248   1.214   4.962  15.700  0.8219  0.6004 -1.2074
19278TIP3    H179249   1.142   5.012  15.737  1.3239  2.4770 -2.5935
19278TIP3    H279250   1.260   4.925  15.775 -1.5123 -0.6177 -0.2987
19279TIP3   OH279251   4.493   6.293  14.707 -0.2762  0.0440 -0.4405
19279TIP3    H179252   4.540   6.375  14.717 -2.0002  0.8918  1.6449
19279TIP3    H279253   4.561   6.227  14.696  1.3773  1.3208  1.4807
19280TIP3   OH279254   2.448   3.692  15.214 -0.0478  0.0312  0.4712
19280TIP3    H179255   2.434   3.692  15.309 -0.5725 -1.3252  0.4128
19280TIP3    H279256   2.464   3.601  15.192 -0.7287  0.2117 -0.8576
19281TIP3   OH279257   6.363   6.458  13.841 -0.0611  0.3758  0.6457
19281TIP3    H179258   6.452   6.421  13.838  0.1739  0.7809  1.8811
19281TIP3    H279259   6.326   6.425  13.922 -0.2364  1.9479  1.2423
19282TIP3   OH279260   3.037   1.790  17.072  0.2274  0.7869  0.3337
19282TIP3    H179261   2.979   1.766  17.145 -0.0603 -0.4624 -0.2728
19282TIP3    H279262   3.074   1.874  17.098  0.5314  0.1455  2.1744
19283TIP3   OH279263   4.817   0.702   1.466  0.1828 -0.0255 -0.7598
19283TIP3    H179264   4.867   0.749   1.399 -1.9436  3.5568 -0.0748
19283TIP3    H279265   4.770   0.634   1.417  1.9809 -0.3672 -2.1359
19284TIP3   OH279266   5.134   2.234  12.929 -0.8983  0.1250  0.5652
19284TIP3    H179267   5.113   2.324  12.904  0.1167 -0.2207 -1.8316
19284TIP3    H279268   5.150   2.238  13.023 -2.0434  2.1952  0.7348
19285TIP3   OH279269   4.701   3.990   4.456  0.4198 -0.4672 -0.1981
19285TIP3    H179270   4.610   3.978   4.429  0.5929 -0.4688 -0.7815
19285TIP3    H279271   4.744   4.030   4.381 -0.1520  4.1695  1.5824
19286TIP3   OH279272   3.112   1.654  12.596  0.4345 -0.1508 -0.1544
19286TIP3    H179273   3.082   1.565  12.615  1.3011 -0.2017  1.0327
19286TIP3    H279274   3.182   1.642  12.531  1.6850 -0.4987  1.2134
19287TIP3   OH279275   0.857   2.081  12.178 -0.4674  1.0433  0.0414
19287TIP3    H179276   0.921   2.141  12.217  0.1753  1.3405 -1.3761
19287TIP3    H279277   0.904   1.998  12.173 -1.2780  0.4441  1.7919
19288TIP3   OH279278   5.514   6.172  11.905 -0.4040  0.4508  0.6393
19288TIP3    H179279   5.596   6.154  11.951 -0.4881 -1.0268  0.2572
19288TIP3    H279280   5.512   6.109  11.834 -2.8221 -0.9960  1.8542
19289TIP3   OH279281   0.732   5.785  13.041  0.5366  0.5069 -0.2101
19289TIP3    H179282   0.745   5.751  12.952  1.1878 -0.5114  0.2549
19289TIP3    H279283   0.661   5.731  13.077  1.7305 -0.5751  0.6112
19290TIP3   OH279284   6.069   4.394   5.199 -0.3689 -0.1248 -0.3951
19290TIP3    H179285   6.049   4.486   5.181 -1.2691 -0.2021  0.1450
19290TIP3    H279286   6.162   4.394   5.221 -0.3247  0.6342 -0.5546
19291TIP3   OH279287   2.389   0.981   2.086 -0.0221  0.0198  0.3155
19291TIP3    H179288   2.293   0.971   2.086 -0.0035 -0.1639 -0.0245
19291TIP3    H279289   2.418   0.932   2.163 -0.1933 -0.0305  0.3484
19292TIP3   OH279290   6.546   2.115   2.828  0.1926 -0.0765 -0.3308
19292TIP3    H179291   6.600   2.086   2.902  0.8438  0.2564 -0.6652
19292TIP3    H279292   6.499   2.036   2.801  0.3696 -0.3318  0.0844
19293TIP3   OH279293   0.502   5.410   3.289  0.8080  0.4373  0.0654
19293TIP3    H179294   0.551   5.328   3.300 -0.5860 -0.4119  0.1812
19293TIP3    H279295   0.438   5.410   3.360 -1.4650 -0.0628 -1.8620
19294TIP3   OH279296   0.498   3.754   4.166  0.2926 -0.7181 -0.3009
19294TIP3    H179297   0.561   3.811   4.211 -0.9791  0.1468  0.4495
19294TIP3    H279298   0.552   3.702   4.107  1.5331  1.2488 -1.0159
19295TIP3   OH279299   5.312   4.938   0.736  0.3413  0.0410  0.9368
19295TIP3    H179300   5.238   4.886   0.706  0.4252 -0.8322  2.1749
19295TIP3    H279301   5.309   5.018   0.682  0.3010 -1.2725 -1.1081
19296TIP3   OH279302   5.075   3.879   4.794  0.2024 -0.1219 -0.4384
19296TIP3    H179303   5.064   3.947   4.728 -0.1071  2.8288  2.4114
19296TIP3    H279304   5.170   3.870   4.804  0.2781  1.1579  0.2592
19297TIP3   OH279305   1.674   0.191   0.165 -0.5704  0.1251 -0.0900
19297TIP3    H179306   1.661   0.229   0.251 -2.1508  0.4876 -0.4470
19297TIP3    H279307   1.672   0.096   0.180 -1.7761  0.1722  0.1855
19298TIP3   OH279308   5.975   4.265  16.833 -0.2326 -0.2187  0.1511
19298TIP3    H179309   6.027   4.319  16.892 -0.1727 -1.0801  0.8938
19298TIP3    H279310   5.981   4.310  16.749  1.0885  0.0941  0.3921
19299TIP3   OH279311   1.943   0.654  14.036  0.0404  0.0798 -0.2045
19299TIP3    H179312   2.013   0.718  14.052  1.1504 -0.5719 -2.1916
19299TIP3    H279313   1.925   0.661  13.942  0.1774 -2.5146 -0.4730
19300TIP3   OH279314   1.872   5.429  11.003  0.5346 -0.3836 -0.1907
19300TIP3    H179315   1.904   5.341  11.018 -2.2045 -1.8304 -1.8888
19300TIP3    H279316   1.916   5.458  10.923  1.2471 -0.2817  0.2303
19301TIP3   OH279317   0.129   1.889   5.935 -0.2119 -0.0396  0.5134
19301TIP3    H179318   0.159   1.847   6.015  0.2145  0.8404  0.8304
19301TIP3    H279319   0.204   1.886   5.876 -0.6582 -1.0678 -0.0201
19302TIP3   OH279320   5.938   5.817  11.985  0.2519  0.3198  0.2235
19302TIP3    H179321   5.943   5.721  11.985  0.9334  0.2801  2.7718
19302TIP3    H279322   5.988   5.843  11.908 -0.3581 -1.3650 -0.8049
19303TIP3   OH279323   6.692   0.432  13.647 -0.0155 -0.8287  0.3031
19303TIP3    H179324   6.641   0.472  13.718 -0.9104  1.8228 -1.6740
19303TIP3    H279325   6.779   0.472  13.655 -0.0301 -0.7529  0.0739
19304TIP3   OH279326   3.871   6.723   6.056 -0.4411 -0.1274  0.1084
19304TIP3    H179327   3.867   6.763   6.143 -0.7357  0.4768 -0.1767
19304TIP3    H279328   3.779   6.712   6.030 -0.3563 -0.1001 -0.2139
19305TIP3   OH279329   6.186   3.674   0.231 -0.1492 -0.9839 -0.4305
19305TIP3    H179330   6.200   3.650   0.322 -0.0080 -3.8928 -1.1264
19305TIP3    H279331   6.092   3.688   0.224 -0.5436 -3.1353 -0.2581
19306TIP3   OH279332   0.877   1.766  16.981  0.2633 -0.3037 -0.0721
19306TIP3    H179333   0.869   1.674  17.008 -0.4899 -0.1141  0.3925
19306TIP3    H279334   0.933   1.764  16.903  0.8341 -1.0773  0.3464
19307TIP3   OH279335   3.620   4.436  13.175  0.1299 -0.1786  0.3235
19307TIP3    H179336   3.603   4.348  13.209 -1.2631 -0.5158 -1.1289
19307TIP3    H279337   3.540   4.459  13.128 -0.0841  2.4254  1.7448
19308TIP3   OH279338   5.257   1.131   6.123 -0.1325 -0.2115 -0.1849
19308TIP3    H179339   5.170   1.110   6.156 -0.4614  0.2290 -0.7634
19308TIP3    H279340   5.282   1.210   6.170  0.4694 -0.9803  0.8588
19309TIP3   OH279341   6.169   1.037   5.535  0.2744 -0.0432  0.1187
19309TIP3    H179342   6.082   1.021   5.498  0.0923  0.2016  0.4348
19309TIP3    H279343   6.228   0.987   5.479  0.1763  1.3954 -1.3262
19310TIP3   OH279344   3.400   4.287  13.799  0.3327  0.3905 -0.0002
19310TIP3    H179345   3.495   4.293  13.803  0.3380  0.9190 -0.7809
19310TIP3    H279346   3.371   4.372  13.766 -0.2522 -0.4569 -1.8134
19311TIP3   OH279347   6.766   0.943  12.828 -0.1149 -0.0376 -0.2421
19311TIP3    H179348   6.844   0.990  12.854  0.0674 -0.5231  0.0990
19311TIP3    H279349   6.796   0.883  12.759 -0.4434  0.6864 -1.0463
19312TIP3   OH279350   0.878   6.415  15.041  0.1379  0.4945 -0.2635
19312TIP3    H179351   0.930   6.494  15.023 -0.1196  0.6668 -0.2656
19312TIP3    H279352   0.886   6.402  15.136 -0.8289  1.2529 -0.0609
19313TIP3   OH279353   4.784   6.193   2.265 -0.3746 -0.1690 -0.3129
19313TIP3    H179354   4.713   6.252   2.291  0.6582  0.3363  1.5552
19313TIP3    H279355   4.864   6.242   2.282  0.4593 -1.1506 -1.2729
19314TIP3   OH279356   1.934   2.999   2.725  0.2271 -0.3639  0.1957
19314TIP3    H179357   2.015   2.966   2.687  0.3147 -0.2654  0.2981
19314TIP3    H279358   1.950   3.092   2.740  0.3448 -0.4856  0.8683
19315TIP3   OH279359   6.783   3.329   3.650 -0.1934  0.0228  0.5625
19315TIP3    H179360   6.787   3.245   3.604 -0.0249  0.6886 -0.6867
19315TIP3    H279361   6.714   3.377   3.605  0.4818  0.9765  0.5176
19316TIP3   OH279362   5.943   3.110  10.903  0.1297 -0.5183  0.2979
19316TIP3    H179363   5.878   3.079  10.839  0.3728 -0.7752  0.1753
19316TIP3    H279364   6.026   3.077  10.870  0.3311 -0.1488  0.4306
19317TIP3   OH279365   0.292   2.028   0.171 -0.1106 -0.2216 -0.0419
19317TIP3    H179366   0.239   2.096   0.212  0.0751 -0.4163  0.5428
19317TIP3    H279367   0.330   1.979   0.245  2.0528  0.8067 -0.3831
19318TIP3   OH279368   2.338   5.428  12.167  0.0335  0.0417  0.0576
19318TIP3    H179369   2.279   5.356  12.146 -0.4956 -0.2001  2.1172
19318TIP3    H279370   2.412   5.386  12.212 -0.1331  0.7273  0.9973
19319TIP3   OH279371   4.083   1.626  16.807 -0.0126 -0.8137 -0.0548
19319TIP3    H179372   4.057   1.537  16.831  2.5612 -2.1225 -1.6285
19319TIP3    H279373   4.012   1.659  16.753 -1.7235 -1.2465  1.8111
19320TIP3   OH279374   6.551   4.377  12.578  0.1432 -0.3819  0.5880
19320TIP3    H179375   6.569   4.423  12.496  0.7987 -1.1563  0.2831
19320TIP3    H279376   6.480   4.316  12.556  1.2783 -1.6276  0.1708
19321TIP3   OH279377   2.769   6.069   4.761 -0.8314  0.4069  0.1974
19321TIP3    H179378   2.721   6.000   4.717  0.4264 -0.3470 -0.0485
19321TIP3    H279379   2.764   6.144   4.702  1.3435 -0.7613 -1.6287
19322TIP3   OH279380   1.905   0.549   2.301 -0.0973  0.1768 -0.3532
19322TIP3    H179381   1.943   0.510   2.379 -0.0134 -0.0226 -0.4937
19322TIP3    H279382   1.979   0.586   2.253 -0.0760 -0.2304 -0.6369
19323TIP3   OH279383   1.137   4.713  12.494  0.0045 -0.2499 -0.2345
19323TIP3    H179384   1.164   4.671  12.575 -1.9927  1.0853  1.2176
19323TIP3    H279385   1.177   4.800  12.498 -2.6076  1.0206  0.9984
19324TIP3   OH279386   1.721   1.148  16.320 -0.6197  0.0829 -0.2869
19324TIP3    H179387   1.808   1.173  16.288 -0.0636 -1.6192 -0.1850
19324TIP3    H279388   1.720   1.176  16.411 -0.3505  0.5182 -0.4132
19325TIP3   OH279389   5.085   4.768  16.898 -0.2114 -0.1409  0.2428
19325TIP3    H179390   5.013   4.822  16.866 -0.8629 -1.4296 -0.5610
19325TIP3    H279391   5.042   4.698  16.948  0.6011 -0.0130  1.1513
19326TIP3   OH279392   2.243   3.204  11.512 -0.0531  0.0619  0.4213
19326TIP3    H179393   2.161   3.169  11.545 -0.3910  2.1763  2.0125
19326TIP3    H279394   2.310   3.171  11.571 -0.3157  1.5777  1.6347
19327TIP3   OH279395   3.989   0.112   4.186 -0.0956 -0.1472  0.0284
19327TIP3    H179396   4.048   0.046   4.148 -0.6282  0.3741 -1.8278
19327TIP3    H279397   3.951   0.070   4.262 -0.3831 -2.0067 -1.0813
19328TIP3   OH279398   4.220   3.958  15.084 -0.0444  0.1769  1.0886
19328TIP3    H179399   4.128   3.943  15.063  0.0608 -0.8356  1.2896
19328TIP3    H279400   4.232   4.052  15.075 -0.9910  0.2610  0.6243
19329TIP3   OH279401   3.770   2.277   6.399 -0.7962  0.1847 -0.0193
19329TIP3    H179402   3.862   2.252   6.395 -0.7375  0.5303 -1.8974
19329TIP3    H279403   3.754   2.297   6.491  0.3774 -2.1016  0.7519
19330TIP3   OH279404   4.370   4.695   4.557 -0.0755  0.7614 -0.0107
19330TIP3    H179405   4.347   4.612   4.514  1.1539  1.1828 -1.5594
19330TIP3    H279406   4.439   4.671   4.620  1.5317  0.8087 -1.6734
19331TIP3   OH279407   5.958   5.828   5.051 -0.4244  0.2175  0.5320
19331TIP3    H179408   5.910   5.821   4.968  1.0380 -2.6403 -0.2019
19331TIP3    H279409   5.916   5.765   5.109  0.4141  0.0313  0.9520
19332TIP3   OH279410   4.859   1.973   5.642  0.2381 -0.6828 -0.4358
19332TIP3    H179411   4.790   1.908   5.657  0.2308 -0.7689 -0.8270
19332TIP3    H279412   4.860   1.985   5.547  0.4772 -0.3683 -0.3953
19333TIP3   OH279413   3.834   2.759   4.792 -1.0155  0.4714 -0.1018
19333TIP3    H179414   3.901   2.726   4.852  0.0238 -2.0746 -2.4575
19333TIP3    H279415   3.756   2.770   4.847  0.4966  0.7285  2.1502
19334TIP3   OH279416   4.680   6.451   3.947  0.1955 -0.0509  0.2408
19334TIP3    H179417   4.741   6.496   3.889 -0.7204  0.0844 -0.6426
19334TIP3    H279418   4.719   6.459   4.034  1.4725 -0.0478 -0.3134
19335TIP3   OH279419   6.709   3.978   5.214  0.5518  0.3076 -0.2167
19335TIP3    H179420   6.642   3.930   5.165  2.1643  1.0760 -3.4481
19335TIP3    H279421   6.736   3.918   5.283 -1.3273 -1.1916 -0.7022
19336TIP3   OH279422   2.569   1.124   2.560 -0.3004 -0.3338 -0.0509
19336TIP3    H179423   2.643   1.123   2.621 -1.3394  2.5294  1.4808
19336TIP3    H279424   2.595   1.188   2.493 -0.8919 -0.2602 -0.2082
19337TIP3   OH279425   4.797   4.899   2.851  0.0897 -0.0108  0.4856
19337TIP3    H179426   4.815   4.992   2.865  0.3209  0.8342 -4.1204
19337TIP3    H279427   4.882   4.856   2.866 -0.2082  0.2203  3.5287
19338TIP3   OH279428   4.531   3.049  13.699 -0.1951  0.2527 -0.2392
19338TIP3    H179429   4.559   2.959  13.715 -0.0268  0.8801  4.0269
19338TIP3    H279430   4.605   3.102  13.726 -2.0306  1.7178  2.2509
19339TIP3   OH279431   4.004   5.310  12.646 -0.0263 -0.0785 -0.7736
19339TIP3    H179432   4.015   5.356  12.563 -0.5904  0.6540 -0.4535
19339TIP3    H279433   4.091   5.314  12.687  0.5412 -1.3626 -1.7621
19340TIP3   OH279434   2.001   6.104   4.312 -0.8288  0.7175 -0.0052
19340TIP3    H179435   1.906   6.112   4.320 -1.1849 -0.1130 -2.5060
19340TIP3    H279436   2.015   6.013   4.288  0.6997  0.6407  1.0532
19341TIP3   OH279437   1.596   4.196   3.477  0.1628  0.1213  0.2132
19341TIP3    H179438   1.502   4.182   3.465 -0.1373  1.6947  0.4716
19341TIP3    H279439   1.638   4.121   3.433 -1.2113 -0.8903  0.5858
19342TIP3   OH279440   3.805   6.285  13.900  0.0005  0.0043  0.0765
19342TIP3    H179441   3.797   6.353  13.832  1.0139  0.1492  0.0876
19342TIP3    H279442   3.840   6.209  13.854 -0.2969 -0.2405  0.2450
19343TIP3   OH279443   4.805   5.723  16.204 -0.1864 -0.6021 -0.1871
19343TIP3    H179444   4.760   5.726  16.119 -0.7800 -0.7867  0.1209
19343TIP3    H279445   4.736   5.705  16.268  0.4867 -2.1821  0.1584
19344TIP3   OH279446   1.490   5.517   1.310  0.1094 -0.1799  0.4460
19344TIP3    H179447   1.548   5.453   1.353  0.5721 -0.0433  0.0267
19344TIP3    H279448   1.402   5.490   1.336  0.2240 -1.6333 -0.5764
19345TIP3   OH279449   1.431   1.310   3.525  0.0894  0.1749 -0.5268
19345TIP3    H179450   1.342   1.322   3.494  0.4873 -0.1183 -1.8629
19345TIP3    H279451   1.455   1.393   3.566 -0.4785  0.5574 -0.9749
19346TIP3   OH279452   1.767   2.857  15.231  0.5807 -0.3167 -0.6275
19346TIP3    H179453   1.751   2.927  15.169  3.8681  1.4265  0.2759
19346TIP3    H279454   1.812   2.789  15.180  0.8300 -0.0922 -0.7047
19347TIP3   OH279455   2.750   3.046   1.095  0.1144 -0.2311  0.0145
19347TIP3    H179456   2.838   3.033   1.060 -0.2403 -1.2311 -0.5421
19347TIP3    H279457   2.705   3.097   1.027  0.6563  1.5622  0.9309
19348TIP3   OH279458   1.261   1.976   0.050 -0.1156  0.1541  0.0241
19348TIP3    H179459   1.171   1.943   0.047 -0.7109  1.5446  1.2057
19348TIP3    H279460   1.315   1.899   0.033 -1.5267 -0.5126 -1.8357
19349TIP3   OH279461   0.240   6.108  16.767  0.0558 -0.3971 -0.4530
19349TIP3    H179462   0.302   6.040  16.742  0.6065  0.2519 -0.9008
19349TIP3    H279463   0.276   6.188  16.729 -0.9447  0.0328 -0.5192
19350TIP3   OH279464   3.363   4.049   5.022  0.6575 -0.5762 -0.2066
19350TIP3    H179465   3.341   4.119   4.960 -0.0793 -0.6368 -0.0172
19350TIP3    H279466   3.292   4.050   5.086  1.8258  0.0121  1.1084
19351TIP3   OH279467   2.815   2.154   0.374  0.1001  0.1955  0.0290
19351TIP3    H179468   2.884   2.218   0.394 -2.6194  2.9777  1.1941
19351TIP3    H279469   2.759   2.154   0.451 -1.2043 -2.0646 -0.8243
19352TIP3   OH279470   4.205   4.066  16.769 -0.0786 -0.3619 -0.4529
19352TIP3    H179471   4.218   4.024  16.683  0.0754 -0.1039 -0.5559
19352TIP3    H279472   4.203   3.993  16.831  1.7244 -0.4457 -0.4453
19353TIP3   OH279473   2.602   3.710   0.678 -0.0443 -0.6867 -0.5156
19353TIP3    H179474   2.572   3.717   0.588 -1.7711 -2.5106 -0.1480
19353TIP3    H279475   2.688   3.751   0.677  0.1792 -1.0173 -3.0884
19354TIP3   OH279476   0.826   1.874  15.278 -0.4892  0.6685 -0.3651
19354TIP3    H179477   0.904   1.839  15.234  0.7184 -1.3073  2.9397
19354TIP3    H279478   0.752   1.830  15.237  0.4332 -0.1401 -1.2020
19355TIP3   OH279479   3.518   3.942   2.101  0.0864  0.1116  0.5867
19355TIP3    H179480   3.469   3.894   2.034  0.4057 -0.1151  0.5133
19355TIP3    H279481   3.590   3.984   2.054  0.6626 -0.5398  0.8691
19356TIP3   OH279482   5.352   6.134   2.679 -0.1786  0.5230 -0.6680
19356TIP3    H179483   5.422   6.180   2.633 -0.2266 -0.1688 -1.4444
19356TIP3    H279484   5.356   6.169   2.768  2.1993 -0.5984 -0.2336
19357TIP3   OH279485   1.024   5.027   1.307 -0.8152  0.4835 -0.3822
19357TIP3    H179486   0.962   4.994   1.243  0.1771 -0.7225 -0.7733
19357TIP3    H279487   1.002   4.980   1.388 -0.9045  0.6366 -0.3172
19358TIP3   OH279488   4.307   5.355   4.327 -0.2650  0.0490 -0.3088
19358TIP3    H179489   4.243   5.342   4.257 -1.5517 -3.0205  1.2430
19358TIP3    H279490   4.256   5.353   4.408  1.5439 -0.3528  0.8887
19359TIP3   OH279491   5.461   1.195  11.473 -0.2230  0.2166 -0.0993
19359TIP3    H179492   5.400   1.160  11.409 -0.7995  0.8034  0.1167
19359TIP3    H279493   5.417   1.181  11.557  1.5281 -2.7625  0.4792
19360TIP3   OH279494   1.467   0.515  16.040  0.1257 -0.0211 -0.7487
19360TIP3    H179495   1.552   0.552  16.063  0.6872 -1.2060 -0.8378
19360TIP3    H279496   1.428   0.580  15.981 -0.2410  1.8359  1.4265
19361TIP3   OH279497   5.338   6.333  14.415 -0.5006  0.4307 -0.1114
19361TIP3    H179498   5.344   6.423  14.386 -0.7111  0.0307 -1.4692
19361TIP3    H279499   5.426   6.297  14.400 -0.8517 -0.0235 -1.1227
19362TIP3   OH279500   2.621   5.295  16.019 -0.3545 -0.0266 -0.3808
19362TIP3    H179501   2.654   5.345  16.093  2.1937 -0.3729 -1.1740
19362TIP3    H279502   2.608   5.360  15.950 -1.3269  0.1018 -0.0853
19363TIP3   OH279503   1.215   3.467  16.006 -0.3017  0.3435 -0.1107
19363TIP3    H179504   1.148   3.528  16.037  0.4629  0.6392  1.0376
19363TIP3    H279505   1.219   3.400  16.074  0.9072  0.5951  0.0771
19364TIP3   OH279506   3.942   0.914   4.955  0.1887  0.2849 -0.7006
19364TIP3    H179507   3.890   0.866   4.890 -0.7200  0.8510 -0.3991
19364TIP3    H279508   3.880   0.939   5.022  1.2304 -0.9063  0.7812
19365TIP3   OH279509   4.489   0.477  10.587  0.1489  0.4205  0.4069
19365TIP3    H179510   4.449   0.543  10.530  1.1743  1.0489  0.3953
19365TIP3    H279511   4.570   0.453  10.543 -0.6978 -1.6450 -0.1124
19366TIP3   OH279512   5.665   0.629  15.304 -0.1836 -0.7676 -0.5519
19366TIP3    H179513   5.757   0.633  15.278 -0.3309  1.1695 -0.9237
19366TIP3    H279514   5.646   0.535  15.312  1.6449 -1.2162 -1.0459
19367TIP3   OH279515   4.284   4.430  14.749 -0.2966 -0.4971  0.2318
19367TIP3    H179516   4.220   4.483  14.796 -0.0838 -1.0218  1.1348
19367TIP3    H279517   4.279   4.461  14.658 -0.8972  0.3556  0.5432
19368TIP3   OH279518   0.798   4.334   5.501 -0.1224  0.1522 -0.3840
19368TIP3    H179519   0.751   4.415   5.520 -0.2881  0.0676 -0.4277
19368TIP3    H279520   0.890   4.360   5.495  0.2686 -0.1774  2.7771
19369TIP3   OH279521   5.698   1.041   5.057  0.2643  0.0269 -0.1300
19369TIP3    H179522   5.640   1.037   5.133 -1.5351  0.1716 -1.4256
19369TIP3    H279523   5.670   0.969   5.001  1.0223  0.4029 -1.0261
19370TIP3   OH279524   0.947   1.420  12.363 -0.3122  0.0570  0.0425
19370TIP3    H179525   0.926   1.330  12.386 -0.0320 -0.1945 -0.6438
19370TIP3    H279526   1.002   1.452  12.435  0.1755 -0.5562 -0.0477
19371TIP3   OH279527   6.629   0.554   3.498  0.3606 -0.5324  0.0487
19371TIP3    H179528   6.556   0.553   3.560  0.4458  0.4165  0.1837
19371TIP3    H279529   6.589   0.532   3.414  0.3666 -2.5738  0.5287
19372TIP3   OH279530   0.701   5.034  16.927 -0.1339 -0.3400  0.4902
19372TIP3    H179531   0.734   5.036  17.016 -0.8832  1.2920  0.7644
19372TIP3    H279532   0.621   4.982  16.931 -0.8067  0.7104  1.0263
19373TIP3   OH279533   4.698   1.016   4.927  0.3697 -0.5781 -0.4601
19373TIP3    H179534   4.792   1.035   4.920  0.0621  0.9628 -0.8573
19373TIP3    H279535   4.670   1.004   4.836 -0.2213  1.3122 -0.5793
19374TIP3   OH279536   4.844   1.345  14.854 -0.0278  0.2861 -0.4128
19374TIP3    H179537   4.806   1.272  14.807 -0.0823  1.0333 -1.5761
19374TIP3    H279538   4.905   1.305  14.917  0.7188 -0.7205 -1.7222
19375TIP3   OH279539   2.026   1.293  10.643 -0.3052  0.0962 -0.3419
19375TIP3    H179540   2.034   1.211  10.692  0.0708 -0.4344 -1.2601
19375TIP3    H279541   2.033   1.266  10.552 -0.8792  1.0826 -0.6817
19376TIP3   OH279542   6.031   1.307  12.685  0.3602 -0.0661 -0.1213
19376TIP3    H179543   6.114   1.264  12.707  0.4177 -0.3591 -0.8887
19376TIP3    H279544   5.978   1.299  12.765  1.4266  1.0334  0.7442
19377TIP3   OH279545   2.030   1.133  13.715 -0.2614  0.5993  0.7671
19377TIP3    H179546   2.014   1.227  13.708 -1.0235  0.3403 -2.1157
19377TIP3    H279547   2.123   1.126  13.736  0.1920  2.0208 -0.5529
19378TIP3   OH279548   5.524   0.905  11.444  0.6292  0.4426 -0.0528
19378TIP3    H179549   5.429   0.909  11.459  0.7304 -0.6669  0.9963
19378TIP3    H279550   5.562   0.921  11.530  1.3762  0.0346 -0.3022
19379TIP3   OH279551   0.315   2.614   1.089 -0.5813  0.4930  0.0373
19379TIP3    H179552   0.364   2.672   1.032 -0.0898  0.5802  0.5377
19379TIP3    H279553   0.290   2.540   1.033 -1.0208  1.0707 -0.5440
19380TIP3   OH279554   1.058   0.634  16.751  0.1995  0.3865 -0.3208
19380TIP3    H179555   1.088   0.552  16.712  1.2096  0.2312  0.7291
19380TIP3    H279556   1.129   0.696  16.734 -0.5087  1.0378 -1.0133
19381TIP3   OH279557   2.826   1.105   0.494  0.2067 -0.0064 -0.2505
19381TIP3    H179558   2.820   1.199   0.507  0.1224  0.4008 -2.7170
19381TIP3    H279559   2.743   1.071   0.529 -0.0864  0.9257 -0.0029
19382TIP3   OH279560   5.976   0.166  15.299 -0.6570  0.3568  0.0331
19382TIP3    H179561   6.031   0.154  15.376 -0.2453 -0.8034 -0.4139
19382TIP3    H279562   5.922   0.087  15.295 -0.6655  0.3949 -0.8652
19383TIP3   OH279563   4.688   2.121  14.536  0.7100 -0.8754  0.0601
19383TIP3    H179564   4.756   2.146  14.473  0.3713 -0.3178 -0.0890
19383TIP3    H279565   4.736   2.085  14.611  1.1109 -1.8559 -0.6409
19384TIP3   OH279566   6.240   1.328   1.637 -0.1733  0.0702 -0.1764
19384TIP3    H179567   6.249   1.259   1.572 -1.8009  0.1419 -0.5124
19384TIP3    H279568   6.283   1.293   1.715  1.3251 -0.2331 -1.0813
19385TIP3   OH279569   0.351   4.046   2.835  0.5573 -0.4019 -0.1849
19385TIP3    H179570   0.313   4.102   2.768  1.7720  0.3109 -0.3070
19385TIP3    H279571   0.300   4.064   2.915 -0.4676 -0.7751 -0.7334
19386TIP3   OH279572   3.195   4.937   2.536  0.1516 -0.2494 -0.2217
19386TIP3    H179573   3.219   4.887   2.458  1.3693  0.8212 -0.5577
19386TIP3    H279574   3.229   4.885   2.609  0.1588 -0.6084 -0.4797
19387TIP3   OH279575   0.170   3.423   2.687  0.0887  0.4229 -0.1675
19387TIP3    H179576   0.154   3.330   2.703  0.5903  0.0962 -1.4658
19387TIP3    H279577   0.183   3.430   2.593 -1.1825  2.0069 -0.2880
19388TIP3   OH279578   4.539   5.274  12.018  0.5860  0.3209 -0.5128
19388TIP3    H179579   4.501   5.265  11.931  1.0104  4.0233 -1.2513
19388TIP3    H279580   4.625   5.232  12.011 -0.3847 -1.7020 -1.0091
19389TIP3   OH279581   3.506   0.773  16.577 -0.1866  0.5411  0.6999
19389TIP3    H179582   3.512   0.697  16.636 -0.8649 -0.0306  0.0484
19389TIP3    H279583   3.461   0.740  16.500 -1.1104  1.7869  0.6817
19390TIP3   OH279584   1.578   1.754  13.945  0.0073 -0.4193  0.1986
19390TIP3    H179585   1.569   1.806  13.865 -0.3875 -2.0917 -0.8819
19390TIP3    H279586   1.615   1.815  14.008  1.0764  0.7501 -1.4693
19391TIP3   OH279587   6.766   6.718  13.077  0.4341 -0.4945 -0.1747
19391TIP3    H179588   6.749   6.663  13.001  1.7339 -0.8103 -0.2514
19391TIP3    H279589   6.789   6.657  13.147  1.5450 -0.0884 -0.1689
19392TIP3   OH279590   0.627   1.499   0.584 -0.4773  0.4491  0.3695
19392TIP3    H179591   0.544   1.499   0.536 -1.0074  0.6512  1.2698
19392TIP3    H279592   0.617   1.566   0.651  1.8269  3.2717 -1.8210
19393TIP3   OH279593   4.511   3.107   5.148 -0.2162 -0.6514 -0.5509
19393TIP3    H179594   4.457   3.176   5.109  0.4106 -0.8646 -1.8440
19393TIP3    H279595   4.574   3.154   5.202  0.0613 -0.2162 -1.2452
19394TIP3   OH279596   0.396   2.568   0.144 -0.7955  0.4362  0.4019
19394TIP3    H179597   0.314   2.528   0.115 -1.1503  1.5813 -0.2524
19394TIP3    H279598   0.375   2.661   0.154  0.7297  0.9745 -1.0182
19395TIP3   OH279599   2.290   3.714   5.863  0.3311  0.1626 -0.5953
19395TIP3    H179600   2.366   3.690   5.916  0.0294 -1.3434 -0.8120
19395TIP3    H279601   2.306   3.806   5.839  0.7910  0.6877  1.5208
19396TIP3   OH279602   5.441   0.543  12.062  0.4697 -0.4604  0.1650
19396TIP3    H179603   5.409   0.617  12.113  0.8243  0.6089 -1.1014
19396TIP3    H279604   5.412   0.466  12.110  1.9286  0.4634  2.6876
19397TIP3   OH279605   4.506   6.640  11.395  0.0923 -0.0018 -0.3721
19397TIP3    H179606   4.519   6.580  11.469 -0.5300 -1.0712 -1.1105
19397TIP3    H279607   4.425   6.611  11.354  0.0910  0.9823 -1.1016
19398TIP3   OH279608   5.461   2.380  16.292 -0.3429  0.7116  0.1032
19398TIP3    H179609   5.531   2.338  16.341 -0.2621  0.5407 -0.1540
19398TIP3    H279610   5.437   2.316  16.225 -0.8928  0.6832  0.3208
19399TIP3   OH279611   1.056   4.469  16.141 -0.6232 -0.0911  0.7495
19399TIP3    H179612   0.976   4.424  16.113  0.3688 -1.1916 -0.4544
19399TIP3    H279613   1.028   4.558  16.160 -1.8332  0.0597 -1.4406
19400TIP3   OH279614   3.130   5.463   5.424 -0.2707 -0.3091  0.5490
19400TIP3    H179615   3.062   5.402   5.454 -0.7591 -0.0917 -0.0900
19400TIP3    H279616   3.120   5.539   5.482  0.8160 -1.0995  1.8208
19401TIP3   OH279617   5.488   0.010   5.597  0.1964  0.1963 -0.3601
19401TIP3    H179618   5.438  -0.070   5.611  0.3099  0.2017  0.1115
19401TIP3    H279619   5.446   0.074   5.656  0.8826  0.1434  0.1964
19402TIP3   OH279620   2.164   2.511  13.440  0.3548  0.0195  0.0360
19402TIP3    H179621   2.101   2.573  13.403  1.4533  1.1447  0.0109
19402TIP3    H279622   2.174   2.539  13.531  0.1529 -0.7228  0.2981
19403TIP3   OH279623   2.331   3.197   4.648  0.5718 -0.1354  0.3040
19403TIP3    H179624   2.311   3.249   4.570  1.4714 -2.7551 -1.8415
19403TIP3    H279625   2.369   3.260   4.709  0.7238  1.8905 -1.7147
19404TIP3   OH279626   6.328   0.853   1.779 -0.0523 -0.2235 -0.4430
19404TIP3    H179627   6.307   0.827   1.869 -0.5876  0.6886 -0.2883
19404TIP3    H279628   6.258   0.815   1.726 -1.7677  2.1225 -0.0259
19405TIP3   OH279629   0.947   5.808   0.900  0.1232  0.0435 -0.9666
19405TIP3    H179630   0.996   5.726   0.903  0.5253  0.2908 -0.5936
19405TIP3    H279631   1.006   5.870   0.857 -0.0505  0.2186 -0.9568
19406TIP3   OH279632   5.440   2.402   1.291  0.2377 -0.1573  0.0465
19406TIP3    H179633   5.499   2.439   1.226  0.1742  0.9038  0.5644
19406TIP3    H279634   5.397   2.330   1.247  0.4365  0.3390 -0.9750
19407TIP3   OH279635   2.739   2.953  14.751 -0.3507 -0.2244 -0.1514
19407TIP3    H179636   2.762   3.022  14.689  0.3343 -0.4047 -0.1124
19407TIP3    H279637   2.659   2.914  14.716 -0.2194 -0.0254 -0.6784
19408TIP3   OH279638   0.974   1.614  11.479  0.2538 -0.2059 -0.3586
19408TIP3    H179639   1.019   1.684  11.525 -1.4373 -0.7979  2.3706
19408TIP3    H279640   0.896   1.655  11.442 -0.0999 -0.3996  0.1719
19409TIP3   OH279641   4.796   0.746   0.981  0.1879  0.1278  0.0372
19409TIP3    H179642   4.720   0.797   1.009  0.3895  0.8706 -0.7099
19409TIP3    H279643   4.853   0.810   0.937  1.0645 -0.4911  0.2406
19410TIP3   OH279644   3.142   5.031   3.336  0.6308  0.2942 -0.0269
19410TIP3    H179645   3.159   5.027   3.242  0.3570 -0.4442 -0.0549
19410TIP3    H279646   3.064   5.085   3.344  0.7857  0.5484 -0.2000
19411TIP3   OH279647   5.317   1.073  12.803  0.4220 -0.2830 -0.1601
19411TIP3    H179648   5.364   1.098  12.724  0.3361 -2.4698 -0.9767
19411TIP3    H279649   5.225   1.086  12.783  0.4789  2.3504  0.8380
19412TIP3   OH279650   4.118   5.675  11.053 -0.5942  0.0274 -0.1686
19412TIP3    H179651   4.077   5.761  11.059  0.2261  0.3678  0.9306
19412TIP3    H279652   4.049   5.613  11.079 -1.0102  0.4017 -0.3821
19413TIP3   OH279653   5.617   3.873   1.816 -0.0151 -0.3805  0.1897
19413TIP3    H179654   5.696   3.831   1.782  0.5420 -0.2350  1.2282
19413TIP3    H279655   5.580   3.808   1.876 -1.6061 -1.0888 -1.4732
19414TIP3   OH279656   1.186   0.951  12.435  0.2641 -0.1366 -0.0917
19414TIP3    H179657   1.278   0.970  12.418  0.2879  1.0243  1.1582
19414TIP3    H279658   1.161   0.890  12.366  2.3045 -1.4939  0.2595
19415TIP3   OH279659   0.129   6.156   0.505  0.4011 -0.2645 -0.6125
19415TIP3    H179660   0.062   6.159   0.573 -0.1058 -1.5923 -1.0314
19415TIP3    H279661   0.196   6.218   0.535 -1.7503  2.4594 -1.0423
19416TIP3   OH279662   2.449   5.033  10.668  0.2104  0.0333  0.1681
19416TIP3    H179663   2.402   5.103  10.623  0.8516 -0.5164 -1.4318
19416TIP3    H279664   2.429   4.954  10.618  1.0045 -0.6012  0.8148
19417TIP3   OH279665   0.520   3.037  12.484  0.1348  0.1540  0.4534
19417TIP3    H179666   0.556   3.078  12.562 -1.4423 -0.4764  1.5825
19417TIP3    H279667   0.551   2.946  12.488 -1.5321 -0.4267  1.5010
19418TIP3   OH279668   2.422   4.283   1.523  0.7401 -0.6175 -0.2428
19418TIP3    H179669   2.395   4.374   1.532 -0.8157 -0.8312 -2.0180
19418TIP3    H279670   2.491   4.272   1.588  0.3168  1.5474  0.6790
19419TIP3   OH279671   0.297   0.485   5.634 -0.5311  0.0185  0.1826
19419TIP3    H179672   0.298   0.395   5.667  0.6112  0.1614  0.5908
19419TIP3    H279673   0.316   0.539   5.710 -0.8303  0.5798 -0.1328
19420TIP3   OH279674   2.765   3.980  15.325 -0.5097  0.2085  0.2656
19420TIP3    H179675   2.754   4.071  15.297 -1.9085 -0.8191 -3.0151
19420TIP3    H279676   2.858   3.962  15.311 -0.2945  1.0132  0.5870
19421TIP3   OH279677   3.940   4.817   5.188 -0.1438  0.1236  0.0584
19421TIP3    H179678   3.949   4.911   5.175 -0.8892  0.0964 -0.8083
19421TIP3    H279679   4.028   4.787   5.212  0.4043  0.8568 -0.9293
19422TIP3   OH279680   4.001   4.976  12.618 -0.4049  0.6329  0.0160
19422TIP3    H179681   3.911   5.008  12.615 -0.3176  0.8262 -0.5987
19422TIP3    H279682   4.053   5.045  12.578 -0.2110 -0.2360 -1.2933
19423TIP3   OH279683   2.430   0.137   5.540 -0.2177 -0.1963 -0.0575
19423TIP3    H179684   2.362   0.070   5.535 -0.6344  0.1502  0.8379
19423TIP3    H279685   2.449   0.146   5.633  0.5506  0.2243 -0.2410
19424TIP3   OH279686   0.992   2.425  13.264 -0.3147  0.4044 -0.2654
19424TIP3    H179687   0.988   2.373  13.345 -1.2939 -0.3310 -0.7582
19424TIP3    H279688   1.007   2.515  13.294 -2.1010  0.3888  0.8676
19425TIP3   OH279689   6.424   6.414  15.129 -0.0626  0.1820 -0.4030
19425TIP3    H179690   6.459   6.396  15.042 -0.3227 -1.1174 -0.2531
19425TIP3    H279691   6.343   6.462  15.113 -1.1597 -1.7848 -0.9869
19426TIP3   OH279692   4.638   5.891   4.320  0.1942 -0.4934 -0.7129
19426TIP3    H179693   4.723   5.885   4.277 -0.2992 -2.5017 -1.5234
19426TIP3    H279694   4.574   5.888   4.249 -0.6321  2.9635 -0.2867
19427TIP3   OH279695   1.339   6.001  12.322 -0.2798  0.7658 -0.0567
19427TIP3    H179696   1.350   6.067  12.254 -2.4786 -0.0165 -1.2839
19427TIP3    H279697   1.394   5.928  12.293 -0.1642  0.9520 -0.3071
19428TIP3   OH279698   5.228   6.747  13.340  0.3620 -0.4475 -0.1112
19428TIP3    H179699   5.310   6.740  13.290  0.6125 -1.6084  0.4492
19428TIP3    H279700   5.197   6.836  13.321  0.8204 -0.5965 -1.7494
19429TIP3   OH279701   1.036   6.315  15.671 -0.1895  0.3981  0.2363
19429TIP3    H179702   0.957   6.273  15.706 -1.5058  1.6334 -1.0904
19429TIP3    H279703   1.099   6.311  15.743 -0.7875 -2.2654  0.7399
19430TIP3   OH279704   5.770   5.824  11.180  0.6850 -0.0267  0.2671
19430TIP3    H179705   5.732   5.765  11.246  0.1161  0.5565  0.4692
19430TIP3    H279706   5.858   5.790  11.167  0.0813 -1.4643 -0.2756
19431TIP3   OH279707   6.230   1.765   0.361  0.4418  0.0278  0.2096
19431TIP3    H179708   6.151   1.712   0.367  0.7451 -0.4593  0.0061
19431TIP3    H279709   6.302   1.703   0.372  0.9379 -0.2446 -3.3630
19432TIP3   OH279710   6.430   4.347   1.786  1.1525 -0.0410  0.4791
19432TIP3    H179711   6.488   4.278   1.817  2.1375  1.1657  1.4032
19432TIP3    H279712   6.452   4.423   1.839 -1.3874  0.4420  1.0026
19433TIP3   OH279713   1.235   0.445   3.471  0.1378 -0.0615  0.1556
19433TIP3    H179714   1.326   0.423   3.451  0.2689  0.9307 -0.4135
19433TIP3    H279715   1.186   0.364   3.456  0.9261 -0.6126  0.5013
19434TIP3   OH279716   0.984   3.330  15.744  0.2588  0.8560 -0.0775
19434TIP3    H179717   1.068   3.284  15.743  0.5352  1.3495 -0.8188
19434TIP3    H279718   0.937   3.294  15.669 -0.9803 -0.7804  1.3990
19435TIP3   OH279719   4.490   1.102   2.085  0.0498 -0.0437  0.1525
19435TIP3    H179720   4.542   1.044   2.030  1.3853 -1.2909  2.5495
19435TIP3    H279721   4.400   1.075   2.070  0.2110  0.6125 -2.3799
19436TIP3   OH279722   5.771   1.451   3.334 -0.3648  0.5132  0.0385
19436TIP3    H179723   5.791   1.398   3.410  0.8561  1.7470  0.6137
19436TIP3    H279724   5.847   1.443   3.277 -1.6603 -1.1969 -1.5863
19437TIP3   OH279725   1.875   5.379   0.117  0.2113 -0.1770 -0.0964
19437TIP3    H179726   1.870   5.401   0.210  0.0956 -0.7142  0.0234
19437TIP3    H279727   1.913   5.458   0.077 -1.5976  0.8419  0.1040
19438TIP3   OH279728   2.980   4.823  14.940 -0.5581 -0.2013 -0.0356
19438TIP3    H179729   3.008   4.843  15.029  1.0043 -1.0534 -0.3031
19438TIP3    H279730   3.023   4.741  14.919 -3.2855 -1.6164 -0.5357
19439TIP3   OH279731   2.519   2.123  12.305  0.0450 -0.1432  0.0777
19439TIP3    H179732   2.606   2.158  12.288 -0.2847  1.1617  0.9246
19439TIP3    H279733   2.524   2.083  12.391  0.3060 -1.9041 -0.7098
19440TIP3   OH279734   2.616   5.395  15.477  0.0066  0.1833  0.5305
19440TIP3    H179735   2.679   5.332  15.512  0.2478  0.8392  1.2940
19440TIP3    H279736   2.670   5.460  15.432 -0.2605 -0.2990 -0.5366
19441TIP3   OH279737   2.915   3.527   5.762  0.1337  0.6378 -0.3354
19441TIP3    H179738   2.929   3.439   5.729 -1.5705  0.7842 -1.5657
19441TIP3    H279739   2.881   3.515   5.850 -1.1705 -0.0036 -0.9053
19442TIP3   OH279740   4.973   2.355   3.019 -0.5930  0.1938  0.2003
19442TIP3    H179741   5.050   2.395   3.058 -0.9737  0.2481  0.9252
19442TIP3    H279742   4.986   2.362   2.925 -0.3553  1.4383  0.3167
19443TIP3   OH279743   0.251   6.661   2.119 -0.7455  0.3541  0.1623
19443TIP3    H179744   0.276   6.605   2.192  0.6913  1.1448  0.3113
19443TIP3    H279745   0.191   6.607   2.067  0.6194 -1.3452  0.2650
19444TIP3   OH279746   1.961   2.185  12.453 -0.0637  0.4152 -0.4109
19444TIP3    H179747   1.921   2.267  12.422  0.1258 -0.0090 -1.8484
19444TIP3    H279748   1.954   2.126  12.378 -1.2203 -1.2714  0.9507
19445TIP3   OH279749   5.248   1.702   1.699  0.0615  0.2644 -0.0578
19445TIP3    H179750   5.225   1.750   1.619  1.2143  1.0993  0.0870
19445TIP3    H279751   5.195   1.743   1.767 -0.1334  0.2587 -0.2029
19446TIP3   OH279752   3.955   5.268   2.835 -0.0290  0.4120 -0.9011
19446TIP3    H179753   3.967   5.269   2.930  1.6062 -1.0940 -1.0528
19446TIP3    H279754   3.869   5.226   2.823 -0.6078  1.3084 -0.0973
19447TIP3   OH279755   1.982   2.053   3.563 -0.0314 -0.2751 -0.1841
19447TIP3    H179756   1.944   2.116   3.624 -0.1544  0.0630 -0.6060
19447TIP3    H279757   1.907   2.008   3.524  0.0029  0.2115 -0.8245
19448TIP3   OH279758   2.678   0.705  13.383 -0.0393 -0.7333  0.4793
19448TIP3    H179759   2.719   0.762  13.447  1.0470  0.7854 -1.4767
19448TIP3    H279760   2.619   0.763  13.333  0.9928 -1.2692 -1.4672
19449TIP3   OH279761   3.337   4.377  16.885 -0.1838  0.1725 -0.1737
19449TIP3    H179762   3.371   4.415  16.804 -1.6958  1.1170 -0.4058
19449TIP3    H279763   3.263   4.433  16.909 -1.8238 -1.9785  0.0831
19450TIP3   OH279764   0.960   3.352  12.704 -0.2202 -0.3750  0.3001
19450TIP3    H179765   1.010   3.283  12.748  0.1721  0.0220  0.4780
19450TIP3    H279766   0.900   3.304  12.647  0.2137 -0.8615  0.2404
19451TIP3   OH279767   6.478   3.277  16.895 -0.3790  0.6151 -0.5105
19451TIP3    H179768   6.496   3.242  16.983  0.6915  0.1429 -0.8953
19451TIP3    H279769   6.449   3.367  16.911  2.6259  1.5675  0.2303
19452TIP3   OH279770   4.465   6.218  15.540 -0.2924 -0.5361 -0.8525
19452TIP3    H179771   4.373   6.205  15.518 -0.1683  0.9600 -2.4550
19452TIP3    H279772   4.480   6.312  15.531  1.0849 -0.5425  0.7732
19453TIP3   OH279773   5.724   3.965   3.282 -0.0611 -0.2262 -0.8484
19453TIP3    H179774   5.785   4.037   3.298  0.1088 -0.6929  0.7141
19453TIP3    H279775   5.705   3.971   3.188  0.2534  1.5960 -0.8360
19454TIP3   OH279776   6.365   1.482  13.648  0.2566 -0.3591 -0.0710
19454TIP3    H179777   6.278   1.457  13.678  0.3310  0.5483  0.9939
19454TIP3    H279778   6.357   1.575  13.626  1.0286 -0.1892  0.3273
19455TIP3   OH279779   3.372   5.580  12.659 -0.5856 -0.0102  0.3757
19455TIP3    H179780   3.409   5.665  12.635 -1.8415  0.8930  1.4827
19455TIP3    H279781   3.390   5.572  12.753 -1.3953 -0.4736  0.5001
19456TIP3   OH279782   5.652   0.027   6.215  0.5826 -0.6975  0.7818
19456TIP3    H179783   5.651  -0.012   6.128 -0.5459 -0.1887  0.5397
19456TIP3    H279784   5.736   0.002   6.252  0.9254 -1.2289 -0.3131
19457TIP3   OH279785   0.621   6.639   0.297 -0.1998 -0.5261  0.4387
19457TIP3    H179786   0.618   6.577   0.224  0.1838 -0.7414  0.6024
19457TIP3    H279787   0.621   6.584   0.375  2.4818 -0.4638  0.5831
19458TIP3   OH279788   4.862   1.241   0.261  0.4847 -0.1289  0.5483
19458TIP3    H179789   4.789   1.223   0.202  0.1227  1.9165  0.2972
19458TIP3    H279790   4.926   1.288   0.208  0.2542  1.5477  1.6761
19459TIP3   OH279791   2.790   5.039   5.487  0.2849  0.1098  0.1984
19459TIP3    H179792   2.735   4.978   5.438  1.2606 -0.5235 -0.1267
19459TIP3    H279793   2.728   5.085   5.545 -0.4266 -1.4005  0.6909
19460TIP3   OH279794   5.124   0.692  13.936 -0.1475 -0.1216  0.4402
19460TIP3    H179795   5.106   0.685  14.030 -1.3203  0.3719  0.2732
19460TIP3    H279796   5.213   0.727  13.930 -0.0638 -0.1684  1.3651
19461TIP3   OH279797   1.687   3.510  17.197  0.0756  0.0332 -0.4153
19461TIP3    H179798   1.755   3.539  17.137  0.4152 -1.9859 -1.0648
19461TIP3    H279799   1.732   3.453  17.259 -0.8141 -0.3635 -0.1152
19462TIP3   OH279800   5.120   2.896   5.997  0.4086  0.2548 -0.9255
19462TIP3    H179801   5.034   2.925   5.967  0.2912 -0.3399 -1.1873
19462TIP3    H279802   5.182   2.951   5.948  0.1859  1.9094  0.5428
19463TIP3   OH279803   3.718   5.761  16.548 -0.0425 -0.1794 -0.1289
19463TIP3    H179804   3.677   5.704  16.613  1.4742 -0.0021  1.0507
19463TIP3    H279805   3.645   5.796  16.497 -1.4850  0.7400  2.3568
19464TIP3   OH279806   3.855   3.888   3.063  0.3460  0.4156 -0.5629
19464TIP3    H179807   3.781   3.831   3.045 -0.4486  1.4941 -0.7809
19464TIP3    H279808   3.924   3.828   3.093 -0.7809 -0.5394  0.2077
19465TIP3   OH279809   4.237   5.056  13.108 -0.5820 -0.3352  0.1893
19465TIP3    H179810   4.169   5.091  13.165 -0.2484 -0.2877  0.5673
19465TIP3    H279811   4.244   4.964  13.132  0.1218 -0.1320  0.8085
19466TIP3   OH279812   6.114   1.383  11.813 -0.6616 -0.1590 -0.2083
19466TIP3    H179813   6.193   1.435  11.799 -0.4606 -0.6098 -0.7998
19466TIP3    H279814   6.087   1.357  11.725  0.4612 -2.8564  0.1259
19467TIP3   OH279815   4.346   5.814   1.631  0.3670  0.0092 -0.7924
19467TIP3    H179816   4.371   5.806   1.539 -0.0600 -2.4437 -0.7770
19467TIP3    H279817   4.338   5.908   1.646 -0.2288  0.4689 -3.4458
19468TIP3   OH279818   1.256   2.711   5.103 -0.2230  0.3268 -0.0717
19468TIP3    H179819   1.270   2.803   5.083 -0.8665  0.7085  1.0907
19468TIP3    H279820   1.325   2.689   5.166 -1.8008  0.8847  1.9595
19469TIP3   OH279821   3.266   4.675   2.994 -0.0997  0.1369 -1.0071
19469TIP3    H179822   3.173   4.652   2.987 -1.2916  2.8602  2.6538
19469TIP3    H279823   3.306   4.599   3.037 -0.8136 -0.6698 -1.7314
19470TIP3   OH279824   6.159   6.556  10.962 -0.0953  0.5422  0.3028
19470TIP3    H179825   6.104   6.584  10.890  0.2475  1.8712  0.5258
19470TIP3    H279826   6.238   6.520  10.920 -0.3730  0.2640  0.0142
19471TIP3   OH279827   2.628   0.789  14.964 -0.5122  0.3284  0.2712
19471TIP3    H179828   2.612   0.723  15.031 -3.3289  0.2809 -0.3183
19471TIP3    H279829   2.600   0.871  15.004  2.1331  1.1269  0.6888
19472TIP3   OH279830   3.484   5.511  12.900  0.0372 -0.7868  0.2354
19472TIP3    H179831   3.453   5.498  12.990 -2.3328  1.4045 -0.1544
19472TIP3    H279832   3.511   5.603  12.896  1.6557 -1.2587 -0.9244
19473TIP3   OH279833   0.976   1.729   3.352 -0.2462 -0.0411  0.1880
19473TIP3    H179834   0.958   1.793   3.422 -2.2222  0.8838 -1.0691
19473TIP3    H279835   0.894   1.680   3.344  0.3497 -0.9137 -0.6872
19474TIP3   OH279836   3.391   0.284   5.390 -0.3505  0.6976 -0.2804
19474TIP3    H179837   3.360   0.194   5.382 -1.4324  1.1220 -0.9708
19474TIP3    H279838   3.396   0.316   5.300  0.6437  1.1402 -0.0881
19475TIP3   OH279839   4.812   2.167   5.223  0.4258  0.4508  0.3487
19475TIP3    H179840   4.767   2.082   5.223  0.4005  0.2460 -4.3941
19475TIP3    H279841   4.898   2.148   5.259  0.4245 -1.6369 -0.5938
19476TIP3   OH279842   5.968   2.789  13.899  0.2506  0.2050  0.6055
19476TIP3    H179843   6.019   2.717  13.936  0.7308  1.0189  1.5821
19476TIP3    H279844   6.033   2.848  13.861  0.2117  1.6837  2.6049
19477TIP3   OH279845   4.185   4.038   4.942 -0.1332  0.0268  0.1656
19477TIP3    H179846   4.168   4.115   4.888  0.0281 -1.1279 -1.5969
19477TIP3    H279847   4.278   4.046   4.965 -0.5048  1.1784  1.4002
19478TIP3   OH279848   1.221   5.370  14.138 -0.1815  0.0756 -0.1615
19478TIP3    H179849   1.147   5.391  14.080 -1.7275 -2.3478  0.7746
19478TIP3    H279850   1.262   5.455  14.155 -2.6146  1.5358 -0.9206
19479TIP3   OH279851   0.818   1.486   2.670 -0.0527  0.2257 -0.5812
19479TIP3    H179852   0.897   1.444   2.636 -0.1676 -0.3033 -0.2002
19479TIP3    H279853   0.789   1.429   2.740 -0.5563  0.6281 -0.4593
19480TIP3   OH279854   1.925   1.264  17.090  0.1822 -0.4866 -0.1722
19480TIP3    H179855   1.900   1.237  17.002  0.7867  0.8714 -0.7890
19480TIP3    H279856   1.981   1.340  17.077 -2.6872  2.1148  1.4698
19481TIP3   OH279857   2.010   0.589   2.829  0.5666 -0.1261  0.4952
19481TIP3    H179858   1.914   0.584   2.835  0.6048 -0.2686  1.0323
19481TIP3    H279859   2.030   0.681   2.844  0.4846 -0.0055 -0.1056
19482TIP3   OH279860   3.608   3.185  14.253  0.1325  0.3651  0.8442
19482TIP3    H179861   3.596   3.279  14.238 -0.8905  0.1250  0.0403
19482TIP3    H279862   3.628   3.150  14.166  0.1095 -0.2285  1.0742
19483TIP3   OH279863   3.676   4.502  16.348  0.0165  0.1819  0.6346
19483TIP3    H179864   3.733   4.447  16.401  2.1373  2.4074  0.8417
19483TIP3    H279865   3.701   4.483  16.258  1.5133  1.4755  0.7375
19484TIP3   OH279866   1.683   0.618  15.742 -0.4639  0.3777 -0.3591
19484TIP3    H179867   1.694   0.551  15.810 -0.2690  0.1815 -0.5777
19484TIP3    H279868   1.618   0.678  15.777  1.2995  1.5856  1.0105
19485TIP3   OH279869   6.263   1.976   1.515  0.0747  0.4535  0.5938
19485TIP3    H179870   6.337   1.916   1.505 -0.4100  0.1086 -1.1945
19485TIP3    H279871   6.300   2.052   1.561  2.2712  1.4673 -2.5467
19486TIP3   OH279872   5.408   3.861   6.091 -0.4268 -0.3404  0.5194
19486TIP3    H179873   5.362   3.906   6.161 -0.3080  0.1001  0.3188
19486TIP3    H279874   5.430   3.775   6.127  4.5565  1.6477  3.1603
19487TIP3   OH279875   2.887   2.320  16.161  0.1265 -0.0497  0.4626
19487TIP3    H179876   2.862   2.307  16.070 -0.1624 -3.3563  0.8754
19487TIP3    H279877   2.805   2.320  16.209  0.3647 -0.1498  0.8727
19488TIP3   OH279878   5.259   0.843   0.544 -0.2185  0.4185 -0.1254
19488TIP3    H179879   5.266   0.752   0.516 -1.2740  0.1437  0.4631
19488TIP3    H279880   5.282   0.841   0.637 -1.5111  0.5203  0.2187
19489TIP3   OH279881   5.843   2.294   3.780  0.3091  0.6041 -0.1307
19489TIP3    H179882   5.783   2.368   3.790  0.7431  1.1573 -1.5715
19489TIP3    H279883   5.815   2.250   3.700 -1.5597 -2.3394  1.8947
19490TIP3   OH279884   1.150   0.905   2.896 -0.3088  0.6521 -0.9083
19490TIP3    H179885   1.190   0.849   2.963  0.9772  1.5973 -0.8464
19490TIP3    H279886   1.057   0.880   2.895  0.3417 -1.9603 -1.3996
19491TIP3   OH279887   5.343   5.596   5.636  0.1160 -0.1589 -0.4471
19491TIP3    H179888   5.419   5.647   5.662  1.2778 -1.6671 -0.7195
19491TIP3    H279889   5.367   5.506   5.659 -0.9980 -0.8378 -1.8656
19492TIP3   OH279890   1.417   3.618  15.212  0.4657  0.2039  0.0851
19492TIP3    H179891   1.415   3.525  15.236  0.1513  0.1181 -0.2671
19492TIP3    H279892   1.459   3.619  15.125 -1.0348  0.2213 -0.6688
19493TIP3   OH279893   1.214   5.554   3.453  0.1394  0.5532 -0.1159
19493TIP3    H179894   1.245   5.622   3.513  3.1525  0.8251 -1.7956
19493TIP3    H279895   1.167   5.602   3.385 -0.0827  0.6551  0.1088
19494TIP3   OH279896   2.042   5.207  13.412 -0.4913 -0.1733  0.0631
19494TIP3    H179897   1.994   5.278  13.454  1.4869  1.7958 -0.8117
19494TIP3    H279898   2.099   5.172  13.481  0.1714  0.6516 -0.0534
19495TIP3   OH279899   5.003   3.090  12.402  0.3548  0.2183 -0.6227
19495TIP3    H179900   4.976   3.100  12.311  3.2507 -2.4395 -1.9434
19495TIP3    H279901   4.943   3.025  12.438 -0.1675  0.5198 -0.9327
19496TIP3   OH279902   5.839   5.182   3.521 -0.1437 -0.3342  0.1287
19496TIP3    H179903   5.846   5.159   3.428 -0.5211  0.3321 -0.0664
19496TIP3    H279904   5.928   5.171   3.555  0.0388 -0.3789 -0.3545
19497TIP3   OH279905   4.927   0.167  11.980 -0.4703 -0.1463 -0.3403
19497TIP3    H179906   4.905   0.086  12.025  1.9852 -0.9305 -0.4003
19497TIP3    H279907   4.955   0.227  12.049 -1.2248  0.2734 -0.3960
19498TIP3   OH279908   0.039   4.753  11.363  0.1931  0.4899 -0.6050
19498TIP3    H179909   0.008   4.749  11.273 -0.5884 -1.2256 -0.2988
19498TIP3    H279910  -0.011   4.686  11.409  2.3608 -0.4488  0.5481
19499TIP3   OH279911   6.279   6.484   4.331  0.2359 -0.2868 -0.1439
19499TIP3    H179912   6.322   6.466   4.248 -0.6733  0.7551 -0.8774
19499TIP3    H279913   6.259   6.398   4.368  0.4161 -0.7598 -1.1281
19500TIP3   OH279914   4.776   5.388   6.670  0.4870  0.4780 -0.5267
19500TIP3    H179915   4.708   5.339   6.716  0.7778  0.8849  0.3590
19500TIP3    H279916   4.812   5.326   6.606  0.2635 -0.1892 -0.0064
19501TIP3   OH279917   1.624   6.273   0.716  0.1249  0.4251  0.2109
19501TIP3    H179918   1.532   6.300   0.727 -0.1756 -1.0564  1.7614
19501TIP3    H279919   1.672   6.356   0.709 -1.2485  1.2537  0.0745
19502TIP3   OH279920   2.003   3.629   4.967  0.3761  0.1493  0.2582
19502TIP3    H179921   1.949   3.616   4.888  1.8806  1.8257 -1.1461
19502TIP3    H279922   1.943   3.664   5.032 -0.9585 -1.4904 -0.0242
19503TIP3   OH279923   3.561   6.704  16.909 -0.3829  0.5685 -0.0402
19503TIP3    H179924   3.566   6.694  17.004  0.7600  2.9819  0.2352
19503TIP3    H279925   3.567   6.798  16.895  0.0612  0.2306 -2.5342
19504TIP3   OH279926   3.614   0.720   5.050  0.8156  0.0621 -0.0184
19504TIP3    H179927   3.531   0.731   5.095  1.0372  0.7980  0.2373
19504TIP3    H279928   3.617   0.628   5.025  1.3940 -0.7816  2.8414
19505TIP3   OH279929   4.361   6.585   0.574  0.4320  0.5722  0.5725
19505TIP3    H179930   4.326   6.539   0.497  1.0658  1.4063 -0.2338
19505TIP3    H279931   4.305   6.555   0.647  0.4641 -1.0249 -0.0086
19506TIP3   OH279932   4.071   5.350  17.167 -0.2924  0.0648  0.2549
19506TIP3    H179933   4.094   5.443  17.173  2.0957 -0.5141  1.0886
19506TIP3    H279934   4.008   5.336  17.237  0.1198  0.8539  0.7964
19507TIP3   OH279935   4.823   0.779  15.961  0.4829  0.3667 -0.3366
19507TIP3    H179936   4.776   0.709  15.916 -0.6941  1.6815 -1.2552
19507TIP3    H279937   4.797   0.772  16.052  0.2098 -0.2620 -0.4642
19508TIP3   OH279938   3.860   5.152  11.858 -0.8052  0.3260 -0.4733
19508TIP3    H179939   3.819   5.233  11.829 -0.1883  0.5318 -0.7919
19508TIP3    H279940   3.884   5.168  11.950 -0.7461  0.4809 -0.5159
19509TIP3   OH279941   6.129   1.733  13.801 -0.0656 -0.0400  0.2227
19509TIP3    H179942   6.051   1.680  13.817 -1.1595  1.4444 -0.0086
19509TIP3    H279943   6.145   1.726  13.707  1.2295 -1.8319  0.5294
19510TIP3   OH279944   1.258   3.355   2.986 -0.7331  0.0161 -0.1590
19510TIP3    H179945   1.341   3.314   3.011 -0.5989 -0.2452 -1.0176
19510TIP3    H279946   1.281   3.446   2.966 -0.9926  0.4954  1.5122
19511TIP3   OH279947   1.523   5.078   1.171  0.0780  0.0780  0.0102
19511TIP3    H179948   1.436   5.104   1.200  0.2349  0.1343  0.4404
19511TIP3    H279949   1.569   5.054   1.251  1.3977  2.8220  0.2064
19512TIP3   OH279950   6.120   2.257  12.167  0.0353 -0.8163 -0.2036
19512TIP3    H179951   6.088   2.345  12.188  0.1892 -0.8021 -0.0205
19512TIP3    H279952   6.147   2.221  12.252  0.0030 -1.0281 -0.2830
19513TIP3   OH279953   6.691   5.850   1.495  0.4416  0.1986  0.1405
19513TIP3    H179954   6.772   5.810   1.463  0.1241 -0.5200  0.2323
19513TIP3    H279955   6.664   5.795   1.569 -0.5623 -0.0473 -0.3919
19514TIP3   OH279956   4.344   1.016   1.764  0.4949  0.1081 -0.6294
19514TIP3    H179957   4.298   1.093   1.797 -1.1284 -1.6391  1.5348
19514TIP3    H279958   4.428   1.049   1.734  0.2322  2.6113  1.0481
19515TIP3   OH279959   5.770   2.719  11.324  0.1092 -0.2357 -0.2962
19515TIP3    H179960   5.807   2.756  11.404  0.5944 -1.1278 -0.0964
19515TIP3    H279961   5.774   2.791  11.261 -0.3233  0.4931  0.4853
19516TIP3   OH279962   6.157   0.592  11.481 -0.3701  0.2068  0.3977
19516TIP3    H179963   6.251   0.593  11.500 -0.1916 -2.9764  0.1963
19516TIP3    H279964   6.115   0.613  11.565  0.4546  1.5628  0.5110
19517TIP3   OH279965   2.492   5.679   0.895  0.3631 -0.2049  0.0437
19517TIP3    H179966   2.438   5.602   0.911 -0.2101  0.1654 -0.0790
19517TIP3    H279967   2.511   5.714   0.982 -1.1950  0.7410  0.0506
19518TIP3   OH279968   6.608   4.908  14.053  0.2912 -0.8224 -0.0178
19518TIP3    H179969   6.523   4.944  14.079  0.6450 -0.2159  0.3348
19518TIP3    H279970   6.612   4.822  14.095  0.8714  0.1472  2.0623
19519TIP3   OH279971   1.135   6.683   1.766 -0.3211 -0.0877 -0.5645
19519TIP3    H179972   1.068   6.616   1.753 -1.3188  1.1698 -2.4228
19519TIP3    H279973   1.207   6.637   1.810 -2.0734 -1.6552  0.8108
19520TIP3   OH279974   1.104   3.678  12.173 -0.2818  0.5253 -0.1570
19520TIP3    H179975   1.133   3.596  12.135  0.8363  0.7419  0.1858
19520TIP3    H279976   1.092   3.737  12.098  0.5849  0.5461 -0.2928
19521TIP3   OH279977   0.382   2.646  12.207 -0.1128  0.3432 -0.0650
19521TIP3    H179978   0.401   2.660  12.114  0.0386  1.9853  0.1826
19521TIP3    H279979   0.309   2.704  12.226 -0.3264 -0.1831  0.7960
19522TIP3   OH279980   6.356   1.998  12.627 -0.2038  0.3527  0.3376
19522TIP3    H179981   6.371   1.970  12.537  0.9072  1.4110  0.1645
19522TIP3    H279982   6.383   2.090  12.628 -0.2088  0.3610  1.7477
19523TIP3   OH279983   4.080   1.150   4.911 -0.1017  0.7803 -0.0094
19523TIP3    H179984   4.173   1.138   4.930  0.4805  1.3632 -2.1513
19523TIP3    H279985   4.044   1.062   4.911  0.1326  0.6291  2.0404
19524TIP3   OH279986   1.684   3.864   6.538  0.4104  0.3680  0.3328
19524TIP3    H179987   1.686   3.774   6.506 -3.1778 -0.3819  1.6814
19524TIP3    H279988   1.762   3.872   6.593  0.4468 -2.1974  0.7721
19525TIP3   OH279989   3.387   0.601  16.092 -0.0012  0.0040  0.5899
19525TIP3    H179990   3.344   0.660  16.030  2.0329  0.8803 -0.0637
19525TIP3    H279991   3.425   0.532  16.037 -1.3452 -1.3225  1.2457
19526TIP3   OH279992   2.669   0.582  12.061  0.4431  0.4839 -0.2199
19526TIP3    H179993   2.577   0.576  12.033  0.0221  1.0551  0.9883
19526TIP3    H279994   2.715   0.612  11.983 -0.6424  1.6822 -0.4394
19527TIP3   OH279995   5.202   1.618  12.682 -0.0127  0.2391  0.6706
19527TIP3    H179996   5.262   1.679  12.724 -1.8953  2.9299 -0.2435
19527TIP3    H279997   5.151   1.581  12.755  1.3444 -0.4978  1.2690
19528TIP3   OH279998   4.968   1.919  16.352  0.4902  0.1957  0.5193
19528TIP3    H179999   4.927   1.920  16.439 -0.6536 -0.5702  0.0170
19528TIP3    H280000   5.017   2.001  16.347 -0.9424  1.1219  1.1855
19529TIP3   OH280001   2.695   0.853  12.835 -0.4628 -0.6500 -0.4891
19529TIP3    H180002   2.780   0.811  12.842 -0.2794 -0.1856  0.1486
19529TIP3    H280003   2.651   0.806  12.765  0.8065 -0.0388 -1.7361
19530TIP3   OH280004   3.836   4.606  13.232  0.1056 -0.0841 -0.0682
19530TIP3    H180005   3.763   4.568  13.184 -2.2401  1.3998  2.0463
19530TIP3    H280006   3.826   4.700  13.221  1.6452  0.1576  0.3616
19531TIP3   OH280007   0.742   5.891  15.864 -0.0697  0.4657  0.7928
19531TIP3    H180008   0.815   5.829  15.862 -1.4470 -1.2216  0.2855
19531TIP3    H280009   0.780   5.974  15.835  1.3060 -0.7265 -1.0258
19532TIP3   OH280010   0.492   5.902   3.463  0.0285 -0.5048 -0.3918
19532TIP3    H180011   0.571   5.867   3.422 -0.8001 -1.0439 -1.6293
19532TIP3    H280012   0.469   5.979   3.410  0.3375  0.3221  0.6530
19533TIP3   OH280013   1.297   4.366   2.623  0.6441  0.2539  0.5054
19533TIP3    H180014   1.260   4.284   2.588 -0.5987  1.9598 -2.6078
19533TIP3    H280015   1.390   4.347   2.633  0.2230 -1.8568  1.0054
19534TIP3   OH280016   4.371   3.969  17.198  0.2299 -0.0776 -0.0658
19534TIP3    H180017   4.354   4.048  17.250  1.2041 -0.5055  0.9281
19534TIP3    H280018   4.447   3.928  17.239 -0.8631 -2.0966  0.0803
19535TIP3   OH280019   0.696   3.833  17.029 -0.1722 -0.2467 -0.1294
19535TIP3    H180020   0.739   3.761  17.076  0.7774 -0.5324 -1.3838
19535TIP3    H280021   0.764   3.870  16.974 -1.4820 -0.7408 -2.2282
19536TIP3   OH280022   3.438   4.929   0.650 -0.4738 -0.6978 -0.0095
19536TIP3    H180023   3.367   4.972   0.698  0.6770 -0.1395  1.2684
19536TIP3    H280024   3.405   4.919   0.561 -1.5209  1.0999  0.1343
19537TIP3   OH280025   1.213   3.319  16.221  0.0995  0.0881 -1.0707
19537TIP3    H180026   1.216   3.225  16.202  0.2642  0.1072 -1.1402
19537TIP3    H280027   1.121   3.336  16.241  0.1320 -0.1523 -0.7099
19538TIP3   OH280028   5.998   0.328  11.600  0.4793 -0.2112 -0.1323
19538TIP3    H180029   6.005   0.346  11.694 -0.8115 -0.4614  0.0346
19538TIP3    H280030   5.905   0.336  11.581  0.7647  0.1224 -1.4645
19539TIP3   OH280031   1.154   4.707  11.110  0.3685  0.0877 -0.2577
19539TIP3    H180032   1.130   4.797  11.133 -2.1737 -0.5190 -0.2324
19539TIP3    H280033   1.176   4.711  11.017 -1.9338  0.4440 -0.8553
19540TIP3   OH280034   3.437   6.512  14.455  0.0743 -0.7666  0.4973
19540TIP3    H180035   3.341   6.513  14.455  0.0217  1.8401 -0.7930
19540TIP3    H280036   3.461   6.542  14.543 -0.3454  0.4719  0.2031
19541TIP3   OH280037   4.908   4.119  14.004  0.0878 -0.1558  0.2950
19541TIP3    H180038   4.942   4.204  14.032  1.6665 -0.3505 -0.8646
19541TIP3    H280039   4.955   4.056  14.059 -1.5153 -0.2963  1.5683
19542TIP3   OH280040   3.473   2.229  15.105  0.1459  0.0689 -0.1858
19542TIP3    H180041   3.485   2.254  15.196  1.2629  0.6296 -0.4712
19542TIP3    H280042   3.487   2.310  15.056 -1.9532  0.1364 -0.7922
19543TIP3   OH280043   4.557   4.657   4.755  0.4682  0.2970  0.7212
19543TIP3    H180044   4.650   4.642   4.740  0.4892  0.0064  1.1529
19543TIP3    H280045   4.548   4.668   4.849  0.2799  1.8239  0.5520
19544TIP3   OH280046   5.320   4.691  14.332  0.2598  0.7108  0.0224
19544TIP3    H180047   5.263   4.758  14.370 -1.7040 -1.0219  0.3232
19544TIP3    H280048   5.280   4.608  14.358  0.5633 -0.6076 -3.2328
19545TIP3   OH280049   0.830   2.442   0.921  0.5636 -0.2391 -0.5396
19545TIP3    H180050   0.829   2.526   0.876  2.8436  1.0048  1.5187
19545TIP3    H280051   0.781   2.457   1.002 -0.0072 -1.2680 -0.6737
19546TIP3   OH280052   4.396   4.209   4.701  0.0737 -0.6190  0.1425
19546TIP3    H180053   4.452   4.138   4.731  0.7334 -1.2870 -2.4639
19546TIP3    H280054   4.332   4.167   4.643  0.9456  0.9033 -2.0863
19547TIP3   OH280055   0.033   3.749  15.048 -0.0558 -0.1498 -0.1937
19547TIP3    H180056   0.123   3.750  15.014  0.4433 -0.3694  1.0464
19547TIP3    H280057   0.044   3.748  15.143 -1.3633 -1.6924 -0.0171
19548TIP3   OH280058   1.790   5.424   5.748  0.7412  0.2704  0.1922
19548TIP3    H180059   1.762   5.491   5.811  1.6565 -0.2547  1.2005
19548TIP3    H280060   1.863   5.465   5.702  0.2819  0.5353 -0.3071
19549TIP3   OH280061   1.788   0.045  12.683  0.2386 -0.0157 -0.5243
19549TIP3    H180062   1.822   0.070  12.769 -0.1475 -1.5782  0.1074
19549TIP3    H280063   1.854  -0.016  12.648  0.6678  1.0198 -1.5947
19550TIP3   OH280064   4.213   2.783  14.163 -0.3881  0.4050  0.3620
19550TIP3    H180065   4.183   2.849  14.101 -0.5218  1.5183  1.5826
19550TIP3    H280066   4.266   2.831  14.226  1.2650 -1.0053  0.1082
19551TIP3   OH280067   0.739   6.739   4.952  0.0033 -0.4772  0.4242
19551TIP3    H180068   0.721   6.823   4.909  2.9319 -0.7662 -1.6753
19551TIP3    H280069   0.737   6.759   5.046 -2.6829  1.0996  0.1388
19552TIP3   OH280070   1.095   0.404  12.424  0.3584 -0.1791 -0.1091
19552TIP3    H180071   1.017   0.408  12.369  0.1074  0.1218  0.2681
19552TIP3    H280072   1.126   0.495  12.428  1.9770 -0.5601 -2.0327
19553TIP3   OH280073   2.539   5.063  16.663  0.4189  0.1287  0.5853
19553TIP3    H180074   2.490   4.984  16.639 -0.4890  0.4107  1.4465
19553TIP3    H280075   2.617   5.060  16.608 -0.5544 -0.3296 -0.8103
19554TIP3   OH280076   2.334   4.052  13.042 -0.0936  0.3537  0.2644
19554TIP3    H180077   2.426   4.049  13.070 -0.1753 -0.7844  0.4566
19554TIP3    H280078   2.289   3.993  13.103 -1.0562  1.3124  0.5181
19555TIP3   OH280079   0.120   2.307   3.416  0.0038  0.4015 -0.1987
19555TIP3    H180080   0.199   2.332   3.464 -1.0590  0.4364  1.6701
19555TIP3    H280081   0.106   2.379   3.355  1.4670  0.3317 -0.6515
19556TIP3   OH280082   0.285   4.426   5.207 -0.4857  0.3001 -0.1805
19556TIP3    H180083   0.347   4.385   5.267 -2.1151 -1.7426  0.2215
19556TIP3    H280084   0.253   4.354   5.152 -2.3151  1.2868 -0.5027
19557TIP3   OH280085   4.456   1.874   0.994  0.5644  0.3607 -0.0826
19557TIP3    H180086   4.536   1.901   0.950  0.7794 -0.8394 -0.4586
19557TIP3    H280087   4.393   1.859   0.923  0.5315 -0.3677  0.0951
19558TIP3   OH280088   5.881   4.402  17.163  0.3154 -0.1546 -0.4156
19558TIP3    H180089   5.870   4.493  17.190 -1.8010 -0.0463 -1.3952
19558TIP3    H280090   5.926   4.359  17.236 -0.7691  1.1653  1.0797
19559TIP3   OH280091   4.406   6.761   2.764 -0.5495  0.0903  0.4076
19559TIP3    H180092   4.369   6.689   2.712  0.4608  0.6045 -1.1066
19559TIP3    H280093   4.369   6.840   2.724 -0.4255  0.4733  1.0463
19560TIP3   OH280094   6.391   0.281   3.969 -0.1457 -0.0854 -0.1062
19560TIP3    H180095   6.318   0.328   3.929 -0.1492 -1.5048 -1.8729
19560TIP3    H280096   6.466   0.298   3.911  0.0529 -1.5024 -0.3135
19561TIP3   OH280097   1.431   2.284  11.873 -0.1652  0.0522 -0.1030
19561TIP3    H180098   1.443   2.238  11.790  2.4183  0.4805 -0.0573
19561TIP3    H280099   1.394   2.219  11.932 -0.4431 -0.7426 -1.1305
19562TIP3   OH280100   6.311   4.722   2.695  0.3605  0.2246 -0.6288
19562TIP3    H180101   6.405   4.708   2.699  0.7451  2.4327 -0.7792
19562TIP3    H280102   6.290   4.770   2.775 -0.4745  0.5573 -1.0347
19563TIP3   OH280103   0.514   6.269  14.380  0.6581  0.2463  0.4620
19563TIP3    H180104   0.536   6.206  14.448 -0.6410  0.9205  1.5478
19563TIP3    H280105   0.418   6.274  14.381  0.6398  0.8114 -0.9266
19564TIP3   OH280106   6.141   2.270  14.199  0.3590 -0.1869  0.4264
19564TIP3    H180107   6.121   2.270  14.105 -0.0669  0.1115  0.5143
19564TIP3    H280108   6.142   2.363  14.223  1.5833 -0.1945  0.4890
19565TIP3   OH280109   4.198   2.770   2.803  0.2231 -0.2096 -0.5225
19565TIP3    H180110   4.224   2.678   2.814 -0.8320 -0.5801 -0.9426
19565TIP3    H280111   4.279   2.815   2.780  1.2056 -0.5986  1.8775
19566TIP3   OH280112   1.898   2.911  11.888  0.1509  0.2708  0.2260
19566TIP3    H180113   1.835   2.926  11.959 -0.0366 -0.8695  0.3218
19566TIP3    H280114   1.956   2.987  11.891 -0.0209  0.3773  1.4273
19567TIP3   OH280115   0.483   6.615   3.253  0.5902  0.2717  0.3103
19567TIP3    H180116   0.436   6.561   3.317 -1.7874  0.6218 -0.9925
19567TIP3    H280117   0.424   6.688   3.236  1.3088  0.4190 -1.9366
19568TIP3   OH280118   4.425   3.420   6.794  0.1698  0.3473  0.1902
19568TIP3    H180119   4.509   3.436   6.837 -0.4640 -0.0311  1.6323
19568TIP3    H280120   4.423   3.482   6.722  1.8450  0.1153 -0.1162
19569TIP3   OH280121   2.653   1.477   0.317  0.6830 -0.2833  0.3811
19569TIP3    H180122   2.580   1.416   0.306 -0.5833  1.2459 -0.0653
19569TIP3    H280123   2.631   1.526   0.396  1.2333  0.1787  0.2497
19570TIP3   OH280124   4.519   2.481   2.745  0.1430 -0.3029 -0.1480
19570TIP3    H180125   4.502   2.443   2.831  0.6204  0.1795  0.1598
19570TIP3    H280126   4.432   2.502   2.711 -0.1918 -2.1629 -0.5697
19571TIP3   OH280127   1.869   4.722  15.932 -0.1387  0.1747  0.3990
19571TIP3    H180128   1.862   4.804  15.982  1.1757  0.0775  0.7822
19571TIP3    H280129   1.833   4.655  15.991 -1.3183  0.4611  0.0425
19572TIP3   OH280130   0.111   5.427   2.186  0.3744  0.5568  0.5142
19572TIP3    H180131   0.151   5.513   2.185 -0.7784  1.1223  0.9290
19572TIP3    H280132   0.072   5.417   2.099  2.9920 -0.8219 -0.6268
19573TIP3   OH280133   6.584   3.237   3.137 -0.3458 -0.0845  0.1125
19573TIP3    H180134   6.491   3.250   3.151 -0.0682  1.0116  1.0908
19573TIP3    H280135   6.623   3.323   3.154  0.9757 -0.8324  1.0612
19574TIP3   OH280136   2.844   2.699   4.181  0.8784 -0.2953  0.1142
19574TIP3    H180137   2.846   2.666   4.091  0.3338  1.5385 -0.6198
19574TIP3    H280138   2.790   2.636   4.228 -0.1307 -0.4843 -1.2287
19575TIP3   OH280139   3.630   6.463   4.373 -0.2546 -0.1161  0.0963
19575TIP3    H180140   3.630   6.425   4.460  0.3076 -1.4151 -0.4450
19575TIP3    H280141   3.643   6.557   4.387 -0.0342 -0.3271  1.3848
19576TIP3   OH280142   4.393   2.336  15.849 -0.0500 -0.0970  0.2544
19576TIP3    H180143   4.341   2.335  15.930 -1.3615  1.7252 -0.4876
19576TIP3    H280144   4.352   2.269  15.794 -0.2964 -0.0902  0.4266
19577TIP3   OH280145   2.177   6.098  14.634  0.5163  0.6002  0.0331
19577TIP3    H180146   2.191   6.141  14.549  1.4513 -0.2029 -0.2389
19577TIP3    H280147   2.234   6.145  14.694  0.1010  0.9553  0.1596
19578TIP3   OH280148   0.026   5.083   3.698 -0.0433 -1.1659 -0.4465
19578TIP3    H180149   0.085   5.117   3.630 -0.7059  0.6557 -0.1895
19578TIP3    H280150  -0.005   4.999   3.663  1.8205 -1.6280 -1.0715
19579TIP3   OH280151   2.708   3.847   0.092  0.9110 -0.4050 -0.5310
19579TIP3    H180152   2.683   3.938   0.110  0.6365 -0.5856  0.0375
19579TIP3    H280153   2.660   3.796   0.158 -0.7959 -1.1942 -2.2959
19580TIP3   OH280154   3.012   0.220  13.832  0.1981  0.2826 -0.2942
19580TIP3    H180155   2.949   0.259  13.771 -1.8329 -0.8099  1.0053
19580TIP3    H280156   3.044   0.142  13.787 -0.4346  0.1038 -0.4467
19581TIP3   OH280157   2.470   5.254  13.359  0.6569  0.1953  0.7014
19581TIP3    H180158   2.475   5.293  13.272  0.5661 -1.5956 -0.1366
19581TIP3    H280159   2.508   5.167  13.349 -0.0255 -0.3250  2.2816
19582TIP3   OH280160   1.529   1.386   2.285 -0.4746 -0.1559 -0.0245
19582TIP3    H180161   1.539   1.303   2.331  1.9243  0.3024  0.4494
19582TIP3    H280162   1.507   1.449   2.353 -1.4789 -0.2401 -0.2576
19583TIP3   OH280163   6.361   6.778   0.909 -0.0337 -0.0950  0.2355
19583TIP3    H180164   6.376   6.752   0.999  1.5762 -0.9315 -0.2255
19583TIP3    H280165   6.449   6.797   0.875 -0.3018 -2.0110 -1.7783
19584TIP3   OH280166   6.240   5.873  11.448 -0.9003  0.0282 -0.1234
19584TIP3    H180167   6.150   5.889  11.475 -0.9289 -0.8744  0.3809
19584TIP3    H280168   6.238   5.785  11.410 -0.1394 -0.2385  0.4221
19585TIP3   OH280169   1.168   6.210   2.175  0.2713 -0.1909  0.6427
19585TIP3    H180170   1.135   6.161   2.100 -0.4353 -0.6034  1.2166
19585TIP3    H280171   1.189   6.296   2.139 -0.5761 -0.2073  0.0744
19586TIP3   OH280172   5.286   0.478  16.953  0.1361  0.0457 -0.5910
19586TIP3    H180173   5.225   0.431  16.896 -0.2105  0.3995 -0.5157
19586TIP3    H280174   5.231   0.514  17.023  0.4880  0.0378 -0.3059
19587TIP3   OH280175   3.200   2.903   3.615  0.1475  0.4932 -0.5476
19587TIP3    H180176   3.274   2.847   3.639 -0.0864 -0.3053 -1.6017
19587TIP3    H280177   3.240   2.985   3.587  0.5666  0.4356 -0.1366
19588TIP3   OH280178   4.806   0.424  12.458 -0.3991 -0.6902 -0.0642
19588TIP3    H180179   4.879   0.390  12.406  0.0063  0.4253 -0.2694
19588TIP3    H280180   4.762   0.486  12.400 -1.3680 -1.1612  0.1495
19589TIP3   OH280181   5.883   3.212   1.668 -0.3968 -0.8425 -0.5853
19589TIP3    H180182   5.823   3.286   1.668  1.3243  0.6617  0.2225
19589TIP3    H280183   5.950   3.235   1.604  0.0875 -1.7734 -0.4357
19590TIP3   OH280184   1.109   6.311   1.678 -0.9169  0.2268 -0.0029
19590TIP3    H180185   1.036   6.360   1.715 -0.9594  0.6885 -0.6772
19590TIP3    H280186   1.106   6.226   1.722  0.5932  1.5600  2.9463
19591TIP3   OH280187   5.347   0.643   4.210 -0.0466 -0.5233 -0.1931
19591TIP3    H180188   5.316   0.609   4.126 -0.6685 -0.3409 -0.0484
19591TIP3    H280189   5.266   0.661   4.259  0.3001 -0.0702  0.2179
19592TIP3   OH280190   3.821   0.805  15.189 -0.3544 -0.1515  0.4094
19592TIP3    H180191   3.783   0.891  15.201  0.4438  0.4211 -0.9993
19592TIP3    H280192   3.759   0.745  15.230 -0.9353  1.0685  1.3777
19593TIP3   OH280193   5.705   0.406   2.351 -0.4961 -0.3466  0.0436
19593TIP3    H180194   5.631   0.453   2.391  0.9112  1.4984  0.5999
19593TIP3    H280195   5.780   0.464   2.364  1.3541 -2.7357  0.6744
19594TIP3   OH280196   3.832   6.418   6.059  0.4038  0.7322 -0.9135
19594TIP3    H180197   3.771   6.477   6.104 -0.7640  0.5518 -2.2097
19594TIP3    H280198   3.816   6.333   6.098  0.2641  0.8010 -0.8188
19595TIP3   OH280199   3.875   0.521   4.177 -0.2785  0.4986 -0.1526
19595TIP3    H180200   3.928   0.542   4.099  0.7096  1.4931  0.7545
19595TIP3    H280201   3.835   0.436   4.156  3.6893 -1.6662  0.0800
19596TIP3   OH280202   3.364   5.746  13.663  0.0884 -0.2599  0.2746
19596TIP3    H180203   3.270   5.761  13.673  0.1996 -0.0413  1.0564
19596TIP3    H280204   3.393   5.718  13.750  0.5667 -1.3387 -0.2075
19597TIP3   OH280205   5.454   2.433   2.311 -0.5932  0.0427 -0.4735
19597TIP3    H180206   5.362   2.425   2.335 -0.5211  0.1046 -0.1691
19597TIP3    H280207   5.500   2.439   2.395 -0.3096 -0.0257 -0.6239
19598TIP3   OH280208   6.031   4.397   4.014  0.1542 -0.2824 -0.2412
19598TIP3    H180209   5.960   4.459   4.001 -0.5211 -1.0731 -0.3792
19598TIP3    H280210   6.099   4.448   4.059 -0.3976  0.5380 -0.3139
19599TIP3   OH280211   2.610   1.670   4.800  0.1386 -0.0840  0.1331
19599TIP3    H180212   2.620   1.700   4.890  2.2845 -1.0031  0.2684
19599TIP3    H280213   2.549   1.732   4.760  1.3953  2.0916  1.4206
19600TIP3   OH280214   2.142   0.599  13.081  0.3855 -0.1250  0.3745
19600TIP3    H180215   2.107   0.529  13.025  0.2650 -0.0088  0.3024
19600TIP3    H280216   2.223   0.627  13.036  1.4483 -1.4772  1.3718
19601TIP3   OH280217   6.766   3.205  11.201  0.3932  0.1383  0.0197
19601TIP3    H180218   6.771   3.275  11.136 -2.2482 -0.0567 -0.4886
19601TIP3    H280219   6.793   3.126  11.154 -1.1777  0.0552 -0.7920
19602TIP3   OH280220   5.908   0.381  13.184  0.0589 -0.4674  0.1947
19602TIP3    H180221   5.969   0.396  13.256 -1.2317  0.4045  1.1546
19602TIP3    H280222   5.962   0.379  13.106  1.4464 -0.9679  1.1346
19603TIP3   OH280223   3.464   4.348   2.196  0.2338  0.4008 -0.4671
19603TIP3    H180224   3.497   4.345   2.107 -0.6509  0.1988 -0.7975
19603TIP3    H280225   3.440   4.258   2.217  0.3338  0.4630 -0.0642
19604TIP3   OH280226   1.957   6.414  14.623  0.2243  0.3851  0.2356
19604TIP3    H180227   1.862   6.418  14.633  0.1130 -1.4733  0.2051
19604TIP3    H280228   1.988   6.498  14.657 -1.4891  1.5191 -0.8485
19605TIP3   OH280229   6.172   5.783   4.026  0.6403  0.3551 -0.1722
19605TIP3    H180230   6.096   5.726   4.019  0.5020  0.6536 -1.2173
19605TIP3    H280231   6.246   5.724   4.041  0.4958 -0.1046 -1.2095
19606TIP3   OH280232   3.905   3.982   3.988 -0.6896 -0.9362  0.3522
19606TIP3    H180233   3.978   3.944   4.036 -0.8596 -1.0981  0.4822
19606TIP3    H280234   3.945   4.018   3.909 -0.0469  1.1903  1.5392
19607TIP3   OH280235   5.574   1.409   3.939  0.3225  0.4705 -0.3008
19607TIP3    H180236   5.515   1.339   3.910 -0.7327  1.5910 -0.9111
19607TIP3    H280237   5.518   1.470   3.986  1.1401  1.1832 -0.2248
19608TIP3   OH280238   2.408   5.608  12.813  0.5148 -0.3832  0.0659
19608TIP3    H180239   2.370   5.586  12.898 -0.4793  0.4850 -0.1370
19608TIP3    H280240   2.359   5.685  12.784 -0.3030 -1.6173 -2.0280
19609TIP3   OH280241   1.871   6.682  14.558 -0.4675  0.1461  0.0083
19609TIP3    H180242   1.942   6.743  14.579  0.2661 -0.6524 -0.0891
19609TIP3    H280243   1.798   6.709  14.614  0.4162  0.0303  1.2746
19610TIP3   OH280244   1.259   2.883  12.126  0.3941 -0.1325  0.2546
19610TIP3    H180245   1.222   2.949  12.068  0.9248 -0.4216 -0.4330
19610TIP3    H280246   1.197   2.810  12.124  1.3424 -0.9553 -1.5476
19611TIP3   OH280247   5.207   2.859   5.163  0.0785  0.2769  0.4632
19611TIP3    H180248   5.130   2.894   5.209  0.4466  0.9312  0.5957
19611TIP3    H280249   5.246   2.936   5.120  0.3620 -0.1417 -0.0368
19612TIP3   OH280250   2.439   4.116  16.812 -0.0973 -0.3646  0.7154
19612TIP3    H180251   2.352   4.156  16.805 -0.9375 -1.7353  2.4184
19612TIP3    H280252   2.447   4.062  16.734 -0.4107  0.4379  0.1160
19613TIP3   OH280253   4.060   0.333  14.552  0.2187 -0.2865 -0.0994
19613TIP3    H180254   4.046   0.295  14.465 -0.6506  0.8870 -0.4893
19613TIP3    H280255   3.983   0.307  14.602  0.4856 -0.5391  0.1928
19614TIP3   OH280256   1.236   4.372   0.554 -0.0396  0.3239 -0.2174
19614TIP3    H180257   1.298   4.399   0.622 -0.5136  0.9398 -0.0252
19614TIP3    H280258   1.265   4.284   0.529  1.0358  0.6854 -0.2803
19615TIP3   OH280259   2.188   5.203  14.449 -0.0924  0.1127  0.2458
19615TIP3    H180260   2.182   5.110  14.425 -0.7868  0.8888 -3.0252
19615TIP3    H280261   2.260   5.207  14.512 -0.0500 -2.6335  0.4920
19616TIP3   OH280262   0.311   0.963  11.731  0.0828 -0.2068  0.1979
19616TIP3    H180263   0.257   0.886  11.715  0.5971 -0.6637  0.6056
19616TIP3    H280264   0.250   1.036  11.729 -0.2703 -0.5125 -1.1545
19617TIP3   OH280265   3.121   1.000   3.300 -0.1650 -0.3238  0.1117
19617TIP3    H180266   3.082   0.959   3.377  0.7070 -1.3416  0.0284
19617TIP3    H280267   3.201   1.043   3.333 -1.1295  1.4952  0.2282
19618TIP3   OH280268   5.643   5.096  15.783  0.2960  0.4692  0.1260
19618TIP3    H180269   5.692   5.102  15.865  1.3873 -0.9137 -0.3759
19618TIP3    H280270   5.560   5.140  15.801  0.3257 -0.1667  2.1195
19619TIP3   OH280271   4.088   0.681  11.267  0.5182  0.4571 -0.1011
19619TIP3    H180272   4.170   0.676  11.316 -1.1676 -1.7585  2.8436
19619TIP3    H280273   4.064   0.590  11.251 -1.8603  0.9762  0.0965
19620TIP3   OH280274   1.495   0.523   1.100  0.3001 -0.2956  0.0859
19620TIP3    H180275   1.426   0.486   1.045  0.5364 -1.9713  0.8792
19620TIP3    H280276   1.568   0.462   1.092  1.5999  1.2450 -0.4363
19621TIP3   OH280277   2.398   1.575  15.300 -0.1660  0.0032  0.0339
19621TIP3    H180278   2.458   1.647  15.282  0.5338 -0.2704  1.1803
19621TIP3    H280279   2.378   1.538  15.213 -0.4743  1.4994 -0.5514
19622TIP3   OH280280   4.274   2.555   2.928  0.4096  1.0205  0.2209
19622TIP3    H180281   4.268   2.555   3.024 -0.1654  0.7496  0.1907
19622TIP3    H280282   4.328   2.479   2.908  1.3010  1.6043  0.3655
19623TIP3   OH280283   1.169   5.430   5.360  0.0796  0.5297  0.1008
19623TIP3    H180284   1.195   5.422   5.268 -1.6442 -1.1558 -0.3104
19623TIP3    H280285   1.251   5.422   5.409  0.7300 -1.9474 -1.2191
19624TIP3   OH280286   1.325   5.275   1.878  0.0354 -0.2311 -0.4163
19624TIP3    H180287   1.340   5.319   1.794 -1.1355 -0.3151 -0.6804
19624TIP3    H280288   1.394   5.208   1.882  0.9561  0.6714 -0.6611
19625TIP3   OH280289   3.368   5.401  12.080 -0.5086  0.4997  0.6603
19625TIP3    H180290   3.299   5.467  12.071  0.4007  1.3444 -0.4195
19625TIP3    H280291   3.430   5.440  12.141  0.2951  0.9153 -0.3868
19626TIP3   OH280292   0.080   3.095  17.105  0.0517  0.6179 -0.1812
19626TIP3    H180293   0.127   3.023  17.064  1.2540  0.9082  0.6204
19626TIP3    H280294   0.022   3.053  17.169 -1.6654  0.1817 -1.9499
19627TIP3   OH280295   3.102   6.736   0.873 -0.5173  0.3382 -0.7521
19627TIP3    H180296   3.098   6.728   0.777 -0.6973  0.5538 -0.7622
19627TIP3    H280297   3.145   6.820   0.888  1.0108 -0.4411 -0.6437
19628TIP3   OH280298   0.654   1.698  14.995  0.4124  0.0164  0.4095
19628TIP3    H180299   0.692   1.786  15.004 -0.3057  0.2951  0.8101
19628TIP3    H280300   0.570   1.713  14.951  0.5407 -0.5343 -0.0297
19629TIP3   OH280301   4.797   3.771   1.340 -0.0989 -0.0528 -0.3727
19629TIP3    H180302   4.742   3.701   1.376 -0.3521  0.0594 -0.5403
19629TIP3    H280303   4.808   3.748   1.248  0.4202 -0.2568 -0.2641
19630TIP3   OH280304   0.473   1.655  12.340 -0.0436  0.1199  0.2795
19630TIP3    H180305   0.531   1.616  12.274  0.9085  0.9960  0.5642
19630TIP3    H280306   0.503   1.619  12.423 -0.6195 -0.2506  0.3313
19631TIP3   OH280307   2.510   2.464  13.632  0.2803  0.1535  0.6327
19631TIP3    H180308   2.583   2.416  13.594 -0.4045 -1.9239  1.7691
19631TIP3    H280309   2.433   2.432  13.585  0.0795  2.7403 -0.9549
19632TIP3   OH280310   5.224   3.139  14.457 -0.6050  0.5367 -0.3474
19632TIP3    H180311   5.240   3.067  14.397 -1.8841  0.7008 -0.9239
19632TIP3    H280312   5.165   3.197  14.410 -2.1619  0.3630  1.2701
19633TIP3   OH280313   3.898   3.999  15.865 -0.4117 -0.3911 -0.2910
19633TIP3    H180314   3.948   3.918  15.855 -0.5639 -0.3165 -1.7251
19633TIP3    H280315   3.954   4.054  15.921  1.0736 -0.3705 -1.7355
19634TIP3   OH280316   2.261   4.420   0.714 -0.0954  0.1009  0.5595
19634TIP3    H180317   2.263   4.513   0.734 -3.0194  1.1082 -2.9076
19634TIP3    H280318   2.321   4.410   0.640  1.5896 -1.2332  2.0144
19635TIP3   OH280319   5.214   5.170   5.357  0.2919 -0.6910  0.4863
19635TIP3    H180320   5.219   5.113   5.435 -0.7801 -0.4068  0.7721
19635TIP3    H280321   5.152   5.238   5.381  0.6860 -0.0435 -0.2836
19636TIP3   OH280322   4.625   4.751   1.420  0.0007  0.4729 -0.5333
19636TIP3    H180323   4.677   4.677   1.391 -0.6594 -0.2474  0.0706
19636TIP3    H280324   4.674   4.828   1.392  1.2490 -0.1839 -0.2194
19637TIP3   OH280325   1.375   2.914  16.199  0.5005 -0.3312 -0.4728
19637TIP3    H180326   1.321   2.975  16.149 -0.1732  0.0788  0.7003
19637TIP3    H280327   1.396   2.844  16.138 -2.5674 -1.2512 -0.6601
19638TIP3   OH280328   2.618   1.944   0.533  0.3829 -0.3641  0.0657
19638TIP3    H180329   2.621   1.912   0.443 -0.5680 -0.8174  0.1832
19638TIP3    H280330   2.672   1.882   0.582 -0.6098 -1.2142  0.1147
19639TIP3   OH280331   3.750   3.730   2.486 -0.2195 -0.3090 -0.3141
19639TIP3    H180332   3.675   3.762   2.434  0.1866  1.8928  0.3416
19639TIP3    H280333   3.808   3.806   2.493 -0.4997 -0.2662  3.7899
19640TIP3   OH280334   2.639   6.533  14.240  0.1826  0.0817  0.3572
19640TIP3    H180335   2.671   6.542  14.330  2.9540 -1.2087 -0.4141
19640TIP3    H280336   2.643   6.622  14.205  0.8551  0.3075  0.9757
19641TIP3   OH280337   0.318   4.754  13.616  0.2432  0.1641  0.0017
19641TIP3    H180338   0.409   4.734  13.640  0.2075 -0.2126 -0.1675
19641TIP3    H280339   0.266   4.707  13.681  0.1068 -2.0148 -1.5474
19642TIP3   OH280340   3.982   2.376   6.819  0.1341  1.0989  0.3241
19642TIP3    H180341   3.999   2.418   6.734 -0.3806 -0.6126 -0.6727
19642TIP3    H280342   3.892   2.345   6.813  0.1171  0.8951  1.4803
19643TIP3   OH280343   0.774   5.389   0.382 -0.2017  0.2242 -0.5854
19643TIP3    H180344   0.806   5.332   0.313 -2.2233 -0.6386 -0.8834
19643TIP3    H280345   0.762   5.331   0.457 -1.7528  0.3213 -0.7250
19644TIP3   OH280346   6.279   2.436  16.449  0.1683 -0.0483  0.2184
19644TIP3    H180347   6.291   2.369  16.382 -0.2914 -1.2753  1.3160
19644TIP3    H280348   6.353   2.496  16.437  0.1025 -0.2441 -1.3472
19645TIP3   OH280349   5.725   3.190  14.060  0.1681 -0.4097  0.1179
19645TIP3    H180350   5.747   3.278  14.030 -0.8569  0.0925  0.7913
19645TIP3    H280351   5.688   3.147  13.982 -2.3296  0.8304  0.5102
19646TIP3   OH280352   2.564   0.484  11.393 -0.5842  0.0601 -0.0656
19646TIP3    H180353   2.625   0.433  11.341  0.5700  1.4633 -0.1389
19646TIP3    H280354   2.478   0.467  11.353 -0.2767 -1.9039  0.0237
19647TIP3   OH280355   3.699   4.280  10.866  0.0614  0.3370  0.0867
19647TIP3    H180356   3.745   4.300  10.785  0.3451 -0.5198  0.0235
19647TIP3    H280357   3.613   4.320  10.855  0.1746  0.4240 -0.5393
19648TIP3   OH280358   3.417   0.659   4.718  0.2464 -0.2365  0.2613
19648TIP3    H180359   3.334   0.637   4.674  0.1177 -1.5962  1.1293
19648TIP3    H280360   3.397   0.739   4.767 -0.4125 -0.2756  0.0748
19649TIP3   OH280361   6.221   5.587   0.353  0.0031 -0.1699  0.2484
19649TIP3    H180362   6.178   5.546   0.279 -0.1285  1.3905 -0.5744
19649TIP3    H280363   6.287   5.645   0.315  1.0112 -0.4991  1.4043
19650TIP3   OH280364   1.936   5.634   1.867 -0.1168 -0.6572 -0.0006
19650TIP3    H180365   1.914   5.700   1.801  0.8822 -1.1493 -0.8507
19650TIP3    H280366   1.869   5.567   1.858  0.9234 -1.5435 -1.7174
19651TIP3   OH280367   2.115   3.422  17.031 -0.5211  0.1806 -0.2757
19651TIP3    H180368   2.163   3.486  16.979  1.2059 -0.6137  0.2660
19651TIP3    H280369   2.150   3.338  17.003  1.9409 -0.2375  3.4143
19652TIP3   OH280370   4.424   2.999  11.919 -0.1168 -0.4350 -0.1002
19652TIP3    H180371   4.424   3.092  11.942  1.6589  0.0120 -1.6237
19652TIP3    H280372   4.331   2.975  11.916 -0.7535  1.8522 -1.6436
19653TIP3   OH280373   2.872   2.845  16.410  0.3353 -0.5816 -0.0402
19653TIP3    H180374   2.911   2.880  16.330  0.8418 -1.6804 -0.2844
19653TIP3    H280375   2.850   2.923  16.461  0.9332  0.1114 -0.8059
19654TIP3   OH280376   4.299   5.010  11.958  0.5068 -0.6509 -0.1881
19654TIP3    H180377   4.236   4.954  12.003  2.9156 -2.2454  1.3978
19654TIP3    H280378   4.269   5.011  11.867 -1.8146 -1.2624  0.5066
19655TIP3   OH280379   3.423   5.201  14.812  0.2655  0.1350 -0.1997
19655TIP3    H180380   3.371   5.180  14.735 -0.1125 -0.0003  0.0907
19655TIP3    H280381   3.409   5.295  14.825  1.6126  0.5100 -1.2394
19656TIP3   OH280382   3.127   2.031   1.782 -0.3186  0.0356 -0.1602
19656TIP3    H180383   3.147   2.075   1.865  0.4526 -0.7313  0.0695
19656TIP3    H280384   3.037   2.057   1.763  0.5760  3.0181 -0.8586
19657TIP3   OH280385   4.534   3.711  16.296  0.5440 -0.4317 -0.0388
19657TIP3    H180386   4.602   3.765  16.337  0.3156  0.9193 -1.3640
19657TIP3    H280387   4.532   3.740  16.205 -2.0893 -0.1432  0.0374
19658TIP3   OH280388   3.013   4.081  11.219  0.2433  0.1257 -0.1751
19658TIP3    H180389   3.046   4.014  11.158  1.4284  2.0421 -1.7739
19658TIP3    H280390   2.961   4.032  11.282  1.2818 -2.3367 -1.0883
19659TIP3   OH280391   2.254   6.490   3.272 -0.5551  0.5667  0.6897
19659TIP3    H180392   2.194   6.422   3.241  1.1439 -0.7455  0.1322
19659TIP3    H280393   2.233   6.500   3.365 -0.5616 -1.0750  0.9042
19660TIP3   OH280394   1.654   6.201   5.764 -0.4086  0.4532 -0.2328
19660TIP3    H180395   1.691   6.155   5.839  0.1650  1.2639  0.0036
19660TIP3    H280396   1.585   6.256   5.801  0.5206  1.5939 -0.1168
19661TIP3   OH280397   5.297   2.392  11.309  0.0345 -0.7351  0.1452
19661TIP3    H180398   5.258   2.443  11.239 -0.9860 -0.2915  1.0164
19661TIP3    H280399   5.382   2.364  11.274  0.9571  2.0884 -0.1463
19662TIP3   OH280400   5.050   0.174  13.282  0.3787  0.2811 -0.5554
19662TIP3    H180401   5.043   0.135  13.195 -1.6952 -0.3645 -0.1616
19662TIP3    H280402   4.966   0.155  13.323  1.3119  0.5585  1.6114
19663TIP3   OH280403   4.567   0.242   3.711 -0.0662 -0.3656  0.1073
19663TIP3    H180404   4.541   0.156   3.744  1.6605 -0.5500  1.1100
19663TIP3    H280405   4.611   0.284   3.785  0.7341  0.6512 -0.9136
19664TIP3   OH280406   1.504   3.168   0.488  0.2897  0.1694 -0.1693
19664TIP3    H180407   1.542   3.256   0.483  0.6367 -0.0202 -1.3287
19664TIP3    H280408   1.579   3.111   0.504 -0.0564  0.1556  1.5000
19665TIP3   OH280409   4.236   1.057  16.618 -0.1455  0.4811 -0.3516
19665TIP3    H180410   4.152   1.018  16.592  1.6088 -2.3022 -2.4038
19665TIP3    H280411   4.271   0.997  16.684 -0.5088  2.7029  2.0392
19666TIP3   OH280412   2.669   0.334   5.743 -0.0419 -0.5959  0.3459
19666TIP3    H180413   2.651   0.428   5.748 -1.1480 -0.6283 -1.7949
19666TIP3    H280414   2.594   0.292   5.784  0.4192 -0.5770  1.2387
19667TIP3   OH280415   0.326   6.045   0.090  0.0615 -0.1480  0.0711
19667TIP3    H180416   0.243   6.018   0.052  0.6368 -0.7000 -0.8202
19667TIP3    H280417   0.321   6.141   0.093  0.0662 -0.0591 -1.6177
19668TIP3   OH280418   6.707   1.230  15.194 -0.5294 -0.2543  0.2264
19668TIP3    H180419   6.792   1.258  15.159 -0.3185 -0.8790  0.2242
19668TIP3    H280420   6.665   1.184  15.122 -2.0412  2.3486 -0.6540
19669TIP3   OH280421   0.427   3.952  15.148 -0.2343 -0.0575  0.1336
19669TIP3    H180422   0.345   3.998  15.168 -1.6667 -2.8684  1.3470
19669TIP3    H280423   0.399   3.868  15.112  2.2366 -0.0426 -2.1348
19670TIP3   OH280424   0.286   5.222   5.075  0.3205  0.1441  0.2082
19670TIP3    H180425   0.328   5.305   5.051  2.9694 -0.9416  0.7918
19670TIP3    H280426   0.333   5.193   5.153 -1.3427 -1.3757  0.7137
19671TIP3   OH280427   2.075   4.704   5.461  0.2629 -0.1716  0.0581
19671TIP3    H180428   2.076   4.614   5.431  1.5666 -1.0225  2.4139
19671TIP3    H280429   2.167   4.729   5.465 -0.0954  1.5826 -1.2861
19672TIP3   OH280430   1.471   2.296  17.169 -0.0471 -0.3122 -0.2075
19672TIP3    H180431   1.406   2.355  17.206  0.6691  0.2110  0.2421
19672TIP3    H280432   1.521   2.350  17.108 -1.1173 -1.1209 -1.9011
19673TIP3   OH280433   1.981   4.817   1.131  0.2632 -0.2316  0.5464
19673TIP3    H180434   2.014   4.881   1.068  0.7527 -0.6286  0.3962
19673TIP3    H280435   1.967   4.867   1.211  2.2326 -0.2336  0.9327
19674TIP3   OH280436   5.593   1.903  12.369 -0.0834 -0.2599  0.2020
19674TIP3    H180437   5.545   1.923  12.449 -0.3904 -0.8535  0.1679
19674TIP3    H280438   5.533   1.926  12.298  0.7411  1.7337  0.0841
19675TIP3   OH280439   1.210   3.185   6.115 -0.7042  0.0839 -0.1713
19675TIP3    H180440   1.163   3.103   6.130  0.7083 -1.3986 -2.9568
19675TIP3    H280441   1.142   3.250   6.098 -1.8163 -1.0152 -0.0360
19676TIP3   OH280442   3.944   3.495  12.744  0.3909 -0.3192  0.5310
19676TIP3    H180443   3.942   3.577  12.695  0.2583  0.1257  1.2649
19676TIP3    H280444   3.853   3.467  12.748  0.4726 -0.6660  0.0164
19677TIP3   OH280445   1.290   1.618   0.395  0.1232 -0.1412 -0.3724
19677TIP3    H180446   1.373   1.659   0.370  0.7690 -2.2687 -2.0954
19677TIP3    H280447   1.275   1.552   0.327 -2.0726 -1.0399  0.8893
19678TIP3   OH280448   0.604   5.613  11.548 -0.1614 -0.4221 -0.5886
19678TIP3    H180449   0.664   5.582  11.616 -1.0588 -2.1838 -0.5582
19678TIP3    H280450   0.623   5.707  11.541 -0.4439 -0.0445  2.4854
19679TIP3   OH280451   4.305   3.970  13.184  0.1618  0.3032  0.5742
19679TIP3    H180452   4.286   4.009  13.270 -0.3569  0.7509  0.2654
19679TIP3    H280453   4.382   3.914  13.199  0.5350  0.9560  1.1706
19680TIP3   OH280454   1.013   1.457  11.006  0.0178  0.0970  0.4299
19680TIP3    H180455   0.980   1.371  11.029 -2.7735  0.7936 -0.6713
19680TIP3    H280456   1.043   1.448  10.915 -0.5133  0.3434  0.2292
19681TIP3   OH280457   4.059   0.324  10.889 -0.4352  0.3275 -0.1994
19681TIP3    H180458   3.983   0.379  10.871 -0.5915  0.0952 -0.2697
19681TIP3    H280459   4.135   0.378  10.868 -0.5948  0.3728 -0.6593
19682TIP3   OH280460   5.746   4.374  15.276  0.5088  0.1332  0.1995
19682TIP3    H180461   5.809   4.304  15.261 -0.6673 -0.5718 -1.7541
19682TIP3    H280462   5.794   4.439  15.328  2.9833 -0.1989 -1.4916
19683TIP3   OH280463   4.211   0.642  16.406 -0.7129 -0.0394 -0.3681
19683TIP3    H180464   4.245   0.603  16.325 -0.6648  0.8560 -0.7821
19683TIP3    H280465   4.285   0.693  16.440 -0.4492 -1.0856  0.6988
19684TIP3   OH280466   0.982   4.417  12.646 -0.4033 -0.4578  0.3995
19684TIP3    H180467   1.052   4.456  12.699 -0.0759 -0.6978  0.1466
19684TIP3    H280468   0.990   4.323  12.661  0.6645 -0.6763 -1.2269
19685TIP3   OH280469   5.150   2.482  14.744 -0.5607 -0.1247  0.1914
19685TIP3    H180470   5.213   2.418  14.710  1.3161  0.5810  2.0598
19685TIP3    H280471   5.128   2.450  14.831 -1.0343  0.7942  0.4276
19686TIP3   OH280472   2.124   2.540   0.308 -0.3638 -0.1629  0.5871
19686TIP3    H180473   2.111   2.529   0.214 -0.9400 -0.7952  0.7319
19686TIP3    H280474   2.044   2.585   0.338 -0.3633 -0.3209  0.8324
19687TIP3   OH280475   1.427   3.304   1.644 -0.0549 -0.2144 -0.0251
19687TIP3    H180476   1.356   3.266   1.696  0.0971 -0.4190  0.0337
19687TIP3    H280477   1.493   3.235   1.638  0.1001 -0.0577 -0.1581
19688TIP3   OH280478   5.890   2.173   0.002  0.2620 -0.0875 -0.2203
19688TIP3    H180479   5.982   2.198  -0.007  0.7906 -2.0508 -0.6564
19688TIP3    H280480   5.864   2.142  -0.085 -0.7616  0.2242 -0.0424
19689TIP3   OH280481   0.597   0.783  12.372 -0.1255 -0.0393  0.4319
19689TIP3    H180482   0.663   0.800  12.439 -1.6745  0.4604  1.9052
19689TIP3    H280483   0.647   0.754  12.296  1.7813  0.3808  1.4560
19690TIP3   OH280484   1.872   0.605   3.631 -0.3857  0.0871 -0.1449
19690TIP3    H180485   1.921   0.624   3.551 -1.5696 -0.6839 -1.0749
19690TIP3    H280486   1.934   0.625   3.702 -0.0350  2.8648 -1.1463
19691TIP3   OH280487   0.395   5.451   1.460 -0.3196  0.1954  0.5144
19691TIP3    H180488   0.323   5.490   1.411 -0.5170  0.3934  0.9625
19691TIP3    H280489   0.407   5.508   1.536 -0.3903 -0.4278  0.9981
19692TIP3   OH280490   1.991   3.919  11.817  0.1028 -0.1551  0.1661
19692TIP3    H180491   1.968   3.896  11.727 -1.8145  1.0098  0.2984
19692TIP3    H280492   1.910   3.906  11.867 -0.2467  3.5049  0.8358
19693TIP3   OH280493   3.786   6.501   4.995 -0.2140 -0.2660 -0.3887
19693TIP3    H180494   3.818   6.411   5.008 -0.8453 -0.5486 -0.7377
19693TIP3    H280495   3.745   6.499   4.909 -1.9142 -0.1288  0.3963
19694TIP3   OH280496   2.484   5.404   3.065 -0.3503 -0.7951  0.0760
19694TIP3    H180497   2.413   5.467   3.049  0.4855  0.4344  1.0280
19694TIP3    H280498   2.452   5.322   3.027 -1.7909  0.0090 -0.5382
19695TIP3   OH280499   1.816   4.484  13.092 -0.0510 -0.6430 -0.2859
19695TIP3    H180500   1.876   4.425  13.047 -0.0164 -0.2891 -0.7133
19695TIP3    H280501   1.787   4.545  13.024  1.4621  1.0904  0.5495
19696TIP3   OH280502   4.357   3.786  15.661  0.7497 -0.4926  0.5781
19696TIP3    H180503   4.313   3.758  15.581  1.1019 -2.3072  0.9723
19696TIP3    H280504   4.450   3.772  15.643  1.5396  4.4556 -0.7194
19697TIP3   OH280505   3.676   2.712  14.266 -0.0647  0.3429  0.7261
19697TIP3    H180506   3.630   2.713  14.182  1.7216 -1.2621 -0.3424
19697TIP3    H280507   3.606   2.702  14.331 -1.3253 -1.0563 -0.7568
19698TIP3   OH280508   2.055   3.030   1.944  0.0624  0.1345 -0.5423
19698TIP3    H180509   2.112   2.999   2.015 -0.2886  0.7177 -0.0054
19698TIP3    H280510   2.025   2.949   1.901  1.9798 -0.1882 -1.4001
19699TIP3   OH280511   2.338   3.324  16.707 -0.4466 -0.2812  0.1823
19699TIP3    H180512   2.292   3.383  16.767 -0.6319 -0.8982  0.6573
19699TIP3    H280513   2.306   3.349  16.620 -1.3710 -0.4167  0.4672
19700TIP3   OH280514   3.994   1.435  11.652 -0.8083  0.0896 -0.3365
19700TIP3    H180515   4.085   1.419  11.676 -0.3807  1.5756 -0.8685
19700TIP3    H280516   3.951   1.458  11.733 -1.0561 -1.8890  0.1554
19701TIP3   OH280517   1.054   2.627  13.422  0.0663 -0.4757 -0.3947
19701TIP3    H180518   1.036   2.611  13.515 -1.3823 -0.7346 -0.6957
19701TIP3    H280519   1.049   2.722  13.413 -1.4563 -0.5490 -0.5019
19702TIP3   OH280520   5.865   2.783  15.172 -0.8359  0.1170  0.1039
19702TIP3    H180521   5.821   2.722  15.231  1.1693 -0.9329  0.6269
19702TIP3    H280522   5.920   2.727  15.116  1.1682  1.3827  0.6842
19703TIP3   OH280523   5.660   3.144  12.662 -0.6592 -0.9192  0.6401
19703TIP3    H180524   5.630   3.203  12.731 -1.6399 -0.1667 -0.3823
19703TIP3    H280525   5.595   3.073  12.661 -1.4218 -0.2423 -0.3516
19704TIP3   OH280526   6.344   1.834   5.093 -0.1074 -0.5102 -0.5348
19704TIP3    H180527   6.287   1.792   5.028 -0.8025 -1.1662  0.4868
19704TIP3    H280528   6.303   1.919   5.109  0.7383  0.1923 -1.8301
19705TIP3   OH280529   3.797   1.634   3.086 -0.4385 -0.1577 -0.5563
19705TIP3    H180530   3.719   1.677   3.051  0.6857  1.9185 -0.6997
19705TIP3    H280531   3.781   1.628   3.180 -0.0619  2.0518 -0.2872
19706TIP3   OH280532   5.556   6.433   5.686 -0.2711  0.1253 -0.1686
19706TIP3    H180533   5.492   6.503   5.674  0.8812  0.9294 -2.2427
19706TIP3    H280534   5.550   6.381   5.606  2.1248  0.6942 -0.8117
19707TIP3   OH280535   2.452   1.353   3.472  0.4438 -0.4042 -0.2768
19707TIP3    H180536   2.482   1.263   3.483 -0.3045 -0.6933 -0.5020
19707TIP3    H280537   2.512   1.391   3.408  0.7497 -0.7484 -0.1983
19708TIP3   OH280538   5.861   0.944  12.666 -0.4994  0.1130  0.0583
19708TIP3    H180539   5.954   0.965  12.662 -0.4336 -0.2623 -0.4040
19708TIP3    H280540   5.838   0.955  12.758  0.8544 -3.4236  0.9806
19709TIP3   OH280541   6.741   5.529   5.705 -0.4235  0.1158 -0.6401
19709TIP3    H180542   6.738   5.434   5.692  0.8352  0.2212 -1.8912
19709TIP3    H280543   6.650   5.552   5.724 -0.5901 -1.4503  0.7160
19710TIP3   OH280544   3.485   1.173   3.091 -0.3049 -0.0169  0.0903
19710TIP3    H180545   3.491   1.221   3.008 -0.5513  0.4627  0.3424
19710TIP3    H280546   3.478   1.081   3.066  0.1626  0.0763 -0.4048
19711TIP3   OH280547   2.144   3.936  12.173 -0.2089 -0.2216 -0.1065
19711TIP3    H180548   2.128   3.912  12.265 -2.3332 -0.9470 -0.5975
19711TIP3    H280549   2.111   3.861  12.124  1.0890  0.0736 -1.4790
19712TIP3   OH280550   0.948   2.657  11.767  0.0193  0.2991  0.2265
19712TIP3    H180551   1.013   2.727  11.766  2.6886 -2.0048 -0.0809
19712TIP3    H280552   0.887   2.681  11.837  1.9801  1.9271  1.4684
19713TIP3   OH280553   0.616   5.062  15.127 -0.3707 -0.0095  0.0874
19713TIP3    H180554   0.596   5.151  15.097 -0.4362 -0.2917 -0.7418
19713TIP3    H280555   0.537   5.011  15.106 -0.5681 -0.1424  1.1084
19714TIP3   OH280556   2.117   0.865  17.142  0.1347 -0.3118  0.7553
19714TIP3    H180557   2.156   0.804  17.204 -0.2545 -0.7507  0.5704
19714TIP3    H280558   2.041   0.819  17.106  1.5699 -0.9208 -1.6858
19715TIP3   OH280559   4.632   5.415  13.935 -1.1196  0.2539 -0.2815
19715TIP3    H180560   4.642   5.450  14.024 -0.4400 -0.6948  0.0391
19715TIP3    H280561   4.559   5.465  13.898 -2.4911 -0.3879  1.3638
19716TIP3   OH280562   5.688   6.538   3.058 -0.1415  0.5453  0.4821
19716TIP3    H180563   5.601   6.532   3.019 -0.7407  1.9399  1.5181
19716TIP3    H280564   5.694   6.628   3.091  1.9211  0.6800 -0.0738
19717TIP3   OH280565   3.903   5.367   0.574  0.1325  0.5505  0.2454
19717TIP3    H180566   3.923   5.443   0.519  0.8997 -0.3646 -0.7706
19717TIP3    H280567   3.987   5.344   0.615 -0.1728  0.4535  0.8376
19718TIP3   OH280568   3.029   0.648  15.901  0.6043 -0.2575 -0.2846
19718TIP3    H180569   3.075   0.717  15.949  0.8166 -0.4903 -0.1520
19718TIP3    H280570   3.037   0.672  15.809 -0.2752  0.4870 -0.1754
19719TIP3   OH280571   2.927   0.240  13.291  0.1414  0.0969 -0.6608
19719TIP3    H180572   2.892   0.329  13.294 -0.6094 -0.1733 -1.0138
19719TIP3    H280573   2.886   0.195  13.365 -0.0230 -0.1390 -0.8920
19720TIP3   OH280574   6.136   2.260  15.087 -0.4674 -0.4537  0.1656
19720TIP3    H180575   6.171   2.196  15.148 -0.4868  0.9594  1.7342
19720TIP3    H280576   6.116   2.210  15.008  1.5153 -1.9770  0.5519
19721TIP3   OH280577   3.796   4.521  13.476 -0.2668 -0.6063  0.5949
19721TIP3    H180578   3.788   4.563  13.390 -1.4394 -2.2473 -0.1358
19721TIP3    H280579   3.890   4.516  13.492 -0.0555  1.9731  0.5916
19722TIP3   OH280580   2.802   6.453   0.853 -0.3040  0.2484 -0.3495
19722TIP3    H180581   2.801   6.547   0.874 -0.7621  0.4734 -1.3145
19722TIP3    H280582   2.890   6.437   0.819  0.2496  0.0062  1.1312
19723TIP3   OH280583   0.348   5.123   0.898 -0.5243  0.1561  0.1752
19723TIP3    H180584   0.384   5.085   0.817  0.1976  1.5097 -0.1640
19723TIP3    H280585   0.317   5.210   0.872 -1.0843  0.2696  1.1735
19724TIP3   OH280586   2.935   2.361   3.693  0.1359  0.4446 -0.4465
19724TIP3    H180587   2.852   2.401   3.668 -0.7185 -1.4915 -0.8702
19724TIP3    H280588   2.964   2.313   3.615  1.4392  0.7399 -0.1720
19725TIP3   OH280589   0.753   1.791   1.782 -0.6583  0.6797  0.0266
19725TIP3    H180590   0.776   1.884   1.787 -1.6936  1.0033 -0.9129
19725TIP3    H280591   0.820   1.754   1.724  0.1920  0.6659  0.9813
19726TIP3   OH280592   2.193   3.243   0.082  0.0167  0.0986 -0.0301
19726TIP3    H180593   2.225   3.332   0.064 -2.3974  1.2407  0.8801
19726TIP3    H280594   2.234   3.189   0.014  3.0668  1.4913  0.5302
19727TIP3   OH280595   0.639   5.436   6.233  0.2765 -0.5701 -0.1644
19727TIP3    H180596   0.674   5.429   6.322 -0.2758  0.3436  0.1454
19727TIP3    H280597   0.544   5.443   6.246  0.3442  3.9239 -0.4522
19728TIP3   OH280598   3.993   1.901  16.175  0.4908 -0.0264 -0.4601
19728TIP3    H180599   3.962   1.871  16.260  1.0187  1.1849  0.1824
19728TIP3    H280600   4.031   1.822  16.134  3.7256  0.0153  2.0276
19729TIP3   OH280601   2.809   4.961  12.404  0.0193  0.0365  0.4911
19729TIP3    H180602   2.872   5.034  12.406 -0.1838  0.2932 -1.2530
19729TIP3    H280603   2.726   5.001  12.430 -0.0563  0.4193 -0.2941
19730TIP3   OH280604   2.042   0.944  15.274  0.2609 -0.4990 -0.4400
19730TIP3    H180605   2.108   0.951  15.205  0.4463  2.0610 -0.0972
19730TIP3    H280606   1.960   0.972  15.232  0.2270  0.3129  0.1345
19731TIP3   OH280607   0.145   1.481  14.913 -0.6723 -0.0090 -0.7155
19731TIP3    H180608   0.178   1.527  14.836 -1.0231  1.0337 -0.2661
19731TIP3    H280609   0.196   1.516  14.986  0.5213 -1.8820 -0.5780
19732TIP3   OH280610   3.554   5.340   4.098  0.0463  0.6135  0.3750
19732TIP3    H180611   3.609   5.280   4.048 -1.8552 -0.7392 -0.2230
19732TIP3    H280612   3.595   5.344   4.184  1.5884  0.4349 -0.3096
19733TIP3   OH280613   2.436   4.876   5.346  0.7614 -0.2755  0.0867
19733TIP3    H180614   2.522   4.879   5.303 -0.1425  1.5912 -1.7472
19733TIP3    H280615   2.373   4.882   5.275 -1.0045 -2.4630  1.3128
19734TIP3   OH280616   5.466   5.315  11.317  0.0937  0.3120 -0.0049
19734TIP3    H180617   5.380   5.273  11.317  0.9259 -1.4480 -0.2856
19734TIP3    H280618   5.458   5.383  11.250 -0.8753 -0.2632 -0.5044
19735TIP3   OH280619   6.145   1.707  11.573  0.6104  0.2850 -0.2500
19735TIP3    H180620   6.081   1.767  11.611  2.5938  1.5809  1.2882
19735TIP3    H280621   6.207   1.691  11.645  2.3860 -0.3338 -1.8558
19736TIP3   OH280622   3.666   6.012  10.944 -0.1053  0.8920  0.9870
19736TIP3    H180623   3.644   6.098  10.908 -1.1035 -0.3588 -1.6779
19736TIP3    H280624   3.594   5.991  11.003  0.1214  1.8678  1.6111
19737TIP3   OH280625   4.505   2.710  15.524  0.6808  0.0073 -0.2715
19737TIP3    H180626   4.480   2.618  15.511 -0.8211  0.2243  0.8061
19737TIP3    H280627   4.554   2.733  15.445 -1.6067 -0.8161 -2.0318
19738TIP3   OH280628   2.335   3.571  14.044 -0.1754 -0.3699  0.0110
19738TIP3    H180629   2.373   3.530  13.967  0.5596  0.3568 -0.0380
19738TIP3    H280630   2.396   3.550  14.115  0.2287  0.6333 -0.0220
19739TIP3   OH280631   4.437   0.938   0.679 -0.8823  0.0364 -0.3728
19739TIP3    H180632   4.443   0.854   0.632  0.8081 -0.3110  0.3819
19739TIP3    H280633   4.369   0.924   0.744  0.8294 -1.5947  1.2088
19740TIP3   OH280634   1.074   3.393   4.366 -0.0881 -0.6591  0.1429
19740TIP3    H180635   1.011   3.387   4.294  1.9986  0.5998 -1.9262
19740TIP3    H280636   1.052   3.474   4.411  0.0186 -0.2469 -0.5421
19741TIP3   OH280637   4.446   5.831   5.102 -0.2563  0.0652 -0.0440
19741TIP3    H180638   4.524   5.827   5.158 -0.1539  0.2770 -0.1696
19741TIP3    H280639   4.480   5.844   5.014 -0.4442  0.4810 -0.0573
19742TIP3   OH280640   4.685   0.509  11.294  0.0357 -0.0577  0.0818
19742TIP3    H180641   4.717   0.423  11.266 -1.1433 -0.3357 -0.4411
19742TIP3    H280642   4.598   0.492  11.330  0.6662  0.6024  2.0483
19743TIP3   OH280643   6.325   1.311  15.879 -0.0742 -0.0516 -0.2661
19743TIP3    H180644   6.326   1.228  15.831 -0.8436  0.7276 -1.6886
19743TIP3    H280645   6.256   1.362  15.837 -0.8924  0.6377  1.7690
19744TIP3   OH280646   6.415   6.110   2.348 -0.1870  0.4492 -0.2929
19744TIP3    H180647   6.362   6.040   2.309  1.3642 -0.9057 -0.0408
19744TIP3    H280648   6.458   6.070   2.423  1.5553  1.3645 -0.7512
19745TIP3   OH280649   1.158   5.147   0.332  0.7986 -0.1053 -0.0644
19745TIP3    H180650   1.094   5.217   0.340  1.7018  0.6794  0.4999
19745TIP3    H280651   1.136   5.086   0.403  2.0353  1.3188  1.6501
19746TIP3   OH280652   4.363   4.278  11.662  0.1088  0.3614  0.0652
19746TIP3    H180653   4.440   4.222  11.652  1.5419  1.8826  1.9737
19746TIP3    H280654   4.342   4.306  11.572  1.7872 -0.0596 -0.4948
19747TIP3   OH280655   2.530   5.369   6.434 -0.0772 -0.2252 -0.0700
19747TIP3    H180656   2.598   5.329   6.380 -0.4663  0.8620 -1.4159
19747TIP3    H280657   2.463   5.302   6.443  0.1963 -0.5653 -0.5563
19748TIP3   OH280658   0.507   6.412  15.821  0.5174 -0.0917 -0.3417
19748TIP3    H180659   0.470   6.407  15.910  0.2562 -0.8480 -0.4887
19748TIP3    H280660   0.453   6.478  15.777  0.8647  0.5355  0.1633
19749TIP3   OH280661   0.979   3.632  16.562  0.0231  0.1568  0.1046
19749TIP3    H180662   0.981   3.539  16.538  1.4364  0.3413 -0.5848
19749TIP3    H280663   0.956   3.632  16.655 -0.3265 -0.8582  0.0383
19750TIP3   OH280664   6.358   5.682   2.073  0.2814  0.2826 -0.2102
19750TIP3    H180665   6.453   5.681   2.081  0.4974  1.1595 -2.0134
19750TIP3    H280666   6.337   5.605   2.020 -0.1197 -0.3362  0.8132
19751TIP3   OH280667   5.332   2.780  12.822  0.5491  0.3906  0.1947
19751TIP3    H180668   5.264   2.749  12.763  1.0641  1.5183 -1.0215
19751TIP3    H280669   5.311   2.739  12.906 -0.0008 -1.5406 -0.8257
19752TIP3   OH280670   6.435   3.515   0.071 -0.0453  0.1084 -0.1777
19752TIP3    H180671   6.441   3.563   0.154 -0.9172  0.4896 -0.3337
19752TIP3    H280672   6.491   3.438   0.085  0.2935  0.4696  0.5504
19753TIP3   OH280673   2.029   3.822   5.852 -0.4882 -0.4056 -0.5791
19753TIP3    H180674   1.943   3.863   5.865 -0.6209 -0.9207  0.2738
19753TIP3    H280675   2.089   3.896   5.838 -0.7965  0.0805  0.5077
19754TIP3   OH280676   3.606   0.259   4.746  0.4683  0.1827 -0.2266
19754TIP3    H180677   3.603   0.184   4.687  3.0723 -1.6774  1.7463
19754TIP3    H280678   3.551   0.234   4.820  1.6291  0.0070  0.6031
19755TIP3   OH280679   6.671   3.495   3.442 -0.0852  0.7212 -0.1272
19755TIP3    H180680   6.732   3.562   3.472  0.1157  0.6942 -0.4701
19755TIP3    H280681   6.592   3.510   3.492  0.1917  0.7835  0.2917
19756TIP3   OH280682   0.011   6.070  14.250 -0.0861 -0.0859 -0.0060
19756TIP3    H180683   0.077   6.130  14.285  1.6306 -2.8906  1.9660
19756TIP3    H280684  -0.055   6.127  14.211  2.1454  2.9746  0.3491
19757TIP3   OH280685   1.948   1.604  15.520  0.4438  0.7212 -0.1064
19757TIP3    H180686   1.900   1.540  15.572 -0.1042  1.8268  0.7937
19757TIP3    H280687   2.040   1.578  15.529  0.1137 -1.2296 -1.6000
19758TIP3   OH280688   5.794   3.795  12.390 -0.2740  0.0916 -0.5382
19758TIP3    H180689   5.786   3.883  12.352  0.2370  0.1234 -0.5892
19758TIP3    H280690   5.871   3.758  12.346 -0.9081 -0.6588 -1.0469
19759TIP3   OH280691   3.243   2.670   3.976 -0.0815 -0.1096 -0.3169
19759TIP3    H180692   3.226   2.624   3.893  0.9678 -0.3500 -0.4084
19759TIP3    H280693   3.298   2.610   4.026  0.6774  0.7327 -0.1209
19760TIP3   OH280694   1.842   3.945  12.246 -0.0306 -0.0498  0.1167
19760TIP3    H180695   1.813   3.889  12.174  0.7368  1.6581 -1.6301
19760TIP3    H280696   1.805   4.031  12.225 -1.7015  0.0718  3.0350
19761TIP3   OH280697   0.595   2.657  13.666 -0.3571  0.3513 -0.2073
19761TIP3    H180698   0.614   2.577  13.616 -1.0267  0.7612 -1.1580
19761TIP3    H280699   0.511   2.688  13.631 -0.9974  0.5130  1.3893
19762TIP3   OH280700   2.617   5.805   1.108 -0.9283 -0.0661  0.1287
19762TIP3    H180701   2.648   5.884   1.064 -1.3737  0.8365  1.3717
19762TIP3    H280702   2.694   5.772   1.155 -1.3211  1.1043  1.6755
19763TIP3   OH280703   0.695   6.329  13.335  0.3267 -0.4529 -0.0473
19763TIP3    H180704   0.659   6.280  13.408 -0.9117  1.2375  0.5449
19763TIP3    H280705   0.627   6.326  13.268 -0.0150  0.9006  0.2162
19764TIP3   OH280706   2.050   2.784   3.540  0.1097 -0.0577  0.5016
19764TIP3    H180707   2.106   2.720   3.583  1.9614  1.3912  0.3534
19764TIP3    H280708   1.991   2.815   3.609 -0.9710 -1.9810  0.5307
19765TIP3   OH280709   0.549   2.727   6.454 -0.2787  0.5637  0.1510
19765TIP3    H180710   0.556   2.632   6.447  0.7538  0.6579 -0.3788
19765TIP3    H280711   0.455   2.745   6.454 -0.4901 -0.4943  0.9765
19766TIP3   OH280712   4.551   5.002   3.774 -0.2138 -0.0053  0.2530
19766TIP3    H180713   4.625   5.028   3.829 -0.3579  1.5475 -0.2400
19766TIP3    H280714   4.551   5.064   3.702 -0.4966 -1.5396 -1.1304
19767TIP3   OH280715   4.069   2.959  15.508 -0.9079  0.3732 -0.4359
19767TIP3    H180716   4.112   2.973  15.592 -0.7942  2.3910 -0.7601
19767TIP3    H280717   3.987   3.007  15.514 -1.2819 -0.1447 -1.1931
19768TIP3   OH280718   5.684   1.309  13.084 -0.0418 -0.3901  0.0796
19768TIP3    H180719   5.594   1.325  13.057 -0.0456  2.2091  1.3072
19768TIP3    H280720   5.678   1.285  13.176  0.5504  1.2859  0.5942
19769TIP3   OH280721   4.907   5.162   2.878 -0.3355  0.4305  0.7469
19769TIP3    H180722   4.824   5.209   2.873 -0.6564 -0.0374  1.4666
19769TIP3    H280723   4.942   5.185   2.964  1.2496  2.1759 -0.2877
19770TIP3   OH280724   0.513   6.025  12.496 -0.1549  0.1345 -0.5456
19770TIP3    H180725   0.561   5.999  12.575 -0.9481  1.4291  0.4032
19770TIP3    H280726   0.522   5.950  12.437 -0.6306 -1.4298  1.2683
19771TIP3   OH280727   3.068   2.215   3.499  0.0278 -0.3526  0.2709
19771TIP3    H180728   3.153   2.235   3.460 -0.6735 -0.7670 -1.5287
19771TIP3    H280729   3.083   2.132   3.545  0.3637 -0.9610 -0.8947
19772TIP3   OH280730   1.846   6.544  16.806  0.0945 -1.1373  0.2899
19772TIP3    H180731   1.758   6.523  16.837  0.0193  0.1541  1.0663
19772TIP3    H280732   1.832   6.600  16.730  0.1833  0.2053  1.2174
19773TIP3   OH280733   6.006   6.140  10.851  0.6097  0.1669 -0.4086
19773TIP3    H180734   6.044   6.188  10.777  2.5290  0.0182  0.4144
19773TIP3    H280735   6.019   6.048  10.829  0.2625  0.1032 -0.3465
19774TIP3   OH280736   5.587   2.080  11.703  0.1267  0.3214  0.5984
19774TIP3    H180737   5.499   2.042  11.696 -1.0512  2.7928  0.6944
19774TIP3    H280738   5.591   2.112  11.793 -0.3776  3.3385 -0.3118
19775TIP3   OH280739   1.088   4.985  16.726 -0.1882  0.3190  0.3410
19775TIP3    H180740   1.131   4.990  16.812  0.2761  0.1314  0.1239
19775TIP3    H280741   1.054   4.895  16.722 -0.4595  0.4170  0.4452
19776TIP3   OH280742   2.246   3.477   6.084 -0.1853 -0.1908  0.6905
19776TIP3    H180743   2.221   3.424   6.159  0.9961 -0.3337  1.0072
19776TIP3    H280744   2.342   3.475   6.084  0.1379  4.1424  2.3200
19777TIP3   OH280745   4.363   6.179   3.710 -0.3581  0.0165  0.0369
19777TIP3    H180746   4.348   6.256   3.655 -0.3380  0.6660  0.9285
19777TIP3    H280747   4.281   6.167   3.757  0.0541  0.2645  0.8366
19778TIP3   OH280748   4.640   5.219   5.361  0.2540 -0.1563  0.2755
19778TIP3    H180749   4.728   5.184   5.367  1.1495  1.9842  0.8442
19778TIP3    H280750   4.624   5.231   5.268  1.7179  1.9229  0.2071
19779TIP3   OH280751   3.025   2.957   5.616 -0.3428 -0.2029  0.5456
19779TIP3    H180752   2.940   2.924   5.587 -0.2321  0.7401 -0.9771
19779TIP3    H280753   3.089   2.900   5.572 -0.1469 -1.3860  2.2709
19780TIP3   OH280754   2.365   0.367  15.252 -0.1621 -0.7715 -0.8582
19780TIP3    H180755   2.310   0.440  15.224 -0.6549 -1.0691 -0.6725
19780TIP3    H280756   2.416   0.402  15.325 -0.9604 -0.8292 -0.2576
19781TIP3   OH280757   0.136   4.733  12.767  0.0449  0.0568  0.2401
19781TIP3    H180758   0.187   4.652  12.764 -0.1407 -0.0574  0.1108
19781TIP3    H280759   0.187   4.792  12.823  0.9897  0.4098 -0.9502
19782TIP3   OH280760   2.740   0.649  11.547  0.1315 -0.1277 -0.2126
19782TIP3    H180761   2.671   0.597  11.506 -0.7541 -0.0452  1.1052
19782TIP3    H280762   2.708   0.739  11.544 -1.7155 -0.4423  3.7137
19783TIP3   OH280763   0.815   0.692  16.424  0.1267 -0.4961 -0.0192
19783TIP3    H180764   0.905   0.714  16.451  0.7034 -0.7533 -1.6624
19783TIP3    H280765   0.803   0.602  16.453 -0.5509  0.2878  2.4501
19784TIP3   OH280766   4.148   0.391  13.538  0.2900 -0.9531 -0.5050
19784TIP3    H180767   4.121   0.372  13.628 -0.2556 -0.0099 -0.4613
19784TIP3    H280768   4.082   0.349  13.484  0.1958 -0.8754 -0.4501
19785TIP3   OH280769   2.090   4.984   0.632 -0.2056  0.5635  0.1565
19785TIP3    H180770   2.133   5.060   0.592 -0.8704  0.8931  0.0615
19785TIP3    H280771   2.002   5.014   0.654 -0.1436  0.1318  1.0821
19786TIP3   OH280772   3.567   1.090  12.183  0.6979 -0.1568  0.1310
19786TIP3    H180773   3.636   1.037  12.222  0.5970 -0.1325  0.3424
19786TIP3    H280774   3.610   1.172  12.159  1.1287 -0.7462 -1.2518
19787TIP3   OH280775   2.037   6.764   5.325  0.7810  0.4402  0.5777
19787TIP3    H180776   2.092   6.837   5.296  2.4540 -1.5332 -1.5304
19787TIP3    H280777   2.074   6.739   5.410  0.2827  1.8716  1.2597
19788TIP3   OH280778   5.012   2.659  16.992 -0.2253 -0.4333 -0.2047
19788TIP3    H180779   5.022   2.738  16.939  0.8152  0.7763  1.7018
19788TIP3    H280780   5.061   2.592  16.945  0.1534  0.4385 -1.0824
19789TIP3   OH280781   2.491   3.691   2.472  0.3953  0.1501 -0.0122
19789TIP3    H180782   2.528   3.775   2.499  0.5890  0.3530 -0.8926
19789TIP3    H280783   2.399   3.697   2.498 -0.0702  1.4145 -1.7312
19790TIP3   OH280784   3.929   2.606   5.715  0.4721 -0.4421 -0.1205
19790TIP3    H180785   3.895   2.552   5.644  1.1511  0.2602 -0.9938
19790TIP3    H280786   3.954   2.688   5.673  1.8932 -0.4069  0.7363
19791TIP3   OH280787   3.053   6.467   4.848  0.4331  0.3753 -0.2963
19791TIP3    H180788   3.000   6.546   4.858 -0.5805 -0.2849 -0.2076
19791TIP3    H280789   3.014   6.423   4.772  1.0150 -0.0146 -0.3723
19792TIP3   OH280790   5.759   4.959   5.885 -0.5909 -0.2172  0.4908
19792TIP3    H180791   5.773   4.864   5.885  0.6654 -0.2798 -4.6920
19792TIP3    H280792   5.839   4.995   5.922 -0.3031 -1.0946  0.7440
19793TIP3   OH280793   2.627   0.894   5.753  0.4790  0.3323 -0.2841
19793TIP3    H180794   2.561   0.921   5.689  0.2853  1.3604  0.3238
19793TIP3    H280795   2.602   0.940   5.833  2.2535  1.2018 -0.1832
19794TIP3   OH280796   0.905   1.469  12.720 -0.5960  0.2432  0.3317
19794TIP3    H180797   0.973   1.425  12.668  0.6967  0.8702  1.4293
19794TIP3    H280798   0.838   1.401  12.733 -0.2159 -0.3819 -0.8015
19795TIP3   OH280799   2.534   2.927  13.239  0.3374 -0.3241  0.1901
19795TIP3    H180800   2.463   2.970  13.191  1.0892  0.9631  0.1830
19795TIP3    H280801   2.614   2.962  13.199  0.9737 -0.4078  1.3606
19796TIP3   OH280802   4.403   6.478   5.987  0.6722  1.1313 -0.6247
19796TIP3    H180803   4.415   6.386   5.962  1.5230  0.1997  2.6965
19796TIP3    H280804   4.308   6.485   6.003  0.7171  0.5626 -0.0620
19797TIP3   OH280805   4.202   4.161  11.226  0.8657  0.0726  0.3011
19797TIP3    H180806   4.127   4.122  11.182 -0.4755  0.4794  2.1136
19797TIP3    H280807   4.242   4.218  11.160 -2.6028  2.7516  0.2217
19798TIP3   OH280808   3.562   2.728  14.746  0.1796  0.6296  0.2890
19798TIP3    H180809   3.474   2.694  14.728  0.8545 -0.4826 -1.0595
19798TIP3    H280810   3.594   2.675  14.818 -0.4463  1.4266  1.1830
19799TIP3   OH280811   6.021   2.957  14.755  0.0065  0.0287 -0.0379
19799TIP3    H180812   5.988   2.932  14.668  0.9586 -0.0145 -0.3907
19799TIP3    H280813   5.955   3.018  14.788 -2.0189 -2.3185  0.5454
19800TIP3   OH280814   3.885   6.055  17.173 -0.6009 -0.6734 -0.6816
19800TIP3    H180815   3.908   5.980  17.227 -0.3237  0.7697  1.2864
19800TIP3    H280816   3.796   6.078  17.199 -0.6413 -0.2494 -1.1675
19801TIP3   OH280817   3.596   3.518  14.710  0.2158 -0.2711  0.3951
19801TIP3    H180818   3.557   3.438  14.675 -2.1827  0.3777  1.3830
19801TIP3    H280819   3.634   3.492  14.794  0.3287 -0.5518  0.2578
19802TIP3   OH280820   3.216   6.684  12.254  0.5876 -0.2296 -0.1802
19802TIP3    H180821   3.124   6.688  12.279  0.5219  1.0793 -0.5544
19802TIP3    H280822   3.215   6.653  12.163  0.6035 -1.2887  0.1623
19803TIP3   OH280823   2.143   3.295  11.249  0.4258  0.4660  0.6292
19803TIP3    H180824   2.069   3.235  11.258  0.3161  0.5293  0.1412
19803TIP3    H280825   2.195   3.280  11.328  0.7378 -0.7282  0.2034
19804TIP3   OH280826   2.126   2.082  13.551  0.0567  0.1318  0.7035
19804TIP3    H180827   2.101   2.027  13.477  0.4283 -1.4839  1.7433
19804TIP3    H280828   2.043   2.108  13.591 -0.0977 -1.1743  1.2609
19805TIP3   OH280829   3.365   5.775   0.959 -0.6091 -0.2251 -0.3622
19805TIP3    H180830   3.285   5.729   0.986 -0.6922 -0.1100 -0.4107
19805TIP3    H280831   3.426   5.705   0.936  0.1293 -0.3956  1.9223
19806TIP3   OH280832   1.578   3.161   3.321  0.7309  0.6303 -0.0950
19806TIP3    H180833   1.629   3.084   3.296 -2.0303 -0.5618 -2.7284
19806TIP3    H280834   1.561   3.150   3.414  1.8031 -1.0700 -0.0556
19807TIP3   OH280835   5.936   2.105  15.296  0.3070 -0.1356  0.4504
19807TIP3    H180836   5.981   2.182  15.330  0.7405  1.2451 -2.8352
19807TIP3    H280837   5.844   2.132  15.290  0.0216 -0.7955  1.5012
19808TIP3   OH280838   3.601   2.044   6.039 -0.0853  0.7250 -0.1597
19808TIP3    H180839   3.543   2.028   6.115  0.4129 -0.7186 -0.0432
19808TIP3    H280840   3.689   2.032   6.074  0.2579  2.0966 -0.5271
19809TIP3   OH280841   2.150   3.352   4.851  0.4494  0.9502 -0.0240
19809TIP3    H180842   2.150   3.274   4.795  0.3806  1.0715 -0.1937
19809TIP3    H280843   2.084   3.409   4.812  1.9419  1.9748 -1.1188
19810TIP3   OH280844   3.359   0.818  12.725  0.1712 -0.1189  0.1299
19810TIP3    H180845   3.411   0.753  12.680 -0.4083 -0.8231  0.4567
19810TIP3    H280846   3.383   0.809  12.817 -0.4703 -0.4127  0.2775
19811TIP3   OH280847   6.193   2.629  14.485  0.1777 -0.7104 -0.1092
19811TIP3    H180848   6.207   2.552  14.539 -0.5660 -0.9296 -0.2089
19811TIP3    H280849   6.136   2.598  14.414 -0.7540  0.0893  0.2695
19812TIP3   OH280850   5.261   5.798  14.478 -0.0153 -0.2979 -0.3489
19812TIP3    H180851   5.253   5.827  14.388  0.5365 -0.8382 -0.5855
19812TIP3    H280852   5.176   5.761  14.500 -0.3374  0.3789 -0.4428
19813TIP3   OH280853   0.563   1.871  16.737 -0.4777  0.5387  0.5052
19813TIP3    H180854   0.523   1.857  16.823  0.3050 -1.4787  0.5879
19813TIP3    H280855   0.596   1.785  16.711  0.1266  1.2920 -1.4183
19814TIP3   OH280856   5.198   4.959  17.191 -0.7626 -0.7600  0.0340
19814TIP3    H180857   5.140   5.005  17.131 -2.0659  0.1216  1.8799
19814TIP3    H280858   5.139   4.924  17.259  0.7332 -0.9286  1.2932
19815TIP3   OH280859   6.727   1.673  15.130 -0.0154 -0.7709  0.6295
19815TIP3    H180860   6.805   1.654  15.182 -1.6274 -0.8365  3.1968
19815TIP3    H280861   6.662   1.610  15.160 -0.8795 -1.2952 -2.0693
19816TIP3   OH280862   4.606   5.224   2.935 -0.4042  0.3331 -0.2151
19816TIP3    H180863   4.615   5.286   3.007 -0.7663 -1.6321  1.5934
19816TIP3    H280864   4.548   5.156   2.968  0.6279 -1.4316 -1.8055
19817TIP3   OH280865   3.756   4.213   0.256  0.3854 -0.0282 -0.4223
19817TIP3    H180866   3.662   4.212   0.271  0.1179  0.9320 -1.8912
19817TIP3    H280867   3.786   4.128   0.289 -0.7556  0.1844  1.3313
19818TIP3   OH280868   0.650   3.693  14.459  0.4553 -0.5053 -0.9393
19818TIP3    H180869   0.720   3.635  14.490  2.5197  1.3578 -1.7989
19818TIP3    H280870   0.662   3.696  14.364  0.1813  1.0230 -0.9435
19819TIP3   OH280871   2.936   3.520   0.902 -0.2356  0.6118 -0.4832
19819TIP3    H180872   2.945   3.450   0.838 -1.2323  0.1616 -0.1649
19819TIP3    H280873   2.894   3.591   0.854  1.1232  1.1562 -0.9047
19820TIP3   OH280874   3.062   2.298  15.409 -0.2253  0.5268  0.4278
19820TIP3    H180875   3.078   2.256  15.493  0.7376  1.2922  0.6562
19820TIP3    H280876   3.036   2.388  15.431  1.1879  1.0912 -0.0848
19821TIP3   OH280877   0.197   4.910   0.800  0.2284  0.5484 -0.3366
19821TIP3    H180878   0.109   4.883   0.776  0.6705  0.4755 -2.0813
19821TIP3    H280879   0.191   5.005   0.809  0.2638  0.7754 -2.1656
19822TIP3   OH280880   0.969   3.735  11.714  0.0105 -0.0326  0.3322
19822TIP3    H180881   0.933   3.647  11.729 -0.5371  0.2525  0.7189
19822TIP3    H280882   0.914   3.793  11.766 -1.2842  0.8865 -1.9142
19823TIP3   OH280883   4.654   4.110  16.650  0.1731  0.2053  0.1322
19823TIP3    H180884   4.620   4.197  16.670 -0.2108  0.3638 -1.1002
19823TIP3    H280885   4.729   4.099  16.709  0.1366  1.3099  0.4003
19824TIP3   OH280886   1.661   4.118   2.429  0.2635  0.2123  0.1509
19824TIP3    H180887   1.599   4.161   2.369 -2.9882 -0.5069  2.6901
19824TIP3    H280888   1.671   4.030   2.394  1.8300  1.0230 -1.5701
19825TIP3   OH280889   4.858   4.528   0.491  0.1145  0.3722 -0.5527
19825TIP3    H180890   4.817   4.548   0.575 -0.6111 -0.4172 -0.7111
19825TIP3    H280891   4.862   4.613   0.446 -2.9950  0.2725 -1.2482
19826TIP3   OH280892   1.490   3.627  16.347 -0.7282  0.0975  0.3731
19826TIP3    H180893   1.500   3.702  16.405  1.6980  0.6087 -0.5987
19826TIP3    H280894   1.559   3.566  16.373 -0.5019 -0.2927 -1.0405
19827TIP3   OH280895   5.631   3.388   5.766 -0.6214  0.3878 -0.0243
19827TIP3    H180896   5.600   3.461   5.713 -1.7123 -1.1850 -1.6505
19827TIP3    H280897   5.617   3.417   5.856 -2.2510  1.6783 -0.6326
19828TIP3   OH280898   1.934   2.255   0.724  0.1198 -0.0550 -0.4071
19828TIP3    H180899   1.898   2.339   0.751  0.7378 -0.1212  0.7064
19828TIP3    H280900   1.884   2.230   0.647 -0.3079  1.1628 -0.5316
19829TIP3   OH280901   1.014   5.666   0.015 -0.4883 -0.1720  0.6840
19829TIP3    H180902   1.070   5.710  -0.048 -0.6352 -0.1271  0.5851
19829TIP3    H280903   0.972   5.737   0.064  0.1492 -0.2047  1.3035
19830TIP3   OH280904   2.127   3.570   3.341 -0.2952 -0.1458 -0.2689
19830TIP3    H180905   2.068   3.500   3.312 -0.3100 -0.8358  1.3073
19830TIP3    H280906   2.152   3.615   3.261 -0.9612 -1.4360 -1.2432
19831TIP3   OH280907   0.086   3.164  16.519 -0.2522 -0.0756  0.4004
19831TIP3    H180908   0.010   3.179  16.575  0.6357 -1.7426  2.1690
19831TIP3    H280909   0.160   3.157  16.579  1.0620 -0.1922 -1.1366
19832TIP3   OH280910   0.868   3.738  14.081  0.2512  0.2774 -0.2326
19832TIP3    H180911   0.945   3.712  14.130 -0.1356 -1.5580 -0.5480
19832TIP3    H280912   0.798   3.681  14.112 -0.8834  1.5883 -0.2885
19833TIP3   OH280913   4.674   0.066   3.102  0.5498 -0.3199  0.3463
19833TIP3    H180914   4.765   0.094   3.102  0.5915 -0.3882 -1.2455
19833TIP3    H280915   4.676  -0.021   3.063 -0.4416  0.6479 -2.0027
19834TIP3   OH280916   1.543   0.163  13.309 -0.2869 -0.7678 -0.0601
19834TIP3    H180917   1.629   0.189  13.278 -0.3752 -2.4181 -1.8906
19834TIP3    H280918   1.484   0.185  13.236 -1.6364  1.1446  1.4715
19835TIP3   OH280919   5.541   0.751   3.574 -0.6502  0.2047  0.4060
19835TIP3    H180920   5.573   0.705   3.651  1.1579  1.1667  0.2991
19835TIP3    H280921   5.559   0.843   3.592 -0.1651  0.4432 -1.1365
19836TIP3   OH280922   3.062   2.649  12.442  0.3158  0.1733 -0.1560
19836TIP3    H180923   2.995   2.708  12.476 -1.1286 -0.9306 -0.9496
19836TIP3    H280924   3.075   2.585  12.512 -0.3909 -0.3195 -0.4618
19837TIP3   OH280925   1.749   3.703   1.083  0.0687 -0.6259  0.0371
19837TIP3    H180926   1.739   3.625   1.138  1.5807 -0.7183  0.2233
19837TIP3    H280927   1.820   3.681   1.023 -0.9887 -0.2100 -1.4338
19838TIP3   OH280928   3.819   0.407  16.830 -0.5701 -0.6721  0.2487
19838TIP3    H180929   3.823   0.394  16.736 -1.2963  0.4363  0.0444
19838TIP3    H280930   3.860   0.493  16.845 -0.3516 -0.8887  0.9568
19839TIP3   OH280931   1.029   5.246   3.116 -0.3662 -0.4214  0.1177
19839TIP3    H180932   0.982   5.327   3.138 -0.2891  0.0120 -1.2295
19839TIP3    H280933   1.116   5.257   3.156 -0.7542 -0.3870  0.9787
19840TIP3   OH280934   5.490   6.426   1.311  0.1157 -0.0415  0.8209
19840TIP3    H180935   5.441   6.442   1.230  2.1233 -0.0515 -0.4803
19840TIP3    H280936   5.513   6.333   1.306 -0.8008 -0.3666  2.0740
19841TIP3   OH280937   4.899   3.293  17.041  0.4241 -0.1069 -0.7621
19841TIP3    H180938   4.830   3.290  16.974  0.2779 -0.1379 -0.6090
19841TIP3    H280939   4.860   3.253  17.118  0.3648  0.5481 -0.4474
19842TIP3   OH280940   0.830   4.017   4.294  0.4827 -0.3131  0.4381
19842TIP3    H180941   0.893   3.958   4.252 -0.0821 -0.0446 -0.8612
19842TIP3    H280942   0.767   3.959   4.336 -0.2126 -0.6845 -1.0464
19843TIP3   OH280943   1.901   4.198  11.497 -0.1799  0.3865 -0.7348
19843TIP3    H180944   1.971   4.134  11.510  0.7079  0.9545 -2.4140
19843TIP3    H280945   1.820   4.150  11.518  0.6506 -0.3641  0.9498
19844TIP3   OH280946   0.662   1.459  11.288  0.0084 -0.1964  0.4597
19844TIP3    H180947   0.729   1.518  11.253  1.4492 -1.6100  0.7165
19844TIP3    H280948   0.614   1.428  11.211  0.4573 -0.1168  0.1470
19845TIP3   OH280949   6.247   0.529   4.972 -0.8398 -0.1842  0.4713
19845TIP3    H180950   6.194   0.561   4.899  0.3928  1.7917  0.3436
19845TIP3    H280951   6.312   0.599   4.987 -0.3151 -1.0433  2.6923
19846TIP3   OH280952   4.898   3.822  15.960  0.1768  0.1622 -0.3157
19846TIP3    H180953   4.912   3.756  15.892 -2.3349 -0.5950 -0.1877
19846TIP3    H280954   4.816   3.865  15.935 -0.3446  0.4531  1.7787
19847TIP3   OH280955   5.691   5.124  11.067 -0.1602 -0.3216  0.5863
19847TIP3    H180956   5.727   5.109  11.154  2.4397  0.8633 -0.1561
19847TIP3    H280957   5.690   5.220  11.058 -2.4933 -0.3434  0.0655
19848TIP3   OH280958   2.698   3.779  10.415  0.3145 -0.3397  0.5008
19848TIP3    H180959   2.763   3.728  10.463 -0.4304 -1.0758  0.7651
19848TIP3    H280960   2.622   3.782  10.474 -0.3753 -0.6964 -0.3403
19849TIP3   OH280961   5.817   5.406   5.281  0.1881 -0.0742 -0.4280
19849TIP3    H180962   5.771   5.397   5.364  0.0859 -0.8703 -0.5546
19849TIP3    H280963   5.904   5.436   5.304 -0.0263  0.2815 -0.0834
19850TIP3   OH280964   3.087   6.279  14.718  0.2408  0.5166 -0.5392
19850TIP3    H180965   3.094   6.184  14.708  1.3512  0.4169  0.7825
19850TIP3    H280966   3.157   6.302  14.779 -0.5377  2.0757 -0.1607
19851TIP3   OH280967   3.056   2.514  12.197  0.3897  0.2258 -0.5021
19851TIP3    H180968   3.036   2.552  12.282  0.7950 -0.3402 -0.1493
19851TIP3    H280969   3.008   2.569  12.134 -1.3862 -0.4378  0.2174
19852TIP3   OH280970   1.839   5.262   2.695  0.0796 -0.1146 -0.0120
19852TIP3    H180971   1.820   5.350   2.664  0.0955 -0.6743 -1.6854
19852TIP3    H280972   1.935   5.255   2.692  0.1636  0.1564  1.2027
19853TIP3   OH280973   1.758   2.540   2.896 -0.1095 -1.0887 -0.2940
19853TIP3    H180974   1.853   2.551   2.902 -0.1933  0.1822 -1.0136
19853TIP3    H280975   1.745   2.497   2.811 -0.2687  0.3531 -1.0252
19854TIP3   OH280976   3.572   1.518  14.465 -0.0517  0.4413  0.1659
19854TIP3    H180977   3.548   1.448  14.526  0.6938  1.1496  1.3073
19854TIP3    H280978   3.588   1.472  14.382 -0.8451 -0.5726  0.5430
19855TIP3   OH280979   3.602   3.181  14.713 -0.4318 -0.6197 -0.1213
19855TIP3    H180980   3.686   3.166  14.756 -0.6776 -1.3886  0.1017
19855TIP3    H280981   3.598   3.115  14.644 -0.6007 -0.2086 -0.5161
19856TIP3   OH280982   5.178   3.423  15.451 -0.1612 -0.6774 -0.1005
19856TIP3    H180983   5.164   3.449  15.542 -0.7674 -1.9191  0.1860
19856TIP3    H280984   5.262   3.463  15.427 -1.1823  1.7884  0.1593
19857TIP3   OH280985   3.601   0.168  15.755  0.6069 -0.4537 -0.4614
19857TIP3    H180986   3.615   0.173  15.660 -1.5504 -1.3693 -0.8714
19857TIP3    H280987   3.648   0.089  15.782  0.6304 -0.5842 -0.8812
19858TIP3   OH280988   2.022   1.990   0.840 -0.0938 -0.2115 -0.2153
19858TIP3    H180989   2.056   2.056   0.779 -1.8090  1.1774  0.2630
19858TIP3    H280990   1.950   2.033   0.885 -0.7064 -2.1470  0.7781
19859TIP3   OH280991   6.161   2.660   2.662  0.3845 -0.2491 -0.1206
19859TIP3    H180992   6.152   2.754   2.671  2.9033 -0.0727  1.5027
19859TIP3    H280993   6.240   2.648   2.608 -1.1521 -1.4937 -2.2702
19860TIP3   OH280994   2.630   0.800   4.965  0.3183 -0.1786  0.2614
19860TIP3    H180995   2.557   0.750   4.930  0.2941 -0.0681  0.1498
19860TIP3    H280996   2.692   0.806   4.892  1.1199 -1.5502  0.7956
19861TIP3   OH280997   4.166   0.063  16.933  0.1213 -0.2357  0.0332
19861TIP3    H180998   4.096   0.051  16.997  0.3938  1.1741  0.6271
19861TIP3    H280999   4.158   0.154  16.905  1.6712 -0.0579  0.0808
19862TIP3   OH281000   2.172   3.264  16.399  0.7542 -0.4547  0.3959
19862TIP3    H181001   2.163   3.344  16.450 -0.0304 -0.2495 -0.0460
19862TIP3    H281002   2.092   3.215  16.418  0.1968 -0.1463 -1.0109
19863TIP3   OH281003   2.910   1.088   2.260  0.2929  0.3010  0.2687
19863TIP3    H181004   2.886   1.139   2.183  1.6749 -1.4410 -1.4071
19863TIP3    H281005   2.860   1.007   2.252  1.9157 -0.7210  0.0940
19864TIP3   OH281006   4.010   0.865  14.001  0.0221  0.0788  0.3979
19864TIP3    H181007   3.943   0.891  14.064  1.1326  2.8830  0.5804
19864TIP3    H281008   3.963   0.859  13.918 -0.6277  1.2500  0.6552
19865TIP3   OH281009   3.313   5.050   3.561 -0.1445 -0.6821  0.0223
19865TIP3    H181010   3.361   4.968   3.567  2.0162  0.4074 -1.0403
19865TIP3    H281011   3.275   5.049   3.473 -0.4852 -0.7324  0.1697
19866TIP3   OH281012   3.757   0.088   6.513 -0.1763  0.0740 -0.2465
19866TIP3    H181013   3.789   0.176   6.535  1.4391  0.1579 -2.5283
19866TIP3    H281014   3.757   0.086   6.418 -3.1168 -1.4539 -0.3296
19867TIP3   OH281015   4.282   5.111   5.800  0.1113 -0.2099 -0.3812
19867TIP3    H181016   4.249   5.172   5.866 -0.4527 -0.7615 -0.1446
19867TIP3    H281017   4.336   5.165   5.742  0.9070  0.2291  0.7251
19868TIP3   OH281018   3.527   2.258   5.860 -0.3682  0.0297  0.2446
19868TIP3    H181019   3.562   2.170   5.874 -1.4129 -0.4669 -0.1219
19868TIP3    H281020   3.487   2.253   5.773  2.8337  1.9704 -1.5337
19869TIP3   OH281021   5.179   4.060   5.817  0.5693  0.1938  0.0787
19869TIP3    H181022   5.143   4.059   5.905 -0.4758  1.2973 -0.3129
19869TIP3    H281023   5.229   3.978   5.811  0.3825 -0.0578  1.5630
19870TIP3   OH281024   2.476   1.562  14.628 -0.3580 -0.2376 -0.6879
19870TIP3    H181025   2.496   1.632  14.567 -0.2743 -0.7788 -1.2849
19870TIP3    H281026   2.549   1.562  14.690 -0.7240  0.6814 -0.2404
19871TIP3   OH281027   2.440   3.387  14.465  0.0661  0.2240  0.0787
19871TIP3    H181028   2.448   3.304  14.512 -3.9864  0.0812  0.8702
19871TIP3    H281029   2.452   3.454  14.532  1.6941  0.3027 -0.2483
19872TIP3   OH281030   3.062   3.982   0.537 -0.5219 -0.0212  0.0618
19872TIP3    H181031   3.109   3.972   0.619  0.7873 -0.0400 -0.6604
19872TIP3    H281032   3.014   4.064   0.546  2.5511  1.9880 -0.4843
19873TIP3   OH281033   0.798   1.913   4.906 -0.3130 -0.1651 -0.1690
19873TIP3    H181034   0.894   1.919   4.901 -0.1434 -2.0332  0.1125
19873TIP3    H281035   0.781   1.889   4.997 -1.0707  0.2258 -0.1995
19874TIP3   OH281036   0.464   6.663   4.858 -0.1317  0.0720  0.4128
19874TIP3    H181037   0.558   6.671   4.875 -0.0796 -0.1438  0.2335
19874TIP3    H281038   0.422   6.711   4.930  0.1391  1.5422 -0.3868
19875TIP3   OH281039   5.083   0.125  11.077  0.5876 -0.1121  0.1774
19875TIP3    H181040   5.174   0.106  11.052  0.5433 -0.7608  0.4799
19875TIP3    H281041   5.083   0.116  11.172  0.2152 -0.0711  0.1803
19876TIP3   OH281042   4.359   3.541   1.617  0.2206 -0.1021 -0.1600
19876TIP3    H181043   4.274   3.498   1.614 -0.2998  0.4834  2.8207
19876TIP3    H281044   4.419   3.472   1.645  0.4420 -0.1746 -0.8144
19877TIP3   OH281045   2.486   5.108   3.440 -0.0238 -0.1982  0.1089
19877TIP3    H181046   2.421   5.080   3.376 -1.2863  2.0347  0.3087
19877TIP3    H281047   2.532   5.027   3.465 -1.4822 -1.5633 -1.3903
19878TIP3   OH281048   1.481   1.342  12.975  0.1524  0.2584  0.5933
19878TIP3    H181049   1.541   1.306  13.040 -0.8817 -1.2891  0.7439
19878TIP3    H281050   1.430   1.407  13.022  0.6348  0.4445  0.8624
19879TIP3   OH281051   2.285   4.093   3.543  0.4440  0.2672  0.4015
19879TIP3    H181052   2.277   4.029   3.614 -1.2730 -0.2200 -0.1899
19879TIP3    H281053   2.378   4.117   3.543  1.2418 -2.5131  0.3693
19880TIP3   OH281054   1.920   4.895   1.457  0.1893 -0.2238  0.4714
19880TIP3    H181055   1.952   4.973   1.502  0.5397 -0.5631  0.8160
19880TIP3    H281056   1.981   4.826   1.482 -0.0329 -0.5787  0.0524
19881TIP3   OH281057   3.552   0.258   0.887 -0.7843 -0.2788  0.0601
19881TIP3    H181058   3.503   0.341   0.885  0.4769  0.5677  1.4358
19881TIP3    H281059   3.615   0.270   0.958 -0.8167 -2.5926  0.5655
19882TIP3   OH281060   1.278   5.107   4.174 -0.2213 -0.8457 -0.2302
19882TIP3    H181061   1.324   5.168   4.116  0.5955 -2.8402 -1.8076
19882TIP3    H281062   1.326   5.024   4.165 -1.6757 -1.9173  1.2964
19883TIP3   OH281063   2.419   0.761  11.579  0.1423  0.6550 -0.2179
19883TIP3    H181064   2.377   0.800  11.655  1.7378 -0.1028  1.0986
19883TIP3    H281065   2.374   0.678  11.567  0.6108  0.2777  0.5916
19884TIP3   OH281066   3.758   1.560  15.895 -0.0895  0.0476 -0.1079
19884TIP3    H181067   3.731   1.535  15.983  0.6857  0.4810  0.2623
19884TIP3    H281068   3.811   1.639  15.907  2.1913 -1.2916 -0.6660
19885TIP3   OH281069   5.375   5.703  17.238  0.1300  0.5565 -0.1052
19885TIP3    H181070   5.426   5.774  17.277 -1.7804  2.0307 -0.1177
19885TIP3    H281071   5.430   5.671  17.166  0.3746  3.2698 -1.2571
19886TIP3   OH281072   5.668   4.254   5.274 -0.4225  0.8601  0.1585
19886TIP3    H181073   5.735   4.208   5.324 -0.0677  2.1647  0.9290
19886TIP3    H281074   5.687   4.232   5.182  0.3994  0.3658  0.4408
19887TIP3   OH281075   1.953   6.172   3.379 -0.1620 -0.1632  0.2689
19887TIP3    H181076   1.931   6.081   3.364  1.7536 -1.1837  2.8412
19887TIP3    H281077   2.040   6.183   3.341  0.1676  0.1984  1.0976
19888TIP3   OH281078   5.079   2.891  12.927  0.1622 -0.0984  0.3104
19888TIP3    H181079   5.076   2.848  12.841 -0.4873  0.1252  0.2127
19888TIP3    H281080   5.154   2.950  12.922 -0.8274  1.1409 -0.7101
19889TIP3   OH281081   0.837   1.909  11.131  0.0923 -0.4941  0.0684
19889TIP3    H181082   0.827   1.823  11.090  0.0080  0.6332 -2.4439
19889TIP3    H281083   0.753   1.953  11.117  0.2461  0.1434  1.0269
19890TIP3   OH281084   2.923   2.149  13.763  0.0761  0.1138  0.2689
19890TIP3    H181085   2.965   2.204  13.697  2.0639  0.6775  1.8957
19890TIP3    H281086   2.933   2.060  13.730  1.5784  0.3369  0.0262
19891TIP3   OH281087   0.832   6.565  12.672 -0.0268 -0.3789 -0.1458
19891TIP3    H181088   0.759   6.565  12.733  1.8991 -2.4844  2.3704
19891TIP3    H281089   0.899   6.619  12.715  0.5775  0.0501 -1.5495
19892TIP3   OH281090   3.075   3.840  12.660  0.5508  0.2048  0.1148
19892TIP3    H181091   3.167   3.831  12.687  0.4918 -0.7954  0.0233
19892TIP3    H281092   3.063   3.772  12.594 -0.2974  0.2347  0.2340
19893TIP3   OH281093   5.917   5.050   4.352 -0.3825  0.2492 -0.5346
19893TIP3    H181094   5.863   5.046   4.273  0.7456 -0.3829 -1.3096
19893TIP3    H281095   6.003   5.079   4.321 -0.0100  0.3253  0.5172
19894TIP3   OH281096   4.337   1.563  10.947 -0.2834  0.1095 -0.0655
19894TIP3    H181097   4.247   1.595  10.956 -0.3073  0.0713 -0.1621
19894TIP3    H281098   4.373   1.613  10.873 -0.8035 -1.1476 -1.2100
19895TIP3   OH281099   0.585   3.798  15.317 -0.6568  0.8876 -0.0960
19895TIP3    H181100   0.506   3.773  15.366 -1.0096  2.2537  0.0790
19895TIP3    H281101   0.552   3.852  15.245 -0.0886 -0.5559 -1.5312
19896TIP3   OH281102   0.265   6.023  13.980 -0.1125  0.4478  0.0084
19896TIP3    H181103   0.171   6.027  13.964 -0.0711  1.5098 -0.0853
19896TIP3    H281104   0.283   6.097  14.038  0.5908 -0.0527  0.4481
19897TIP3   OH281105   2.291   3.900   4.488  1.1042  0.3628  0.2986
19897TIP3    H181106   2.385   3.892   4.501  1.3849  1.7085 -0.7385
19897TIP3    H281107   2.281   3.955   4.411 -0.5387 -0.1743  0.0693
19898TIP3   OH281108   1.246   2.309   5.173 -0.0180  0.7896 -0.3895
19898TIP3    H181109   1.230   2.229   5.224 -0.4887  1.1761  0.0837
19898TIP3    H281110   1.179   2.370   5.203  0.5390  1.4768 -0.5134
19899TIP3   OH281111   0.655   4.381   1.092  0.4627 -0.4476 -0.2594
19899TIP3    H181112   0.617   4.454   1.043  0.5653 -1.0494 -1.2752
19899TIP3    H281113   0.595   4.308   1.077 -0.7238 -0.1321  2.3774
19900TIP3   OH281114   3.833   0.064  15.964 -0.3003 -0.5052 -0.7522
19900TIP3    H181115   3.758   0.029  15.916 -0.6571  0.3308 -0.8183
19900TIP3    H281116   3.877   0.122  15.901 -0.1764 -0.2088 -0.3979
19901TIP3   OH281117   1.579   6.202   2.495  0.5738  0.2524 -0.2731
19901TIP3    H181118   1.543   6.201   2.407 -0.5352  0.9568  0.1422
19901TIP3    H281119   1.660   6.153   2.489 -0.4380 -1.3832 -1.2699
19902TIP3   OH281120   4.931   0.079   4.038  0.0225  0.1222  0.0348
19902TIP3    H181121   4.836   0.096   4.043 -0.4710 -2.3499  0.3125
19902TIP3    H281122   4.968   0.132   4.109 -1.1384  1.0650 -0.0147
19903TIP3   OH281123   2.783   5.184  11.386  0.3474  0.0751  0.4312
19903TIP3    H181124   2.812   5.270  11.353 -0.8026  0.2294 -0.2312
19903TIP3    H281125   2.720   5.154  11.321 -0.5961 -0.4707  1.5682
19904TIP3   OH281126   6.623   5.257  10.817 -0.0493  0.2600 -0.3570
19904TIP3    H181127   6.666   5.324  10.764  0.8445 -0.4230 -0.5398
19904TIP3    H281128   6.549   5.227  10.763 -0.0044  0.5748 -0.5949
19905TIP3   OH281129   3.056   0.787   6.407  0.6119 -0.4423  0.4960
19905TIP3    H181130   3.139   0.823   6.377  0.1297  0.0316 -0.3157
19905TIP3    H281131   2.990   0.849   6.375 -0.1118 -1.2221  0.4380
19906TIP3   OH281132   3.218   1.971  15.976  0.7454 -0.2248  0.0309
19906TIP3    H181133   3.154   1.985  16.045 -0.5137  1.7680 -1.4339
19906TIP3    H281134   3.182   1.898  15.925 -0.3908  0.8325 -0.7386
19907TIP3   OH281135   0.898   5.499  15.053 -0.6413  0.2014  0.2064
19907TIP3    H181136   0.931   5.449  15.128 -2.3535 -0.7616  0.3803
19907TIP3    H281137   0.971   5.500  14.991 -0.1925 -1.6663  0.6289
19908TIP3   OH281138   4.573   3.938  12.041  0.0605 -0.2265  0.1814
19908TIP3    H181139   4.569   4.033  12.032 -3.0030 -0.4101 -1.4043
19908TIP3    H281140   4.486   3.913  12.070  0.1995 -2.7097 -1.3194
19909TIP3   OH281141   5.479   0.144  14.412  0.4435 -0.5296  0.2896
19909TIP3    H181142   5.511   0.098  14.335 -0.4157 -1.2832  0.3711
19909TIP3    H281143   5.456   0.231  14.380  1.4342 -0.3579 -0.0001
19910TIP3   OH281144   4.231   0.222   3.069 -0.1138 -0.5874 -0.7625
19910TIP3    H181145   4.279   0.148   3.033  0.9678  0.2682 -1.1383
19910TIP3    H281146   4.297   0.273   3.116 -0.5543  0.8403 -1.6291
19911TIP3   OH281147   5.130   0.662  16.116  0.2432 -0.3273 -0.4392
19911TIP3    H181148   5.141   0.600  16.189  1.5528  0.4741  0.0896
19911TIP3    H281149   5.046   0.705  16.134  0.8925  0.3998  1.0578
19912TIP3   OH281150   1.753   5.655   5.946  0.0998  0.3925  0.1295
19912TIP3    H181151   1.799   5.738   5.958  1.3347 -0.3440  0.6091
19912TIP3    H281152   1.668   5.680   5.909  0.8850  1.7890 -0.8176
19913TIP3   OH281153   4.096   4.825   4.482 -0.0321  0.4720  0.1085
19913TIP3    H181154   4.031   4.756   4.488  0.4023  0.1176  0.8529
19913TIP3    H281155   4.178   4.779   4.463  0.3984  0.6990  1.3619
19914TIP3   OH281156   0.017   4.825   0.285  0.2938  0.4212  1.0216
19914TIP3    H181157  -0.076   4.844   0.295  0.3517  0.2196  2.0426
19914TIP3    H281158   0.025   4.732   0.305  0.5994  0.2456  0.1163
19915TIP3   OH281159   3.465   1.636   0.257  0.3623 -0.0806  0.5989
19915TIP3    H181160   3.532   1.674   0.313  0.6549  1.2201 -0.5727
19915TIP3    H281161   3.513   1.601   0.181 -0.3034  1.8062 -0.7654
19916TIP3   OH281162   6.530   1.023   1.747  0.6633  0.0139  0.0190
19916TIP3    H181163   6.564   1.018   1.836 -1.9799  2.2581  1.3296
19916TIP3    H281164   6.451   0.968   1.748 -0.3313  1.3746 -0.3626
19917TIP3   OH281165   3.365   2.112  11.511  0.5553 -0.1464 -0.6494
19917TIP3    H181166   3.345   2.104  11.418 -1.8480 -1.4456 -0.1121
19917TIP3    H281167   3.287   2.153  11.549  0.8912 -0.9195  0.9714
19918TIP3   OH281168   6.596   5.265  10.492 -0.1071  0.5633  0.2596
19918TIP3    H181169   6.606   5.352  10.530  1.9840 -0.0527  1.2554
19918TIP3    H281170   6.513   5.232  10.529  0.7340  0.8533  2.5845
19919TIP3   OH281171   4.240   6.521  15.432  0.1126 -0.5024  0.7371
19919TIP3    H181172   4.335   6.515  15.421  0.1268 -0.1200  0.6424
19919TIP3    H281173   4.204   6.457  15.370  0.3489 -1.6361  1.7381
19920TIP3   OH281174   0.629   5.405   4.996  0.0576  0.3329 -0.8383
19920TIP3    H181175   0.582   5.357   4.927  0.1079  0.5174 -1.0027
19920TIP3    H281176   0.677   5.474   4.949 -1.2449  1.5397 -0.4615
19921TIP3   OH281177   6.010   5.750  14.269  0.0021 -0.0529  0.1315
19921TIP3    H181178   5.958   5.671  14.286 -0.6656 -0.0405 -1.6047
19921TIP3    H281179   6.099   5.726  14.296 -0.0429 -1.6766 -1.0087
19922TIP3   OH281180   1.367   6.445   0.731 -0.6505  0.0858  0.1923
19922TIP3    H181181   1.351   6.536   0.708 -1.9543 -0.2679 -0.3681
19922TIP3    H281182   1.415   6.449   0.814  0.1858  1.2857 -0.3100
19923TIP3   OH281183   3.293   3.190  13.172 -0.3680 -0.3977 -0.6623
19923TIP3    H181184   3.286   3.281  13.145 -2.4978 -0.4132 -0.3123
19923TIP3    H281185   3.245   3.141  13.105 -2.2815 -0.8503  0.9599
19924TIP3   OH281186   6.503   1.137  12.282  0.5449  0.2370 -0.1837
19924TIP3    H181187   6.589   1.150  12.321  1.3009 -2.2102 -0.8508
19924TIP3    H281188   6.457   1.081  12.344 -0.7873  1.8735  0.3814
19925TIP3   OH281189   3.023   3.646  11.511  0.0029  1.2533  0.0482
19925TIP3    H181190   3.077   3.698  11.570  1.5754  1.7775 -1.7389
19925TIP3    H281191   3.059   3.664  11.424  1.2840 -3.4690 -0.6597
19926TIP3   OH281192   3.455   1.597   3.615 -0.0132 -0.3252  0.2462
19926TIP3    H181193   3.521   1.573   3.550  0.0341 -0.1980  0.2469
19926TIP3    H281194   3.438   1.516   3.663 -0.7082 -0.6371 -0.5091
19927TIP3   OH281195   2.143   6.044  16.914 -0.5701  0.0792 -0.1471
19927TIP3    H181196   2.142   6.140  16.911  0.4064  0.1934  1.6575
19927TIP3    H281197   2.225   6.020  16.870 -0.4034  0.1198  0.1411
19928TIP3   OH281198   5.858   5.954   4.507  0.1834 -0.1997 -0.1250
19928TIP3    H181199   5.913   6.017   4.461  1.3126 -0.4356  0.8770
19928TIP3    H281200   5.909   5.927   4.583 -0.9171 -1.1613  0.3098
19929TIP3   OH281201   4.769   5.953  14.339  0.2220 -0.4515  0.2006
19929TIP3    H181202   4.707   6.014  14.298 -1.0034 -1.1082  1.0284
19929TIP3    H281203   4.825   6.009  14.392  0.7824  0.2222 -1.0399
19930TIP3   OH281204   3.743   1.585  13.552 -0.7464  0.0034 -0.3860
19930TIP3    H181205   3.657   1.589  13.592 -0.5231  0.8472  0.0332
19930TIP3    H281206   3.740   1.508  13.495 -1.3764 -0.6753  0.5403
19931TIP3   OH281207   1.640   6.549   2.969  0.6817  0.2805 -0.2776
19931TIP3    H181208   1.723   6.563   2.923  1.6825 -0.8196  1.1085
19931TIP3    H281209   1.573   6.560   2.901  2.0373 -0.5824 -1.8395
19932TIP3   OH281210   2.270   4.115   0.087  0.2941 -0.2244 -0.2463
19932TIP3    H181211   2.193   4.062   0.065  0.0087 -1.1743  2.6533
19932TIP3    H281212   2.342   4.053   0.091  0.4882  0.0431  0.5548
19933TIP3   OH281213   4.364   6.384   1.432  0.6746 -0.2540  0.1338
19933TIP3    H181214   4.307   6.403   1.358  0.9380 -2.0055 -0.5679
19933TIP3    H281215   4.448   6.361   1.392  0.3001 -3.1555  0.7598
19934TIP3   OH281216   2.977   1.609   0.024  0.1147 -0.5162 -0.0736
19934TIP3    H181217   3.018   1.548   0.085  1.2201 -0.5272 -0.8017
19934TIP3    H281218   2.934   1.674   0.080  1.4347 -0.3050  0.7339
19935TIP3   OH281219   2.434   0.338   0.903 -0.2601 -0.2594 -0.0723
19935TIP3    H181220   2.354   0.304   0.862  0.2091 -1.8458  0.2607
19935TIP3    H281221   2.407   0.363   0.991 -0.4294 -0.6633 -0.0064
19936TIP3   OH281222   6.540   5.884  14.708  0.3077 -0.5331  0.8072
19936TIP3    H181223   6.522   5.977  14.721 -0.4918 -0.6820  0.7703
19936TIP3    H281224   6.490   5.839  14.776 -0.7847 -1.0528 -0.3083
19937TIP3   OH281225   6.217   0.005  12.350  0.1057  0.0927 -0.5645
19937TIP3    H181226   6.275  -0.016  12.277  1.7599 -0.5870  0.8575
19937TIP3    H281227   6.129  -0.003  12.315  0.8568  0.0234 -2.5269
19938TIP3   OH281228   3.471   0.780  11.194 -0.2290  0.2196 -0.4639
19938TIP3    H181229   3.538   0.834  11.153 -1.5147  1.0446 -1.5319
19938TIP3    H281230   3.389   0.810  11.157 -1.3705  0.2409  1.8956
19939TIP3   OH281231   5.947   6.625  16.147 -0.2599 -0.8126 -0.5303
19939TIP3    H181232   5.883   6.673  16.094  0.8444  0.8054 -0.4783
19939TIP3    H281233   5.904   6.613  16.232  0.2958  2.5301  0.3811
19940TIP3   OH281234   2.012   0.561   4.748 -0.3672 -0.3253  0.6083
19940TIP3    H181235   2.105   0.556   4.772 -0.5255 -0.4980  1.1899
19940TIP3    H281236   1.965   0.529   4.825 -1.2215  4.7814  2.5715
19941TIP3   OH281237   1.327   4.433  11.749  0.0439  0.8172  0.3638
19941TIP3    H181238   1.317   4.425  11.654 -1.0922 -0.4205  0.5447
19941TIP3    H281239   1.240   4.459  11.780  0.3589  1.0561  1.0780
19942TIP3   OH281240   4.180   5.559  12.606 -0.3715  0.1631  0.2733
19942TIP3    H181241   4.214   5.603  12.685 -0.5466 -0.5203  0.7381
19942TIP3    H281242   4.224   5.474  12.606 -2.2101 -0.8183  0.9845
19943TIP3   OH281243   5.851   5.556   4.574  0.3359 -0.0061 -0.3314
19943TIP3    H181244   5.856   5.460   4.575 -0.8566 -0.0846  0.8905
19943TIP3    H281245   5.806   5.577   4.492 -1.3210 -0.6390  0.3801
19944TIP3   OH281246   5.750   6.731  15.966  0.1528  0.2909 -0.1319
19944TIP3    H181247   5.777   6.746  15.876 -0.8636  1.5328 -0.2510
19944TIP3    H281248   5.682   6.796  15.983  0.9659  0.7117  1.8375
19945TIP3   OH281249   1.905   3.399  13.676  0.2596  1.3437 -0.7917
19945TIP3    H181250   1.852   3.361  13.606  1.1291 -0.3326 -0.6117
19945TIP3    H281251   1.842   3.441  13.734 -1.0944 -1.5915  0.0542
19946TIP3   OH281252   2.224   1.875  14.313  0.3682 -0.7237 -0.3829
19946TIP3    H181253   2.195   1.850  14.225  0.2288  1.3379 -0.9558
19946TIP3    H281254   2.157   1.936  14.344 -0.1394 -2.1902  1.6168
19947TIP3   OH281255   0.474   5.061  11.371 -0.2234  0.0131  0.2603
19947TIP3    H181256   0.411   5.126  11.403  1.7343  2.2413 -0.1398
19947TIP3    H281257   0.471   5.072  11.275 -0.3961 -1.0473  0.1379
19948TIP3   OH281258   1.963   3.153  11.963 -0.3197 -0.0648 -0.4057
19948TIP3    H181259   2.056   3.148  11.982 -0.5181 -0.2961  0.5475
19948TIP3    H281260   1.932   3.228  12.013 -0.7316 -0.2823 -0.3249
19949TIP3   OH281261   0.302   5.286   2.330 -0.3081 -0.5118 -0.5543
19949TIP3    H181262   0.222   5.316   2.287 -0.5748  0.8567  0.8000
19949TIP3    H281263   0.273   5.216   2.389 -0.8891  1.1464  1.2470
19950TIP3   OH281264   0.573   0.261   0.377 -0.2534 -0.4629  0.0149
19950TIP3    H181265   0.478   0.260   0.363 -0.0314 -1.3456 -1.7399
19950TIP3    H281266   0.610   0.254   0.289  1.4753  0.8162  0.5763
19951TIP3   OH281267   3.354   5.118   2.282 -0.7469 -0.2485  0.1922
19951TIP3    H181268   3.334   5.206   2.249  0.4490 -0.1190 -0.2571
19951TIP3    H281269   3.363   5.129   2.377 -2.8368 -0.3507  0.4466
19952TIP3   OH281270   4.766   3.842   0.668  0.2256  0.3750 -0.6675
19952TIP3    H181271   4.840   3.863   0.726 -0.1144  1.6393 -0.6819
19952TIP3    H281272   4.807   3.816   0.586  0.6946 -0.7752 -0.0964
19953TIP3   OH281273   2.025   5.035  15.498 -0.2386  0.8782 -0.4674
19953TIP3    H181274   2.082   4.978  15.447  0.4207  1.8784 -0.8716
19953TIP3    H281275   1.974   5.083  15.432 -2.3135 -0.6919 -0.1233
19954TIP3   OH281276   0.080   6.071  12.964  0.5600  0.7942 -0.5789
19954TIP3    H181277   0.018   6.004  12.936 -0.0231  0.6587  0.9447
19954TIP3    H281278   0.166   6.034  12.943  0.1876  1.5027 -3.8502
19955TIP3   OH281279   3.800   2.188  13.896 -0.3905 -0.5720 -0.2692
19955TIP3    H181280   3.843   2.152  13.974 -0.7206 -0.1455  0.1154
19955TIP3    H281281   3.758   2.268  13.927  1.2500  0.7535 -1.3418
19956TIP3   OH281282   6.760   0.666   0.373  0.1887 -0.4017  0.0688
19956TIP3    H181283   6.734   0.608   0.446 -1.6567  0.4832  0.1702
19956TIP3    H281284   6.706   0.744   0.384 -0.2819 -0.3092 -2.3649
19957TIP3   OH281285   4.877   2.714   5.008  0.8545 -0.4261 -0.2275
19957TIP3    H181286   4.829   2.750   4.934  0.1452  0.1343  0.4791
19957TIP3    H281287   4.963   2.691   4.973  0.4779 -0.3002 -1.2431
19958TIP3   OH281288   0.427   6.377  16.797 -0.3568 -0.9080 -0.2512
19958TIP3    H181289   0.459   6.394  16.709  0.5461 -1.2636 -0.0009
19958TIP3    H281290   0.503   6.341  16.844  0.1808  2.2767  1.6200
19959TIP3   OH281291   1.332   2.483  16.302  0.1715 -0.0584  0.5414
19959TIP3    H181292   1.279   2.555  16.268 -0.3686  0.0810  1.6385
19959TIP3    H281293   1.423   2.513  16.291 -0.0491  1.2129  1.8148
19960TIP3   OH281294   3.573   4.202  16.041 -0.0399  0.1808 -0.1096
19960TIP3    H181295   3.591   4.164  16.127 -0.8355 -0.6371 -0.2812
19960TIP3    H281296   3.588   4.129  15.980  0.5580  0.7654 -0.6726
19961TIP3   OH281297   4.512   5.289   5.139  0.4046 -0.6541 -0.0524
19961TIP3    H181298   4.518   5.342   5.059  2.2342  1.0851  1.1129
19961TIP3    H281299   4.431   5.318   5.181 -0.3873 -1.3282 -1.0791
19962TIP3   OH281300   4.644   5.618   5.922  0.5908  0.3135 -0.1982
19962TIP3    H181301   4.593   5.697   5.903 -1.9652 -0.9600  0.8471
19962TIP3    H281302   4.595   5.574   5.991  1.6554 -2.4204 -1.0498
19963TIP3   OH281303   2.326   3.644   2.698  0.1296  0.5560 -0.1357
19963TIP3    H181304   2.349   3.735   2.716  0.5883  0.4539 -0.1860
19963TIP3    H281305   2.405   3.595   2.721  0.4738  0.3309 -1.7012
19964TIP3   OH281306   4.672   3.344  12.406  0.1133  0.6746 -0.4638
19964TIP3    H181307   4.760   3.369  12.377 -0.0185 -0.1368 -1.5882
19964TIP3    H281308   4.623   3.426  12.405  0.8173  1.1134  0.0534
19965TIP3   OH281309   5.335   1.222  13.322  0.0255 -0.2721 -0.2544
19965TIP3    H181310   5.349   1.296  13.381 -1.2442 -1.1759  1.2397
19965TIP3    H281311   5.251   1.185  13.349 -1.8215  0.5923 -4.0600
19966TIP3   OH281312   5.231   6.060   0.190 -0.7025 -0.2506 -0.4219
19966TIP3    H181313   5.164   6.116   0.230  0.6156 -0.5075  2.4219
19966TIP3    H281314   5.188   5.976   0.177 -1.4578  0.1267 -0.4238
19967TIP3   OH281315   3.924   5.454   3.807  0.2643  0.4632  0.0593
19967TIP3    H181316   3.847   5.403   3.783  1.7929 -1.6605 -0.6326
19967TIP3    H281317   3.905   5.485   3.895 -2.1276  1.6076 -0.7840
19968TIP3   OH281318   2.471   4.046  14.772  0.1755  0.1627 -0.3466
19968TIP3    H181319   2.530   3.984  14.815 -0.8584  0.2134  1.2033
19968TIP3    H281320   2.462   4.011  14.683 -1.2016 -2.5977  0.7518
19969TIP3   OH281321   3.066   4.107   5.557 -0.3030 -0.2679  0.3630
19969TIP3    H181322   3.101   4.043   5.495 -0.9836  0.6216 -0.9768
19969TIP3    H281323   2.978   4.127   5.524 -1.1071 -0.5515  2.2200
19970TIP3   OH281324   3.162   1.907  14.587  0.4299  0.3548  0.6992
19970TIP3    H181325   3.240   1.935  14.636  0.2645  1.1925  0.4965
19970TIP3    H281326   3.120   1.843  14.645  0.7842  0.5690  1.2062
19971TIP3   OH281327   1.954   5.354   1.617 -0.1940  0.1438  0.3550
19971TIP3    H181328   2.010   5.381   1.690  0.5395 -0.8475  0.1794
19971TIP3    H281329   1.981   5.264   1.598 -1.6335 -0.2505  0.0501
19972TIP3   OH281330   4.552   0.215   4.561  0.3192  0.1834  0.1428
19972TIP3    H181331   4.589   0.246   4.644 -0.4369 -0.6375  0.8059
19972TIP3    H281332   4.504   0.290   4.527 -0.3088  0.1929  1.0198
19973TIP3   OH281333   6.661   3.655   1.840 -0.2909 -0.0218  0.1172
19973TIP3    H181334   6.740   3.624   1.796 -0.6398  1.1581 -1.4302
19973TIP3    H281335   6.660   3.749   1.823 -1.6640  0.0865  0.7184
19974LIG     O181336   3.188   3.592  16.998 -0.6513  0.4543 -0.3952
19974LIG     O281337   3.313   3.403  16.384 -0.0463 -0.3700 -0.6979
19974LIG     O381338   3.102   3.522  16.536  0.1514 -0.2311  0.0861
19974LIG     O481339   3.325   3.148  16.302 -0.4661  0.0835 -0.1182
19974LIG     O581340   2.935   3.593  16.917  0.2868 -0.0737 -0.0467
19974LIG     O681341   3.319   2.887  16.227  0.0994  0.1244  0.2067
19974LIG      N81342   3.446   3.619  16.809 -0.9878 -0.5307  0.1649
19974LIG     C181343   3.380   3.401  16.735 -0.4868  0.8684 -0.0426
19974LIG     C281344   3.316   3.460  16.610  0.6002 -0.7952 -0.1928
19974LIG     C381345   3.326   3.258  16.773 -0.2868  0.0388 -0.7476
19974LIG     C481346   3.364   3.503  16.846 -0.1743 -0.3650  0.6305
19974LIG     C581347   3.292   3.160  16.662 -0.2196 -0.7971 -0.6830
19974LIG     C681348   3.311   3.357  16.499  0.4249  0.0570 -0.0321
19974LIG     C781349   3.296   3.208  16.533 -0.7377 -0.2720 -0.2926
19974LIG     C881350   3.175   3.508  16.636  0.2239 -0.0139  0.3144
19974LIG     C981351   3.218   3.538  16.869 -0.2749  0.1928  0.4556
19974LIG    C1081352   3.118   3.529  16.773  0.0847 -0.2311  0.2259
19974LIG    C1181353   3.246   3.029  16.697 -0.7346  0.2164  0.1635
19974LIG    C1281354   3.304   3.104  16.437 -0.4915  0.6830 -0.1833
19974LIG    C1381355   3.239   2.933  16.594  0.5367  0.1310 -0.0352
19974LIG    C1481356   3.272   2.970  16.462 -0.0832 -0.0354 -0.0181
19974LIG    C1581357   3.208   2.995  16.842 -0.3477 -0.2173  0.0780
19974LIG    C1681358   2.974   3.565  16.801 -0.2866  0.0766  0.1537
19974LIG    C1781359   3.265   2.867  16.359 -0.3930 -0.8388  0.0559
19974LIG    C1881360   3.189   2.798  16.628 -0.2038 -0.3933 -0.2382
19974LIG    C1981361   3.232   2.732  16.395 -0.2577 -0.2919 -0.6034
19974LIG    C2081362   3.188   2.700  16.522 -0.6814 -0.1672 -0.2071
19974LIG    C2181363   2.876   3.549  16.689 -0.2994 -0.5366 -0.0466
19974LIG    C2281364   3.286   3.643  17.090  0.4947 -0.4052 -0.4921
19974LIG    C2381365   3.249   2.623  16.297 -0.0558  0.4765  0.4528
19974LIG     H181366   3.486   3.379  16.712 -0.7630 -1.0303  0.3261
19974LIG     H281367   3.378   3.543  16.571 -1.3675  0.9033  0.1432
19974LIG     H381368   3.228   3.271  16.824 -0.2056 -1.1808 -0.2329
19974LIG     H481369   3.398   3.216  16.846 -2.5661 -0.3672  1.4225
19974LIG     H581370   3.409   3.453  16.934  0.9950 -1.7773 -0.7057
19974LIG     H681371   3.459   3.685  16.884 -1.2465  1.8776 -1.7749
19974LIG     H781372   3.545   3.603  16.794 -0.7032  0.3710  1.0090
19974LIG     H881373   3.148   3.076  16.890  0.9474  0.9681 -0.2123
19974LIG     H981374   3.307   2.995  16.893  0.1910  0.8219 -0.9079
19974LIG    H1081375   3.158   2.898  16.861  0.1616 -1.1058 -2.7348
19974LIG    H1181376   3.151   2.763  16.722  0.0196 -2.4468 -0.8737
19974LIG    H1281377   3.296   3.239  16.294  0.4256  0.4254  0.4888
19974LIG    H1381378   3.154   2.603  16.555  2.2256 -0.1024  3.7375
19974LIG    H1481379   2.889   3.629  16.613  0.8072 -0.8999 -0.2548
19974LIG    H1581380   2.772   3.563  16.725 -0.4806  0.7519 -1.0038
19974LIG    H1681381   2.887   3.455  16.631 -0.0569 -0.0811 -0.7442
19974LIG    H1781382   3.362   3.565  17.111  2.6589  1.8370  0.5157
19974LIG    H1881383   3.244   3.687  17.183  0.1865  1.3175 -1.3951
19974LIG    H1981384   3.338   3.732  17.047  0.4761 -0.6102 -0.9494
19974LIG    H2081385   3.239   2.525  16.348  0.2622  0.6852  0.9195
19974LIG    H2181386   3.346   2.606  16.246 -0.8570 -0.6842 -0.7674
19974LIG    H2281387   3.180   2.640  16.211 -0.0786 -0.0081  0.3734
19974LIG    H2381388   3.340   2.980  16.219 -0.0786  0.0732 -1.1518
   6.78575   6.78575  17.26421
